      -----------------------------------------------------------      
     |                   =====================                   |     
     |                           x T B                           |     
     |                   =====================                   |     
     |                         S. Grimme                         |     
     |          Mulliken Center for Theoretical Chemistry        |     
     |                    University of Bonn                     |     
      -----------------------------------------------------------      

   * xtb version 6.2.2 (9d81278992624c895f80dd42a50cac0aa55982e2) compiled by '@Darwin' on 04/03/2020

   xtb is free software: you can redistribute it and/or modify it under
   the terms of the GNU Lesser General Public License as published by
   the Free Software Foundation, either version 3 of the License, or
   (at your option) any later version.
   
   xtb is distributed in the hope that it will be useful,
   but WITHOUT ANY WARRANTY; without even the implied warranty of
   MERCHANTABILITY or FITNESS FOR A PARTICULAR PURPOSE.  See the
   GNU Lesser General Public License for more details.
   
   Cite this work as:
   * S. Grimme, C. Bannwarth, P. Shushkov, J. Chem. Theory Comput., 2017,
     13, 1989-2009. DOI: 10.1021/acs.jctc.7b00118
   * C. Bannwarth, S. Ehlert and S. Grimme., J. Chem. Theory Comput., 2019,
     15, 1652-1671. DOI: 10.1021/acs.jctc.8b01176
   * P. Pracht, E. Caldeweyher, S. Ehlert, S. Grimme, ChemRxiv, 2019, preprint.
     DOI: 10.26434/chemrxiv.8326202.v1
   
   for DFT-D4:
   * E. Caldeweyher, C. Bannwarth and S. Grimme, J. Chem. Phys., 2017,
     147, 034112. DOI: 10.1063/1.4993215
   * E. Caldeweyher, S. Ehlert, A. Hansen, H. Neugebauer, S. Spicher,
     C. Bannwarth and S. Grimme, J. Chem. Phys., 2019, 150, 154122.
     DOI: 10.1063/1.5090222
   
   for sTDA-xTB:
   * S. Grimme and C. Bannwarth, J. Chem. Phys., 2016, 145, 054103.
     DOI: 10.1063/1.4959605
   
   in the mass-spec context:
   * V. Asgeirsson, C. Bauer and S. Grimme, Chem. Sci., 2017, 8, 4879.
     DOI: 10.1039/c7sc00601b
   
   for metadynamics refer to:
   * S. Grimme, J. Chem. Theory Comput., 2019, 155, 2847-2862
     DOI: 10.1021/acs.jctc.9b00143
   
   with help from (in alphabetical order)
   C. Bannwarth, F. Bohle, G. Brandenburg, E. Caldeweyher, M. Checinski,
   S. Dohm, S. Ehlert, S. Ehrlich, F. März, H. Neugebauer, J. Pisarek,
   P. Pracht, P. Shushkov, and S. Spicher.
   
 * started run on 2020/05/12 at 11:44:51.574     

           -------------------------------------------------
          |                Calculation Setup                |
           -------------------------------------------------

          program call               : xtb --input H1C3N1_4_S_0.input H1C3N1_4_S_0.xyz --ohess --molden --namespace H1C3N1_4_S_0 output.out
          calculation namespace      : H1C3N1_4_S_0
          coordinate file            : H1C3N1_4_S_0.xyz
          number of atoms            :                     5
          number of electrons        :                    18
          charge                     :                     0
          spin                       :                   0.0
          first test random number   :      0.20569470349004

   ID    Z sym.   atoms
    1    6 C      1, 3, 4
    2    7 N      2
    3    1 H      5

           -------------------------------------------------
          |                 G F N 2 - x T B                 |
           -------------------------------------------------

        Reference                      10.1021/acs.jctc.8b01176
      * Hamiltonian:
        H0-scaling (s, p, d)           1.850000    2.230000    2.230000
        zeta-weighting                 0.500000
      * Dispersion:
        s8                             2.700000
        a1                             0.520000
        a2                             5.000000
        s9                             5.000000
      * Repulsion:
        kExp                           1.500000    1.000000
        rExp                           1.000000
      * Coulomb:
        alpha                          2.000000
        third order                    shell-resolved
        anisotropic                    true
        a3                             3.000000
        a5                             4.000000
        cn-shift                       1.200000
        cn-exp                         4.000000
        max-rad                        5.000000


          ...................................................
          :                      SETUP                      :
          :.................................................:
          :  # basis functions                  17          :
          :  # atomic orbitals                  17          :
          :  # shells                            9          :
          :  # electrons                        18          :
          :  max. iterations                   250          :
          :  Hamiltonian                  GFN2-xTB          :
          :  restarted?                      false          :
          :  GBSA solvation                  false          :
          :  PC potential                    false          :
          :  electronic temp.          300.0000000     K    :
          :  accuracy                    1.0000000          :
          :  -> integral cutoff          0.2500000E+02      :
          :  -> integral neglect         0.1000000E-07      :
          :  -> SCF convergence          0.1000000E-05 Eh   :
          :  -> wf. convergence          0.1000000E-03 e    :
          :  Broyden damping             0.4000000          :
          ...................................................

 iter      E             dE          RMSdq      gap      omega  full diag
   1     -9.2585671 -0.925857E+01  0.906E+00    0.75       0.0  T
   2     -9.3000092 -0.414420E-01  0.575E+00    0.57       1.0  T
   3     -9.3041655 -0.415631E-02  0.213E+00    0.57       1.0  T
   4     -9.3051132 -0.947759E-03  0.614E-01    0.57       1.0  T
   5     -9.2858357  0.192775E-01  0.150E+00    0.56       1.0  T
   6     -9.2976561 -0.118204E-01  0.962E-01    0.56       1.0  T
   7     -9.3032272 -0.557113E-02  0.495E-01    0.57       1.0  T
   8     -9.3053031 -0.207588E-02  0.105E-01    0.57       1.0  T
   9     -9.3053422 -0.391085E-04  0.671E-02    0.57       1.0  T
  10     -9.3053552 -0.130111E-04  0.176E-02    0.57       2.5  T
  11     -9.3053560 -0.716373E-06  0.753E-03    0.57       5.9  T
  12     -9.3053561 -0.134619E-06  0.104E-03    0.57      42.8  T
  13     -9.3053561 -0.201233E-08  0.106E-04    0.57     422.5  T
  14     -9.3053561 -0.327365E-10  0.381E-05    0.57    1173.0  T

   *** convergence criteria satisfied after 14 iterations ***

         #    Occupation            Energy/Eh            Energy/eV
      -------------------------------------------------------------
         1        2.0000           -0.7443867             -20.2558
       ...           ...                  ...                  ...
         3        2.0000           -0.6885570             -18.7366
         4        2.0000           -0.6656434             -18.1131
         5        2.0000           -0.5278629             -14.3639
         6        2.0000           -0.5045454             -13.7294
         7        2.0000           -0.5045453             -13.7294
         8        2.0000           -0.3956186             -10.7653
         9        2.0000           -0.3956185             -10.7653 (HOMO)
        10        0.0000           -0.3747174             -10.1966 (LUMO)
        11                         -0.3565962              -9.7035
        12                         -0.3565961              -9.7035
        13                         -0.3443964              -9.3715
        14                         -0.0669475              -1.8217
       ...                                ...                  ...
        17                          0.0674048               1.8342
      -------------------------------------------------------------
                  HL-Gap            0.0209011 Eh            0.5687 eV
             Fermi-level           -0.3848387 Eh          -10.4720 eV

 SCC (total)                   0 d,  0 h,  0 min,  0.004 sec
 SCC setup                      ...        0 min,  0.000 sec (  2.140%)
 Dispersion                     ...        0 min,  0.000 sec (  0.435%)
 integral evaluation            ...        0 min,  0.001 sec ( 27.435%)
 zeroth order Hamiltonian       ...        0 min,  0.000 sec (  0.482%)
 iterations                     ...        0 min,  0.001 sec ( 38.459%)
 molecular gradient             ...        0 min,  0.001 sec ( 28.563%)
 printout                       ...        0 min,  0.000 sec (  2.167%)

         :::::::::::::::::::::::::::::::::::::::::::::::::::::
         ::                     SUMMARY                     ::
         :::::::::::::::::::::::::::::::::::::::::::::::::::::
         :: total energy              -9.257624289324 Eh    ::
         :: gradient norm              0.092729237370 Eh/a0 ::
         :: HOMO-LUMO gap              0.568747084449 eV    ::
         ::.................................................::
         :: SCC energy                -9.305356099488 Eh    ::
         :: -> isotropic ES           -0.040150049092 Eh    ::
         :: -> anisotropic ES          0.002967854924 Eh    ::
         :: -> anisotropic XC          0.002686193818 Eh    ::
         :: -> dispersion             -0.002408796659 Eh    ::
         :: repulsion energy           0.047731713890 Eh    ::
         :: add. restraining           0.000000000000 Eh    ::
         :::::::::::::::::::::::::::::::::::::::::::::::::::::

      ----------------------------------------------------------- 
     |                   =====================                   |
     |                        A N C O P T                        |
     |                   =====================                   |
     |               Approximate Normal Coordinate               |
     |                Rational Function Optimizer                |
      ----------------------------------------------------------- 

          ...................................................
          :                      SETUP                      :
          :.................................................:
          :   optimization level            normal          :
          :   max. optcycles                   200          :
          :   ANC micro-cycles                  20          :
          :   degrees of freedom                 9          :
          :.................................................:
          :   RF solver                   davidson          :
          :   write xtbopt.log                true          :
          :   linear?                        false          :
          :   energy convergence         0.5000000E-05 Eh   :
          :   grad. convergence          0.1000000E-02 Eh/α :
          :   maximium RF displ.         1.0000000          :
          :   Hlow (freq-cutoff)         0.1000000E-01      :
          :   Hmax (freq-cutoff)         5.0000000          :
          :   S6 in model hess.         20.0000000          :
          ...................................................

generating ANC from model Hessian ...
Using Lindh-Hessian (1995)
 Shifting diagonal of input Hessian by    0.0000000000000000     
 Lowest  eigenvalues of input Hessian
   -0.000000   -0.000000   -0.000000    0.000000    0.000000    0.000000
    0.102431    0.102431    0.125786    0.164003    0.164004    0.537669
    1.254574    1.262560    1.262562
 Highest eigenvalues
    0.164003    0.164004    0.537669    1.254574    1.262560    1.262562


........................................................................
.............................. CYCLE    1 ..............................
........................................................................
   1     -9.3053561 -0.930536E+01  0.334E-06    0.57       0.0  T
   2     -9.3053561  0.114078E-10  0.361E-05    0.57    1238.8  T
   3     -9.3053561 -0.114060E-10  0.304E-06    0.57   14712.3  T
     SCC iter.                  ...        0 min,  0.000 sec
     gradient                   ...        0 min,  0.001 sec
 * total energy  :    -9.2576243 Eh     change       -0.4102745E-09 Eh
   gradient norm :     0.0927289 Eh/α   predicted     0.0000000E+00 (-100.00%)
   displ. norm   :     0.3101176 α      lambda       -0.2333092E-01
   maximum displ.:     0.2729666 α      in ANC's #3, #6, #7, ...

........................................................................
.............................. CYCLE    2 ..............................
........................................................................
   1     -9.3384315 -0.933843E+01  0.132E+00    0.38       0.0  T
   2     -9.3390431 -0.611604E-03  0.748E-01    0.35       1.0  T
   3     -9.3390912 -0.480326E-04  0.156E-01    0.35       1.0  T
   4     -9.3390941 -0.295976E-05  0.536E-02    0.35       1.0  T
   5     -9.3382109  0.883271E-03  0.346E-01    0.35       1.0  T
   6     -9.3390954 -0.884558E-03  0.846E-03    0.35       5.3  T
   7     -9.3390956 -0.178885E-06  0.210E-03    0.35      21.3  T
   8     -9.3390949  0.738548E-06  0.100E-02    0.35       4.5  T
   9     -9.3390956 -0.732257E-06  0.134E-03    0.35      33.4  T
  10     -9.3390956 -0.101294E-07  0.777E-05    0.35     575.9  T
  11     -9.3390956 -0.236895E-10  0.225E-05    0.35    1989.0  T
     SCC iter.                  ...        0 min,  0.001 sec
     gradient                   ...        0 min,  0.001 sec
 * total energy  :    -9.2777678 Eh     change       -0.2014354E-01 Eh
   gradient norm :     0.0619644 Eh/α   predicted    -0.1278736E-01 ( -36.52%)
   displ. norm   :     0.6085768 α      lambda       -0.3206255E-01
   maximum displ.:     0.5561489 α      in ANC's #3, #6, #7, ...

........................................................................
.............................. CYCLE    3 ..............................
........................................................................
   1     -9.3992822 -0.939928E+01  0.626E+00    0.00       0.0  T
   2     -9.4020860 -0.280383E-02  0.353E+00    0.00       1.0  T
   3     -9.4025863 -0.500269E-03  0.229E-01    0.00       1.0  T
   4     -9.3994778  0.310849E-02  0.946E-01    0.01       1.0  T
   5     -9.4023621 -0.288434E-02  0.280E-01    0.00       1.0  T
   6     -9.3997554  0.260674E-02  0.902E-01    0.01       1.0  T
   7     -9.4026141 -0.285871E-02  0.320E-02    0.00       1.4  T
   8     -9.4026114  0.267503E-05  0.338E-02    0.00       1.3  T
   9     -9.4026138 -0.234744E-05  0.180E-02    0.00       2.5  T
  10     -9.4026148 -0.101492E-05  0.301E-03    0.00      14.9  T
  11     -9.4026147  0.635190E-07  0.503E-03    0.00       8.9  T
  12     -9.4026148 -0.673075E-07  0.259E-04    0.00     172.8  T
  13     -9.4026148 -0.747065E-10  0.105E-04    0.00     424.7  T
     SCC iter.                  ...        0 min,  0.001 sec
     gradient                   ...        0 min,  0.001 sec
 * total energy  :    -9.3231555 Eh     change       -0.4538770E-01 Eh
   gradient norm :     0.1448094 Eh/α   predicted    -0.2196871E-01 ( -51.60%)
   displ. norm   :     0.8323461 α      lambda       -0.1130561E+00
   maximum displ.:     0.8070729 α      in ANC's #3, #6, #7, ...

........................................................................
.............................. CYCLE    4 ..............................
........................................................................
   1     -9.4620837 -0.946208E+01  0.643E+00    0.00       0.0  T
   2     -9.4880735 -0.259898E-01  0.261E+00    0.00       1.0  T
   3     -9.4895107 -0.143726E-02  0.130E+00    0.00       1.0  T
   4     -9.4874600  0.205072E-02  0.121E+00    0.02       1.0  T
   5     -9.4902712 -0.281122E-02  0.218E-01    0.00       1.0  T
   6     -9.4890511  0.122014E-02  0.816E-01    0.01       1.0  T
   7     -9.4903209 -0.126980E-02  0.589E-02    0.00       1.0  T
   8     -9.4903290 -0.808137E-05  0.214E-02    0.00       2.1  T
   9     -9.4903294 -0.389364E-06  0.101E-02    0.00       4.4  T
  10     -9.4903296 -0.183062E-06  0.187E-03    0.00      23.9  T
  11     -9.4903296 -0.413839E-08  0.122E-03    0.00      36.7  T
  12     -9.4903296 -0.278260E-08  0.159E-04    0.00     281.8  T
  13     -9.4903296 -0.342091E-10  0.101E-04    0.00     440.9  T
     SCC iter.                  ...        0 min,  0.001 sec
     gradient                   ...        0 min,  0.001 sec
 * total energy  :    -9.4177362 Eh     change       -0.9458065E-01 Eh
   gradient norm :     0.1065408 Eh/α   predicted    -0.9569065E-01 (   1.17%)
   displ. norm   :     0.6964087 α      lambda       -0.6081780E-01
   maximum displ.:     0.6149523 α      in ANC's #3, #6, #7, ...

........................................................................
.............................. CYCLE    5 ..............................
........................................................................
   1     -9.5364772 -0.953648E+01  0.805E+00    0.06       0.0  T
   2     -9.5648561 -0.283789E-01  0.438E+00    0.08       1.0  T
   3     -9.3830657  0.181790E+00  0.682E+00    0.25       1.0  T
   4     -9.4293073 -0.462416E-01  0.556E+00    0.23       1.0  T
   5     -9.5077179 -0.784106E-01  0.380E+00    0.10       1.0  T
   6     -9.5641575 -0.564397E-01  0.160E+00    0.08       1.0  T
   7     -9.5263666  0.377909E-01  0.350E+00    0.10       1.0  T
   8     -9.5642849 -0.379183E-01  0.150E+00    0.07       1.0  T
   9     -9.5579198  0.636515E-02  0.175E+00    0.08       1.0  T
  10     -9.5605905 -0.267069E-02  0.155E+00    0.08       1.0  T
  11     -9.5687781 -0.818766E-02  0.581E-01    0.07       1.0  T
  12     -9.5700865 -0.130838E-02  0.108E-01    0.07       1.0  T
  13     -9.5701155 -0.289329E-04  0.630E-02    0.07       1.0  T
  14     -9.5701268 -0.113385E-04  0.232E-02    0.07       1.9  T
  15     -9.5701280 -0.124835E-05  0.110E-02    0.07       4.1  T
  16     -9.5701284 -0.308313E-06  0.633E-03    0.07       7.1  T
  17     -9.5701285 -0.125638E-06  0.670E-04    0.07      66.8  T
  18     -9.5701285 -0.162876E-08  0.173E-04    0.07     259.1  T
     SCC iter.                  ...        0 min,  0.001 sec
     gradient                   ...        0 min,  0.001 sec
 * total energy  :    -9.3966343 Eh     change        0.2110190E-01 Eh
   gradient norm :     0.3056078 Eh/α   predicted    -0.4515678E-01 (-313.99%)
   displ. norm   :     0.4148855 α      lambda       -0.1200986E+00
   maximum displ.:     0.3383327 α      in ANC's #3, #6, #7, ...

........................................................................
.............................. CYCLE    6 ..............................
........................................................................
   1     -9.5029315 -0.950293E+01  0.597E+00    0.00       0.0  T
   2     -9.5136887 -0.107572E-01  0.305E+00    0.00       1.0  T
   3     -9.4742599  0.394289E-01  0.335E+00    0.05       1.0  T
   4     -9.3585033  0.115757E+00  0.555E+00    0.11       1.0  T
   5     -9.5018513 -0.143348E+00  0.212E+00    0.02       1.0  T
   6     -9.4335451  0.683062E-01  0.423E+00    0.06       1.0  T
   7     -9.5142530 -0.807079E-01  0.122E+00    0.01       1.0  T
   8     -9.5150190 -0.766037E-03  0.830E-01    0.00       1.0  T
   9     -9.5156050 -0.585997E-03  0.432E-01    0.00       1.0  T
  10     -9.5153748  0.230262E-03  0.475E-01    0.00       1.0  T
  11     -9.5157801 -0.405334E-03  0.220E-01    0.00       1.0  T
  12     -9.5158833 -0.103235E-03  0.595E-02    0.00       1.0  T
  13     -9.5158869 -0.353460E-05  0.358E-02    0.00       1.2  T
  14     -9.5158872 -0.339014E-06  0.300E-02    0.00       1.5  T
  15     -9.5158872 -0.181776E-07  0.222E-02    0.00       2.0  T
  16     -9.5158875 -0.235363E-06  0.118E-02    0.00       3.8  T
  17     -9.5158877 -0.220896E-06  0.618E-03    0.00       7.2  T
  18     -9.5158878 -0.730222E-07  0.262E-03    0.00      17.1  T
  19     -9.5158878 -0.116655E-07  0.873E-04    0.00      51.2  T
  20     -9.5158878 -0.161978E-08  0.367E-04    0.00     121.8  T
     SCC iter.                  ...        0 min,  0.001 sec
     gradient                   ...        0 min,  0.001 sec
 * total energy  :    -9.4341069 Eh     change       -0.3747263E-01 Eh
   gradient norm :     0.0452363 Eh/α   predicted    -0.7038557E-01 (  87.83%)
   displ. norm   :     0.0464824 α      lambda       -0.1955425E-02
   maximum displ.:     0.0443573 α      in ANC's #6, #1, #7, ...

........................................................................
.............................. CYCLE    7 ..............................
........................................................................
   1     -9.5255282 -0.952553E+01  0.169E+00    0.04       0.0  T
   2     -9.4322319  0.932963E-01  0.487E+00    0.11       1.0  T
   3     -9.5083919 -0.761600E-01  0.221E+00    0.05       1.0  T
   4     -9.4568133  0.515785E-01  0.426E+00    0.07       1.0  T
   5     -9.5020847 -0.452714E-01  0.262E+00    0.04       1.0  T
   6     -9.5215342 -0.194495E-01  0.112E+00    0.03       1.0  T
   7     -9.5236611 -0.212686E-02  0.826E-01    0.02       1.0  T
   8     -9.5249145 -0.125345E-02  0.633E-01    0.03       1.0  T
   9     -9.5262245 -0.130995E-02  0.289E-01    0.03       1.0  T
  10     -9.5264275 -0.203007E-03  0.142E-01    0.03       1.0  T
  11     -9.5264987 -0.712238E-04  0.380E-02    0.03       1.2  T
  12     -9.5264977  0.985892E-06  0.305E-02    0.03       1.5  T
  13     -9.5264987 -0.105171E-05  0.189E-02    0.03       2.4  T
  14     -9.5264991 -0.348320E-06  0.125E-02    0.03       3.6  T
  15     -9.5264992 -0.136805E-06  0.614E-03    0.03       7.3  T
  16     -9.5264993 -0.280486E-07  0.494E-03    0.03       9.1  T
  17     -9.5264993 -0.327508E-07  0.173E-03    0.03      25.8  T
  18     -9.5264993  0.244454E-08  0.149E-03    0.03      30.1  T
  19     -9.5264993 -0.379658E-08  0.385E-04    0.03     116.3  T
  20     -9.5264993 -0.516032E-11  0.156E-04    0.03     286.1  T
     SCC iter.                  ...        0 min,  0.001 sec
     gradient                   ...        0 min,  0.001 sec
 * total energy  :    -9.4357093 Eh     change       -0.1602336E-02 Eh
   gradient norm :     0.0471698 Eh/α   predicted    -0.9798249E-03 ( -38.85%)
   displ. norm   :     0.8518165 α      lambda       -0.3176818E-01
   maximum displ.:     0.7057710 α      in ANC's #6, #1, #2, ...

........................................................................
.............................. CYCLE    8 ..............................
........................................................................
   1     -9.6821029 -0.968210E+01  0.668E+00    2.59       0.0  T
   2     -9.6944940 -0.123911E-01  0.448E+00    2.15       1.0  T
   3     -9.6932112  0.128284E-02  0.257E+00    2.36       1.0  T
   4     -9.7065050 -0.132938E-01  0.448E-01    2.22       1.0  T
   5     -9.7069606 -0.455585E-03  0.248E-01    2.18       1.0  T
   6     -9.7070680 -0.107408E-03  0.125E-01    2.20       1.0  T
   7     -9.7070778 -0.977391E-05  0.189E-02    2.20       2.4  T
   8     -9.7070781 -0.312871E-06  0.331E-03    2.20      13.5  T
   9     -9.7070781 -0.118540E-07  0.104E-03    2.19      43.0  T
  10     -9.7070781 -0.860886E-09  0.198E-04    2.19     226.1  T
  11     -9.7070781 -0.315836E-10  0.603E-05    2.19     741.9  T
     SCC iter.                  ...        0 min,  0.001 sec
     gradient                   ...        0 min,  0.001 sec
 * total energy  :    -9.1224744 Eh     change        0.3132349E+00 Eh
   gradient norm :     1.5435794 Eh/α   predicted    -0.2740953E-01 (-108.75%)
   displ. norm   :     0.5141504 α      lambda       -0.7292977E+00
   maximum displ.:     0.4202750 α      in ANC's #6, #1, #7, ...

........................................................................
.............................. CYCLE    9 ..............................
........................................................................
   1     -9.5816933 -0.958169E+01  0.398E+00    0.51       0.0  T
   2     -9.4726603  0.109033E+00  0.597E+00    1.25       1.0  T
   3     -9.6230277 -0.150367E+00  0.162E+00    0.76       1.0  T
   4     -9.6191158  0.391197E-02  0.108E+00    0.68       1.0  T
   5     -9.6224360 -0.332028E-02  0.637E-01    0.83       1.0  T
   6     -9.6237509 -0.131489E-02  0.226E-01    0.79       1.0  T
   7     -9.6238136 -0.627309E-04  0.860E-02    0.79       1.0  T
   8     -9.6238347 -0.210708E-04  0.200E-02    0.79       2.2  T
   9     -9.6238347 -0.141462E-07  0.464E-03    0.79       9.6  T
  10     -9.6238348 -0.161081E-07  0.225E-03    0.79      19.9  T
  11     -9.6238348 -0.920866E-08  0.488E-04    0.79      91.6  T
  12     -9.6238348 -0.135365E-09  0.221E-04    0.79     202.7  T
     SCC iter.                  ...        0 min,  0.001 sec
     gradient                   ...        0 min,  0.001 sec
 * total energy  :    -9.4439162 Eh     change       -0.3214418E+00 Eh
   gradient norm :     0.2710665 Eh/α   predicted    -0.4610440E+00 (  43.43%)
   displ. norm   :     0.2410172 α      lambda       -0.3517514E-01
   maximum displ.:     0.1545241 α      in ANC's #6, #3, #2, ...

........................................................................
.............................. CYCLE   10 ..............................
........................................................................
   1     -9.5890880 -0.958909E+01  0.162E+00    0.58       0.0  T
   2     -9.5779763  0.111117E-01  0.172E+00    0.57       1.0  T
   3     -9.5828814 -0.490510E-02  0.154E+00    0.61       1.0  T
   4     -9.5905759 -0.769450E-02  0.468E-01    0.61       1.0  T
   5     -9.5909831 -0.407206E-03  0.359E-01    0.54       1.0  T
   6     -9.5913251 -0.342002E-03  0.154E-01    0.56       1.0  T
   7     -9.5913586 -0.335115E-04  0.217E-02    0.57       2.1  T
   8     -9.5913600 -0.136484E-05  0.954E-03    0.57       4.7  T
   9     -9.5913601 -0.130560E-06  0.209E-03    0.57      21.4  T
  10     -9.5913601 -0.108794E-07  0.692E-04    0.57      64.7  T
  11     -9.5913601 -0.872976E-09  0.161E-04    0.57     278.5  T
     SCC iter.                  ...        0 min,  0.001 sec
     gradient                   ...        0 min,  0.001 sec
 * total energy  :    -9.4602147 Eh     change       -0.1629848E-01 Eh
   gradient norm :     0.1969016 Eh/α   predicted    -0.1860922E-01 (  14.18%)
   displ. norm   :     0.3691895 α      lambda       -0.4298413E-01
   maximum displ.:     0.3259620 α      in ANC's #2, #6, #3, ...

........................................................................
.............................. CYCLE   11 ..............................
........................................................................
   1     -9.5946720 -0.959467E+01  0.362E+00    1.25       0.0  T
   2     -9.5779424  0.167295E-01  0.234E+00    1.12       1.0  T
   3     -9.5636481  0.142943E-01  0.308E+00    1.39       1.0  T
   4     -9.5990612 -0.354131E-01  0.452E-01    1.21       1.0  T
   5     -9.5997289 -0.667694E-03  0.276E-01    1.17       1.0  T
   6     -9.5998565 -0.127648E-03  0.186E-01    1.18       1.0  T
   7     -9.5999311 -0.745657E-04  0.162E-02    1.17       2.8  T
   8     -9.5999309  0.148468E-06  0.130E-02    1.17       3.4  T
   9     -9.5999314 -0.463291E-06  0.308E-03    1.17      14.5  T
  10     -9.5999314 -0.259491E-07  0.710E-04    1.17      63.0  T
  11     -9.5999314 -0.404924E-09  0.155E-04    1.17     289.2  T
     SCC iter.                  ...        0 min,  0.001 sec
     gradient                   ...        0 min,  0.001 sec
 * total energy  :    -9.4813052 Eh     change       -0.2109059E-01 Eh
   gradient norm :     0.1686798 Eh/α   predicted    -0.2442145E-01 (  15.79%)
   displ. norm   :     0.2179245 α      lambda       -0.2907790E-01
   maximum displ.:     0.1542441 α      in ANC's #1, #3, #2, ...

........................................................................
.............................. CYCLE   12 ..............................
........................................................................
   1     -9.6016516 -0.960165E+01  0.156E+00    1.77       0.0  T
   2     -9.5985162  0.313537E-02  0.118E+00    1.78       1.0  T
   3     -9.6016066 -0.309035E-02  0.907E-01    1.77       1.0  T
   4     -9.6043157 -0.270911E-02  0.245E-01    1.75       1.0  T
   5     -9.6044248 -0.109112E-03  0.159E-01    1.78       1.0  T
   6     -9.6045779 -0.153121E-03  0.494E-02    1.77       1.0  T
   7     -9.6045788 -0.911789E-06  0.761E-03    1.77       5.9  T
   8     -9.6045789 -0.832333E-07  0.354E-03    1.77      12.6  T
   9     -9.6045789 -0.397378E-08  0.437E-04    1.77     102.4  T
  10     -9.6045789 -0.139684E-09  0.990E-05    1.77     451.9  T
     SCC iter.                  ...        0 min,  0.001 sec
     gradient                   ...        0 min,  0.001 sec
 * total energy  :    -9.5031786 Eh     change       -0.2187338E-01 Eh
   gradient norm :     0.1133463 Eh/α   predicted    -0.1522942E-01 ( -30.37%)
   displ. norm   :     0.3273341 α      lambda       -0.2750741E-01
   maximum displ.:     0.2327685 α      in ANC's #1, #2, #3, ...

........................................................................
.............................. CYCLE   13 ..............................
........................................................................
   1     -9.6172022 -0.961720E+01  0.175E+00    2.60       0.0  T
   2     -9.6169323  0.269870E-03  0.102E+00    2.59       1.0  T
   3     -9.6116710  0.526133E-02  0.986E-01    2.60       1.0  T
   4     -9.6177790 -0.610800E-02  0.968E-02    2.59       1.0  T
   5     -9.6177662  0.127357E-04  0.896E-02    2.60       1.0  T
   6     -9.6178020 -0.357817E-04  0.330E-02    2.59       1.4  T
   7     -9.6178060 -0.403291E-05  0.744E-03    2.59       6.0  T
   8     -9.6178061 -0.452169E-07  0.355E-03    2.59      12.6  T
   9     -9.6178061 -0.230646E-08  0.530E-04    2.59      84.4  T
  10     -9.6178061 -0.235108E-09  0.892E-05    2.59     501.4  T
     SCC iter.                  ...        0 min,  0.001 sec
     gradient                   ...        0 min,  0.001 sec
 * total energy  :    -9.5216351 Eh     change       -0.1845646E-01 Eh
   gradient norm :     0.0915700 Eh/α   predicted    -0.1522738E-01 ( -17.50%)
   displ. norm   :     0.1867821 α      lambda       -0.9390822E-02
   maximum displ.:     0.1484326 α      in ANC's #1, #2, #8, ...

........................................................................
.............................. CYCLE   14 ..............................
........................................................................
   1     -9.6270723 -0.962707E+01  0.950E-01    3.04       0.0  T
   2     -9.6270625  0.986011E-05  0.534E-01    3.04       1.0  T
   3     -9.6253890  0.167347E-02  0.494E-01    3.01       1.0  T
   4     -9.6271486 -0.175959E-02  0.912E-02    3.04       1.0  T
   5     -9.6271951 -0.465606E-04  0.387E-02    3.03       1.2  T
   6     -9.6272009 -0.578641E-05  0.186E-02    3.03       2.4  T
   7     -9.6272016 -0.677938E-06  0.142E-03    3.03      31.4  T
   8     -9.6272016 -0.109160E-08  0.769E-04    3.03      58.1  T
   9     -9.6272016 -0.245791E-09  0.164E-04    3.03     272.6  T
     SCC iter.                  ...        0 min,  0.001 sec
     gradient                   ...        0 min,  0.001 sec
 * total energy  :    -9.5282781 Eh     change       -0.6643054E-02 Eh
   gradient norm :     0.0877685 Eh/α   predicted    -0.4859224E-02 ( -26.85%)
   displ. norm   :     0.1504824 α      lambda       -0.7439605E-02
   maximum displ.:     0.1161420 α      in ANC's #1, #8, #9, ...

........................................................................
.............................. CYCLE   15 ..............................
........................................................................
   1     -9.6380903 -0.963809E+01  0.893E-01    3.31       0.0  T
   2     -9.6378168  0.273411E-03  0.566E-01    3.33       1.0  T
   3     -9.6363708  0.144607E-02  0.586E-01    3.28       1.0  T
   4     -9.6382152 -0.184443E-02  0.191E-01    3.33       1.0  T
   5     -9.6384880 -0.272812E-03  0.581E-02    3.32       1.0  T
   6     -9.6385028 -0.148316E-04  0.218E-02    3.32       2.1  T
   7     -9.6385033 -0.426922E-06  0.240E-03    3.32      18.7  T
   8     -9.6385033 -0.103003E-08  0.138E-03    3.32      32.3  T
   9     -9.6385033 -0.586285E-09  0.187E-04    3.32     239.7  T
  10     -9.6385033 -0.136477E-10  0.354E-05    3.32    1263.4  T
     SCC iter.                  ...        0 min,  0.001 sec
     gradient                   ...        0 min,  0.001 sec
 * total energy  :    -9.5338145 Eh     change       -0.5536373E-02 Eh
   gradient norm :     0.0666502 Eh/α   predicted    -0.3804038E-02 ( -31.29%)
   displ. norm   :     0.1500508 α      lambda       -0.6483227E-02
   maximum displ.:     0.0860067 α      in ANC's #5, #1, #4, ...

........................................................................
.............................. CYCLE   16 ..............................
........................................................................
   1     -9.6525803 -0.965258E+01  0.967E-01    3.19       0.0  T
   2     -9.6520594  0.520882E-03  0.694E-01    3.20       1.0  T
   3     -9.6521069 -0.475139E-04  0.554E-01    3.18       1.0  T
   4     -9.6528393 -0.732385E-03  0.290E-01    3.18       1.0  T
   5     -9.6534924 -0.653064E-03  0.750E-02    3.19       1.0  T
   6     -9.6535154 -0.230316E-04  0.284E-02    3.19       1.6  T
   7     -9.6535158 -0.349141E-06  0.353E-03    3.19      12.7  T
   8     -9.6535158 -0.864272E-08  0.156E-03    3.19      28.7  T
   9     -9.6535158 -0.224382E-09  0.246E-04    3.19     182.1  T
  10     -9.6535158 -0.353992E-10  0.464E-05    3.19     964.2  T
     SCC iter.                  ...        0 min,  0.001 sec
     gradient                   ...        0 min,  0.001 sec
 * total energy  :    -9.5375116 Eh     change       -0.3697092E-02 Eh
   gradient norm :     0.0163648 Eh/α   predicted    -0.3314599E-02 ( -10.35%)
   displ. norm   :     0.0499277 α      lambda       -0.5305005E-03
   maximum displ.:     0.0362050 α      in ANC's #5, #1, #2, ...

........................................................................
.............................. CYCLE   17 ..............................
........................................................................
   1     -9.6557285 -0.965573E+01  0.222E-01    3.21       0.0  T
   2     -9.6557289 -0.447867E-06  0.133E-01    3.21       1.0  T
   3     -9.6556729  0.560526E-04  0.106E-01    3.21       1.0  T
   4     -9.6557372 -0.642958E-04  0.276E-02    3.21       1.6  T
   5     -9.6557414 -0.420123E-05  0.135E-02    3.21       3.3  T
   6     -9.6557421 -0.719832E-06  0.615E-03    3.21       7.3  T
   7     -9.6557422 -0.756474E-07  0.830E-04    3.21      53.9  T
   8     -9.6557422 -0.210198E-09  0.181E-04    3.21     247.0  T
     SCC iter.                  ...        0 min,  0.001 sec
     gradient                   ...        0 min,  0.001 sec
 * total energy  :    -9.5378188 Eh     change       -0.3071788E-03 Eh
   gradient norm :     0.0039155 Eh/α   predicted    -0.2659126E-03 ( -13.43%)
   displ. norm   :     0.0195378 α      lambda       -0.5127915E-04
   maximum displ.:     0.0141070 α      in ANC's #1, #5, #2, ...

........................................................................
.............................. CYCLE   18 ..............................
........................................................................
   1     -9.6561503 -0.965615E+01  0.732E-02    3.24       0.0  T
   2     -9.6561501  0.174193E-06  0.427E-02    3.24       1.0  T
   3     -9.6561447  0.546915E-05  0.372E-02    3.24       1.2  T
   4     -9.6561518 -0.712391E-05  0.603E-03    3.24       7.4  T
   5     -9.6561519 -0.157972E-06  0.418E-03    3.24      10.7  T
   6     -9.6561520 -0.919866E-07  0.140E-03    3.24      32.1  T
   7     -9.6561520 -0.145470E-08  0.206E-04    3.24     216.7  T
   8     -9.6561520 -0.262119E-10  0.452E-05    3.24     990.0  T
     SCC iter.                  ...        0 min,  0.001 sec
     gradient                   ...        0 min,  0.001 sec
 * total energy  :    -9.5378535 Eh     change       -0.3469811E-04 Eh
   gradient norm :     0.0035263 Eh/α   predicted    -0.2564952E-04 ( -26.08%)
   displ. norm   :     0.0163396 α      lambda       -0.2680935E-04
   maximum displ.:     0.0105666 α      in ANC's #5, #1, #4, ...

........................................................................
.............................. CYCLE   19 ..............................
........................................................................
   1     -9.6561270 -0.965613E+01  0.560E-02    3.26       0.0  T
   2     -9.6561256  0.133128E-05  0.353E-02    3.26       1.3  T
   3     -9.6561212  0.447948E-05  0.364E-02    3.26       1.2  T
   4     -9.6561275 -0.635485E-05  0.126E-02    3.26       3.6  T
   5     -9.6561287 -0.118748E-05  0.186E-03    3.26      24.0  T
   6     -9.6561287 -0.521869E-08  0.605E-04    3.26      73.9  T
   7     -9.6561287 -0.532223E-09  0.138E-04    3.26     325.0  T
     SCC iter.                  ...        0 min,  0.001 sec
     gradient                   ...        0 min,  0.001 sec
 * total energy  :    -9.5378730 Eh     change       -0.1947469E-04 Eh
   gradient norm :     0.0030551 Eh/α   predicted    -0.1340716E-04 ( -31.16%)
   displ. norm   :     0.0174007 α      lambda       -0.2360459E-04
   maximum displ.:     0.0102814 α      in ANC's #5, #4, #3, ...

........................................................................
.............................. CYCLE   20 ..............................
........................................................................
   1     -9.6558916 -0.965589E+01  0.637E-02    3.26       0.0  T
   2     -9.6558899  0.172849E-05  0.393E-02    3.26       1.1  T
   3     -9.6558788  0.110827E-04  0.467E-02    3.26       1.0  T
   4     -9.6558925 -0.137170E-04  0.105E-02    3.26       4.3  T
   5     -9.6558932 -0.731920E-06  0.215E-03    3.26      20.8  T
   6     -9.6558932 -0.150907E-08  0.447E-04    3.26     100.0  T
   7     -9.6558932 -0.320181E-09  0.157E-04    3.26     284.8  T
     SCC iter.                  ...        0 min,  0.001 sec
     gradient                   ...        0 min,  0.001 sec
 * total energy  :    -9.5378893 Eh     change       -0.1631380E-04 Eh
   gradient norm :     0.0022126 Eh/α   predicted    -0.1180401E-04 ( -27.64%)
   displ. norm   :     0.0120593 α      lambda       -0.1385251E-04
   maximum displ.:     0.0070943 α      in ANC's #4, #8, #5, ...
 * RMSD in coord.:     1.0323995 α      energy gain  -0.2802650E+00 Eh

generating ANC from model Hessian ...
Using Lindh-Hessian (1995)
 Shifting diagonal of input Hessian by    0.0000000000000000     
 Lowest  eigenvalues of input Hessian
   -0.000000   -0.000000    0.000000    0.000000    0.000000    0.000000
    0.131037    0.260338    0.284448    0.543435    0.727621    1.098789
    1.348190    1.546788    1.923636
 Highest eigenvalues
    0.543435    0.727621    1.098789    1.348190    1.546788    1.923636


........................................................................
.............................. CYCLE   21 ..............................
........................................................................
   1     -9.6557590 -0.965576E+01  0.532E-02    3.25       0.0  T
   2     -9.6557587  0.298461E-06  0.308E-02    3.25       1.5  T
   3     -9.6557489  0.974413E-05  0.363E-02    3.25       1.2  T
   4     -9.6557594 -0.104870E-04  0.262E-03    3.25      17.0  T
   5     -9.6557594  0.324075E-09  0.165E-03    3.25      27.1  T
   6     -9.6557594 -0.729128E-08  0.650E-04    3.25      68.8  T
   7     -9.6557594 -0.228801E-08  0.139E-04    3.25     321.2  T
     SCC iter.                  ...        0 min,  0.001 sec
     gradient                   ...        0 min,  0.001 sec
 * total energy  :    -9.5378987 Eh     change       -0.9456746E-05 Eh
   gradient norm :     0.0016648 Eh/α   predicted     0.0000000E+00 (-100.00%)
   displ. norm   :     0.0047147 α      lambda       -0.4739783E-05
   maximum displ.:     0.0025074 α      in ANC's #5, #4, #2, ...

........................................................................
.............................. CYCLE   22 ..............................
........................................................................
   1     -9.6560058 -0.965601E+01  0.312E-02    3.24       0.0  T
   2     -9.6560055  0.319705E-06  0.197E-02    3.24       2.3  T
   3     -9.6560050  0.528354E-06  0.187E-02    3.24       2.4  T
   4     -9.6560061 -0.117391E-05  0.753E-03    3.24       5.9  T
   5     -9.6560065 -0.412386E-06  0.186E-03    3.24      24.0  T
   6     -9.6560066 -0.192807E-07  0.705E-04    3.24      63.4  T
   7     -9.6560066 -0.437526E-09  0.923E-05    3.24     484.7  T
     SCC iter.                  ...        0 min,  0.001 sec
     gradient                   ...        0 min,  0.001 sec
 * total energy  :    -9.5379038 Eh     change       -0.5029824E-05 Eh
   gradient norm :     0.0008707 Eh/α   predicted    -0.2370470E-05 ( -52.87%)
   displ. norm   :     0.0047359 α      lambda       -0.2362608E-05
   maximum displ.:     0.0027369 α      in ANC's #4, #3, #5, ...

........................................................................
.............................. CYCLE   23 ..............................
........................................................................
   1     -9.6559755 -0.965598E+01  0.276E-02    3.24       0.0  T
   2     -9.6559750  0.535525E-06  0.180E-02    3.24       2.5  T
   3     -9.6559745  0.551339E-06  0.181E-02    3.24       2.5  T
   4     -9.6559758 -0.133975E-05  0.731E-03    3.24       6.1  T
   5     -9.6559762 -0.365509E-06  0.110E-03    3.24      40.5  T
   6     -9.6559762 -0.295435E-08  0.631E-04    3.24      70.9  T
   7     -9.6559762 -0.316616E-09  0.765E-05    3.24     584.2  T
     SCC iter.                  ...        0 min,  0.001 sec
     gradient                   ...        0 min,  0.001 sec
 * total energy  :    -9.5379056 Eh     change       -0.1887726E-05 Eh
   gradient norm :     0.0002539 Eh/α   predicted    -0.1182471E-05 ( -37.36%)
   displ. norm   :     0.0006705 α      lambda       -0.6505950E-07
   maximum displ.:     0.0004308 α      in ANC's #3, #1, #8, ...

   *** GEOMETRY OPTIMIZATION CONVERGED AFTER 23 ITERATIONS ***

------------------------------------------------------------------------
 total energy gain   :        -0.2802814 Eh     -175.8792 kcal/mol
 total RMSD          :         1.0336287 a0        0.5470 Å
 total power (kW/mol):       -31.9947214 (step)********** (real)
------------------------------------------------------------------------

 ANCopt (total)                0 d,  0 h,  0 min,  0.067 sec
 optimizer setup                ...        0 min,  0.000 sec (  0.091%)
 model hessian                  ...        0 min,  0.000 sec (  0.206%)
 ANC generation                 ...        0 min,  0.000 sec (  0.132%)
 coordinate transformation      ...        0 min,  0.000 sec (  0.071%)
 single point calculation       ...        0 min,  0.065 sec ( 97.041%)
 optimization log               ...        0 min,  0.001 sec (  0.787%)
 hessian update                 ...        0 min,  0.000 sec (  0.067%)
 rational function              ...        0 min,  0.000 sec (  0.712%)

================
 final structure:
================
5
 xtb: 6.2.2 (9d81278992624c895f80dd42a50cac0aa55982e2)
C         0.98925701963388    0.18612744672394   -0.50598158448136
N         0.09325862479349   -0.29112560331688    0.45369852240560
C        -0.24958446296475    0.74672123803803   -0.83884453425546
C        -0.84838621067470   -0.48738290573904   -0.55885802515559
H         0.01545502921208   -0.15434017570605    1.44998562148681

 Bond Distances (Angstroems)
 ---------------------------
C1-N2=1.3970         C1-C3=1.3999         N2-C1=1.3970         N2-C3=1.6927         N2-C4=1.3966         N2-H5=1.0086         
C3-C1=1.3999         C3-N2=1.6927         C3-C4=1.4000         C4-N2=1.3966         C4-C3=1.4000         H5-N2=1.0086         
 C  C  Rav=1.4000 sigma=0.0000  Rmin=1.3999  Rmax=1.4000     2
 N  H  Rav=1.0086 sigma=0.0000  Rmin=1.0086  Rmax=1.0086     1
 N  C  Rav=1.4954 sigma=0.1395  Rmin=1.3966  Rmax=1.6927     3

 selected bond angles (degree)
 --------------------
C3-C1-N2= 74.49                C3-N2-C1= 52.84                C4-N2-C1= 88.99                C4-N2-C3= 52.84                
H5-N2-C1=132.98                H5-N2-C3=130.95                H5-N2-C4=133.09                N2-C3-C1= 52.68                
C4-C3-C1= 88.74                C4-C3-N2= 52.66                C3-C4-N2= 74.50                

 selected dihedral angles (degree)
 ---------------------------------
C4-N2-C1-C3= 41.86            H5-N2-C1-C3=245.30            C4-C3-C1-N2=318.25            C1-C3-N2-C4=236.85            
C1-C3-N2-H5=118.34            C4-C3-N2-C1=123.15            C4-C3-N2-H5=241.49            C3-C4-N2-C1=318.14            
C3-C4-N2-H5=114.66            N2-C4-C3-C1= 41.76            
           -------------------------------------------------
          |                Final Singlepoint                |
           -------------------------------------------------

          ...................................................
          :                      SETUP                      :
          :.................................................:
          :  # basis functions                  17          :
          :  # atomic orbitals                  17          :
          :  # shells                            9          :
          :  # electrons                        18          :
          :  max. iterations                   250          :
          :  Hamiltonian                  GFN2-xTB          :
          :  restarted?                      false          :
          :  GBSA solvation                  false          :
          :  PC potential                    false          :
          :  electronic temp.          300.0000000     K    :
          :  accuracy                    1.0000000          :
          :  -> integral cutoff          0.2500000E+02      :
          :  -> integral neglect         0.1000000E-07      :
          :  -> SCF convergence          0.1000000E-05 Eh   :
          :  -> wf. convergence          0.1000000E-03 e    :
          :  Broyden damping             0.4000000          :
          ...................................................

 iter      E             dE          RMSdq      gap      omega  full diag
   1     -9.6559762 -0.965598E+01  0.147E-05    3.24       0.0  T
   2     -9.6559762  0.888178E-14  0.924E-06    3.24    4842.4  T
   3     -9.6559762  0.287770E-12  0.758E-06    3.24    5897.6  T

   *** convergence criteria satisfied after 3 iterations ***

         #    Occupation            Energy/Eh            Energy/eV
      -------------------------------------------------------------
         1        2.0000           -0.7417502             -20.1840
       ...           ...                  ...                  ...
         3        2.0000           -0.6430978             -17.4996
         4        2.0000           -0.5943557             -16.1732
         5        2.0000           -0.5308986             -14.4465
         6        2.0000           -0.5197132             -14.1421
         7        2.0000           -0.4600303             -12.5181
         8        2.0000           -0.4275889             -11.6353
         9        2.0000           -0.4115434             -11.1987 (HOMO)
        10                         -0.2923364              -7.9549 (LUMO)
        11                         -0.2865568              -7.7976
        12                         -0.2535216              -6.8987
        13                         -0.0489024              -1.3307
        14                          0.0448447               1.2203
       ...                                ...                  ...
        17                          0.5080786              13.8255
      -------------------------------------------------------------
                  HL-Gap            0.1192070 Eh            3.2438 eV
             Fermi-level           -0.3519399 Eh           -9.5768 eV

 SCC (total)                   0 d,  0 h,  0 min,  0.002 sec
 SCC setup                      ...        0 min,  0.000 sec (  1.768%)
 Dispersion                     ...        0 min,  0.000 sec (  0.589%)
 integral evaluation            ...        0 min,  0.001 sec ( 40.088%)
 zeroth order Hamiltonian       ...        0 min,  0.000 sec (  0.499%)
 iterations                     ...        0 min,  0.000 sec ( 12.654%)
 molecular gradient             ...        0 min,  0.001 sec ( 42.305%)
 printout                       ...        0 min,  0.000 sec (  1.798%)

         :::::::::::::::::::::::::::::::::::::::::::::::::::::
         ::                     SUMMARY                     ::
         :::::::::::::::::::::::::::::::::::::::::::::::::::::
         :: total energy              -9.537905642597 Eh    ::
         :: gradient norm              0.000253809437 Eh/a0 ::
         :: HOMO-LUMO gap              3.243787034561 eV    ::
         ::.................................................::
         :: SCC energy                -9.655976163641 Eh    ::
         :: -> isotropic ES           -0.011610028755 Eh    ::
         :: -> anisotropic ES          0.004503428217 Eh    ::
         :: -> anisotropic XC          0.006917069049 Eh    ::
         :: -> dispersion             -0.002054575470 Eh    ::
         :: repulsion energy           0.118070495572 Eh    ::
         :: add. restraining           0.000000000000 Eh    ::
         :::::::::::::::::::::::::::::::::::::::::::::::::::::

           ------------------------------------------------- 
          |                Numerical Hessian                |
           ------------------------------------------------- 
step length          :   0.00500
SCC accuracy         :   0.30000
Hessian scale factor :   1.00000
frozen atoms in %    :   0.00000    0
RMS gradient         :   0.00025
estimated CPU  time      0.00 min
estimated wall time      0.00 min

writing file <hessian>.

 projected vibrational frequencies (cm-1)
eigval :       -0.00    -0.00    -0.00     0.00     0.00     0.00
eigval :      536.61   581.13   730.69   851.85   984.51  1082.12
eigval :     1318.86  1432.33  3407.65
           -------------------------------------------------
          |                Property Printout                |
           -------------------------------------------------

    * Orbital Energies and Occupations

         #    Occupation            Energy/Eh            Energy/eV
      -------------------------------------------------------------
         1        2.0000           -0.7417502             -20.1840
         2        2.0000           -0.6528759             -17.7657
         3        2.0000           -0.6430978             -17.4996
         4        2.0000           -0.5943557             -16.1732
         5        2.0000           -0.5308986             -14.4465
         6        2.0000           -0.5197132             -14.1421
         7        2.0000           -0.4600303             -12.5181
         8        2.0000           -0.4275890             -11.6353
         9        2.0000           -0.4115434             -11.1987 (HOMO)
        10                         -0.2923364              -7.9549 (LUMO)
        11                         -0.2865568              -7.7976
        12                         -0.2535216              -6.8987
        13                         -0.0489024              -1.3307
        14                          0.0448447               1.2203
        15                          0.1995154               5.4291
        16                          0.2388455               6.4993
        17                          0.5080786              13.8255
      -------------------------------------------------------------
                  HL-Gap            0.1192070 Eh            3.2438 eV
             Fermi-level           -0.3519399 Eh           -9.5768 eV

     #   Z        covCN         q      C6AA      α(0)
     1   6 C      2.466    -0.089    30.547     9.022
     2   7 N      3.514     0.029    20.727     6.762
     3   6 C      2.795    -0.020    28.481     8.742
     4   6 C      2.466    -0.089    30.544     9.022
     5   1 H      0.860     0.169     1.282     1.773

 Mol. C6AA /au·bohr⁶  :        486.534416
 Mol. C8AA /au·bohr⁸  :      12855.642053
 Mol. α(0) /au        :         35.321270


Wiberg/Mayer (AO) data.
largest (>0.10) Wiberg bond orders for each atom
          total WBO             WBO to atom ...
     1  C   2.889        C    3 1.278    N    2 1.053    C    4 0.551
     2  N   3.629        C    4 1.054    C    1 1.053    H    5 0.933    C    3 0.589
     3  C   3.167        C    1 1.278    C    4 1.277    N    2 0.589
     4  C   2.889        C    3 1.277    N    2 1.054    C    1 0.551
     5  H   0.972        N    2 0.933

MOs/occ written to file <molden.input>
Molecule has the following symmetry elements: (sigma) 
It seems to be the Cs point group


molecular dipole:
                 x           y           z       tot (Debye)
 q only:       -0.005      -0.042       0.697
   full:       -0.053       0.039       1.340       3.411
molecular quadrupole (traceless):
                xx          xy          yy          xz          yz          zz
 q only:       -1.021      -0.272      -0.359       0.018      -0.242       1.380
  q+dip:       -2.724      -1.153      -0.017      -0.219       0.140       2.741
   full:       -3.202      -1.304      -0.167      -0.368       0.454       3.369

           -------------------------------------------------
          |                Geometry Summary                 |
           -------------------------------------------------

      molecular mass/u    :       51.0468517
   center of mass at/Å    :        0.0003143       0.0218832      -0.2947945
  moments of inertia/u·Å² :        0.2524523E+02   0.2732980E+02   0.4395674E+02
rotational constants/cm⁻¹ :        0.6677551E+00   0.6168225E+00   0.3835051E+00

 * 5 selected distances

     #   Z        #   Z                                     value/Å
     1   6 C      2   7 N                                 1.3969859
     1   6 C      3   6 C                                 1.3999255
     2   7 N      4   6 C                                 1.3965968
     3   6 C      4   6 C                                 1.3999889 (max)
     2   7 N      5   1 H                                 1.0086385 (min)

 * 3 distinct bonds (by element types)

   Z      Z             #   av. dist./Å        max./Å        min./Å
   6 C    6 C           2     1.3999572     1.3999889     1.3999255
   1 H    7 N           1     1.0086385     1.0086385     1.0086385
   6 C    7 N           2     1.3967913     1.3969859     1.3965968

           -------------------------------------------------
          |               Frequency Printout                |
           -------------------------------------------------
 projected vibrational frequencies (cm-1)
eigval :       -0.00    -0.00    -0.00     0.00     0.00     0.00
eigval :      536.61   581.13   730.69   851.85   984.51  1082.12
eigval :     1318.86  1432.33  3407.65
 reduced masses (amu)
   1: 12.04   2: 12.24   3: 11.60   4: 11.45   5: 12.41   6: 12.26   7: 10.64   8:  8.29
   9:  9.70  10: 12.44  11:  2.62  12: 11.34  13: 12.09  14: 12.16  15:  1.88
 IR intensities (amu)
   1:  0.13   2:  0.15   3:  0.22   4:  0.12   5:  0.05   6:  0.15   7:  0.72   8:  0.22
   9:  0.63  10:  0.13  11:  0.21  12:  1.21  13:  0.55  14:  0.15  15:  0.29
 Raman intensities (amu)
   1:  0.00   2:  0.00   3:  0.00   4:  0.00   5:  0.00   6:  0.00   7:  0.00   8:  0.00
   9:  0.00  10:  0.00  11:  0.00  12:  0.00  13:  0.00  14:  0.00  15:  0.00
 output can be read by thermo (or use thermo option).
 writing <g98.out> molden fake output.
 recommended (thermochemical) frequency scaling factor: 1.0
           -------------------------------------------------
          |             Thermodynamic Functions             |
           -------------------------------------------------

cs  symmetry found (for desy threshold:  0.10E+00) used in thermo

          ...................................................
          :                      SETUP                      :
          :.................................................:
          :  # frequencies                           9      :
          :  # imaginary freq.                       0      :
          :  linear?                             false      :
          :  only rotor calc.                    false      :
          :  symmetry                               cs      :
          :  rotational number                       1      :
          :  scaling factor                  1.0000000      :
          :  rotor cutoff                   50.0000000 cm⁻¹ :
          :  imag. cutoff                  -20.0000000 cm⁻¹ :
          :.................................................:

    mode    ω/cm⁻¹     T·S(HO)/kcal·mol⁻¹    T·S(FR)/kcal·mol⁻¹   T·S(vib)
   ------------------------------------------------------------------------
   ------------------------------------------------------------------------

   temp. (K)  partition function   enthalpy   heat capacity  entropy
                                   cal/mol     cal/K/mol   cal/K/mol   J/K/mol
 298.15  VIB   1.23                  387.432      4.506      1.704
         ROT  0.133E+05              888.752      2.981     21.851
         INT  0.163E+05             1276.184      7.487     23.556
         TR   0.353E+27             1481.254      4.968     37.697
         TOT                        2757.4382    12.4550    61.2523   256.2797

   temp. (K)  partition function   enthalpy   heat capacity  entropy
                                   cal/mol     cal/K/mol   cal/K/mol   J/K/mol
 120.00  VIB   1.00                    4.480      0.258      0.043
         ROT  0.340E+04              357.707      2.981     19.139
         INT  0.341E+04              362.187      3.239     19.181
         TR   0.901E+26              596.178      4.968     33.177
         TOT                         958.3653     8.2071    52.3586   219.0683

   temp. (K)  partition function   enthalpy   heat capacity  entropy
                                   cal/mol     cal/K/mol   cal/K/mol   J/K/mol
 100.00  VIB   1.00                    1.140      0.093      0.013
         ROT  0.258E+04              298.089      2.981     18.595
         INT  0.259E+04              299.229      3.074     18.608
         TR   0.685E+26              496.815      4.968     32.272
         TOT                         796.0443     8.0419    50.8797   212.8807

   temp. (K)  partition function   enthalpy   heat capacity  entropy
                                   cal/mol     cal/K/mol   cal/K/mol   J/K/mol
  80.00  VIB   1.00                    0.152      0.019      0.002
         ROT  0.185E+04              238.471      2.981     17.930
         INT  0.185E+04              238.623      3.000     17.932
         TR   0.490E+26              397.452      4.968     31.164
         TOT                         636.0747     7.9680    49.0957   205.4164

   temp. (K)  partition function   enthalpy   heat capacity  entropy
                                   cal/mol     cal/K/mol   cal/K/mol   J/K/mol
  60.00  VIB   1.00                    0.005      0.001     -0.000
         ROT  0.120E+04              178.853      2.981     17.072
         INT  0.120E+04              178.859      2.982     17.072
         TR   0.319E+26              298.089      4.968     29.735
         TOT                         476.9479     7.9502    46.8076   195.8429

   temp. (K)  partition function   enthalpy   heat capacity  entropy
                                   cal/mol     cal/K/mol   cal/K/mol   J/K/mol
  40.00  VIB   1.00                    0.000      0.000     -0.000
         ROT   654.                  119.236      2.981     15.864
         INT   654.                  119.236      2.981     15.864
         TR   0.173E+26              198.726      4.968     27.722
         TOT                         317.9616     7.9490    43.5853   182.3610

   temp. (K)  partition function   enthalpy   heat capacity  entropy
                                   cal/mol     cal/K/mol   cal/K/mol   J/K/mol
  20.00  VIB   1.00                    0.000      0.000     -0.000
         ROT   231.                   59.618      2.981     13.797
         INT   231.                   59.618      2.981     13.797
         TR   0.613E+25               99.363      4.968     24.280
         TOT                         158.9808     7.9490    38.0770   159.3143

   temp. (K)  partition function   enthalpy   heat capacity  entropy
                                   cal/mol     cal/K/mol   cal/K/mol   J/K/mol
  10.00  VIB   1.00                    0.000      0.000     -0.000
         ROT   81.7                   29.809      2.981     11.731
         INT   81.7                   29.809      2.981     11.731
         TR   0.217E+25               49.681      4.968     20.838
         TOT                          79.4904     7.9490    32.5687   136.2676

       T/K    H(0)-H(T)+PV         H(T)/Eh          T*S/Eh         G(T)/Eh
   ------------------------------------------------------------------------
    298.15    0.439426E-02    0.292849E-01    0.291030E-01    0.181994E-03
    120.00    0.152725E-02    0.264179E-01    0.100126E-01    0.164053E-01
    100.00    0.126858E-02    0.261593E-01    0.810820E-02    0.180511E-01
     80.00    0.101365E-02    0.259043E-01    0.625912E-02    0.196452E-01
     60.00    0.760065E-03    0.256508E-01    0.447556E-02    0.211752E-01
     40.00    0.506704E-03    0.253974E-01    0.277831E-02    0.226191E-01
     20.00    0.253352E-03    0.251440E-01    0.121359E-02    0.239305E-01
     10.00    0.126676E-03    0.250174E-01    0.519016E-03    0.244984E-01 (used)
   ------------------------------------------------------------------------

         :::::::::::::::::::::::::::::::::::::::::::::::::::::
         ::                  THERMODYNAMIC                  ::
         :::::::::::::::::::::::::::::::::::::::::::::::::::::
         :: total free energy          -9.513407290501 Eh   ::
         ::.................................................::
         :: total energy               -9.537905642608 Eh   ::
         :: zero point energy           0.024890691894 Eh   ::
         :: G(RRHO) w/o ZPVE           -0.000392339787 Eh   ::
         :: G(RRHO) contrib.            0.024498352107 Eh   ::
         :::::::::::::::::::::::::::::::::::::::::::::::::::::

optimized geometry written to: xtbopt.xyz


           -------------------------------------------------
          | TOTAL ENERGY               -9.537905642608 Eh   |
          | TOTAL ENTHALPY             -9.512888274699 Eh   |
          | TOTAL FREE ENERGY          -9.513407290501 Eh   |
          | GRADIENT NORM               0.000253673450 Eh/α |
          | HOMO-LUMO GAP               3.243787074009 eV   |
           -------------------------------------------------

------------------------------------------------------------------------
 * finished run on 2020/05/12 at 11:44:51.750     
------------------------------------------------------------------------
 total:
 * wall-time:     0 d,  0 h,  0 min,  0.175 sec
 *  cpu-time:     0 d,  0 h,  0 min,  0.175 sec
 * ratio c/w:     0.998 speedup
 SCF:
 * wall-time:     0 d,  0 h,  0 min,  0.004 sec
 *  cpu-time:     0 d,  0 h,  0 min,  0.004 sec
 * ratio c/w:     1.000 speedup
 ANC optimizer:
 * wall-time:     0 d,  0 h,  0 min,  0.070 sec
 *  cpu-time:     0 d,  0 h,  0 min,  0.070 sec
 * ratio c/w:     0.999 speedup
 numerical hessian:
 * wall-time:     0 d,  0 h,  0 min,  0.082 sec
 *  cpu-time:     0 d,  0 h,  0 min,  0.082 sec
 * ratio c/w:     0.998 speedup

