 Entering Gaussian System
 *********************************************
 Gaussian 98:
 frequency output generated by the xtb code
 *********************************************
                         Standard orientation:
 --------------------------------------------------------------------
  Center     Atomic     Atomic              Coordinates (Angstroms)
  Number     Number      Type              X           Y           Z
 --------------------------------------------------------------------
    1          6             0        0.989256    0.186121   -0.505985
    2          7             0        0.093259   -0.291125    0.453699
    3          6             0       -0.249583    0.746721   -0.838845
    4          6             0       -0.848391   -0.487379   -0.558854
    5          1             0        0.015459   -0.154338    1.449986
 --------------------------------------------------------------------
     1 basis functions        1 primitive gaussians
     1 alpha electrons        1 beta electrons

 Harmonic frequencies (cm**-1), IR intensities (KM/Mole),
 Raman scattering activities (A**4/amu), Raman depolarization ratios,
 reduced masses (AMU), force constants (mDyne/A) and normal coordinates:
                      1                      2                      3
                        a                      a                      a 
 Frequencies --   536.6147               581.1325               730.6881
 Red. masses --    10.6401                 8.2878                 9.6970
 Frc consts  --     0.0000                 0.0000                 0.0000
 IR Inten    --     0.7161                 0.2187                 0.6257
 Raman Activ --     0.0000                 0.0000                 0.0000
 Depolar     --     0.0000                 0.0000                 0.0000
 Atom AN      X      Y      Z        X      Y      Z        X      Y      Z
   1   6    -0.22  -0.44  -0.14    -0.14   0.10   0.27    -0.38  -0.11  -0.08
   2   7    -0.15   0.39   0.09     0.07  -0.20   0.04     0.14  -0.41   0.33
   3   6    -0.12   0.32   0.13    -0.02   0.11  -0.62    -0.09   0.25  -0.21
   4   6     0.46  -0.19  -0.12     0.02   0.16   0.28     0.36   0.16  -0.07
   5   1     0.13  -0.36   0.09     0.20  -0.55   0.09    -0.17   0.48  -0.00
                      4                      5                      6
                        a                      a                      a 
 Frequencies --   851.8453               984.5103              1082.1182
 Red. masses --    12.4364                 2.6199                11.3414
 Frc consts  --     0.0000                 0.0000                 0.0000
 IR Inten    --     0.1341                 0.2071                 1.2081
 Raman Activ --     0.0000                 0.0000                 0.0000
 Depolar     --     0.0000                 0.0000                 0.0000
 Atom AN      X      Y      Z        X      Y      Z        X      Y      Z
   1   6    -0.05  -0.27   0.41     0.10  -0.06  -0.11    -0.06   0.22  -0.37
   2   7     0.53   0.20   0.01     0.24   0.09   0.00    -0.01  -0.00   0.60
   3   6    -0.38  -0.14  -0.01    -0.13  -0.04  -0.00     0.12  -0.35   0.04
   4   6    -0.19   0.18  -0.42     0.03   0.11   0.12    -0.07   0.22  -0.37
   5   1     0.13   0.05   0.00    -0.87  -0.32  -0.03     0.09  -0.28   0.20
                      7                      8                      9
                        a                      a                      a 
 Frequencies --  1318.8649              1432.3307              3407.6460
 Red. masses --    12.0873                12.1565                 1.8790
 Frc consts  --     0.0000                 0.0000                 0.0000
 IR Inten    --     0.5459                 0.1524                 0.2896
 Raman Activ --     0.0000                 0.0000                 0.0000
 Depolar     --     0.0000                 0.0000                 0.0000
 Atom AN      X      Y      Z        X      Y      Z        X      Y      Z
   1   6    -0.51   0.08   0.05     0.50  -0.06  -0.10    -0.01  -0.00  -0.00
   2   7     0.33   0.12   0.01     0.02  -0.08   0.35     0.02  -0.03  -0.26
   3   6     0.53   0.19   0.02    -0.18   0.50  -0.19     0.00  -0.01   0.00
   4   6    -0.34  -0.39  -0.08    -0.34  -0.37  -0.12     0.01   0.00  -0.00
   5   1    -0.11  -0.04  -0.00    -0.01   0.03   0.10    -0.07   0.12   0.96
