5
 energy: -11.177884057426 gnorm: 0.000867072443 xtb: 6.2.2 (9d81278992624c895f80dd42a50cac0aa55982e2)
C        -0.23462838472708    0.00663646761327   -0.00504156446098
O         0.94677260816847    0.03586153324629   -0.67905707905126
O         0.91322717447123   -0.08846630914661    0.71900330749499
H        -0.83692333808536   -0.89655232150527   -0.09980736339211
H        -0.78844805982203    0.94252162979232    0.06490269940761
