[Molden Format]
[Title]
[Atoms] AU
C      1     6 -0.44338334706045E+00  0.12541105060463E-01 -0.95271751869636E-02
O      2     8  0.17891407657398E+01  0.67768469957105E-01 -0.12832317833371E+01
O      3     8  0.17257490892017E+01 -0.16717708003290E+00  0.13587192078038E+01
H      4     1 -0.15815557495524E+01 -0.16942381868512E+01 -0.18860856453300E+00
H      5     1 -0.14899507583187E+01  0.17811075815925E+01  0.12264831525000E+00
[GTO]
           1 0
 s           4   1.0000000000000000     
   51.049363095579913      -0.16312063210127389     
   8.7911227406887544      -0.19911024581000730     
  0.70640422258929825       0.31882047753655751     
  0.26922813413411617       0.12706504184240380     
 p           4   1.0000000000000000     
   5.8263656140800002       0.73716451545209605     
   1.5106896018720002       0.68216371614850257     
  0.53256483288000001       0.35783053929253711     
  0.21202323690600003        5.3983030275847881E-002

           2 0
 s           4   1.0000000000000000     
   69.137961906196551      -0.20478756370077797     
   11.906129132707308      -0.24997023136827334     
  0.95670827744340703       0.40025880240639616     
  0.36462520496073686       0.15952206667693555     
 p           4   1.0000000000000000     
   8.2124193257781641        1.1321556799186829     
   2.1293576997098116        1.0476840782254817     
  0.75066448202360914       0.54956508217158984     
  0.29885246543283073        8.2908486592766617E-002

           3 0
 s           4   1.0000000000000000     
   69.137961906196551      -0.20478756370077797     
   11.906129132707308      -0.24997023136827334     
  0.95670827744340703       0.40025880240639616     
  0.36462520496073686       0.15952206667693555     
 p           4   1.0000000000000000     
   8.2124193257781641        1.1321556799186829     
   2.1293576997098116        1.0476840782254817     
  0.75066448202360914       0.54956508217158984     
  0.29885246543283073        8.2908486592766617E-002

           4 0
 s           3   1.0000000000000000     
   3.3702276975336001       0.27359110588908298     
  0.61389118221497996       0.26460540653860526     
  0.16614291148415999        8.2465947534082318E-002

           5 0
 s           3   1.0000000000000000     
   3.3702276975336001       0.27359110588908298     
  0.61389118221497996       0.26460540653860526     
  0.16614291148415999        8.2465947534082318E-002

[MO]
Sym=     1a
Ene=  -0.79814945229765188     
Spin= Alpha
Occup=     2.00000000
           1  0.27658136291047647     
           2  0.20479492600899549     
           3  -5.7921647542732539E-003
           4   4.3988514328284429E-003
           5  0.41080349113937276     
           6 -0.11457919080826444     
           7  -1.3445589991729727E-002
           8  0.18384958249265784     
           9  0.41080393061239373     
          10 -0.10564299510989282     
          11   1.9674078323713831E-002
          12 -0.18857956584667696     
          13   1.6300860090779124E-002
          14   1.6300852332588541E-002
Sym=     2a
Ene=  -0.72652764498798295     
Spin= Alpha
Occup=     2.00000000
           1   1.3822482537241038E-007
           2  -6.0321002518528392E-003
           3  -2.2356222226523191E-002
           4  0.25139456189913439     
           5 -0.62363994498676323     
           6   5.6754680100200072E-002
           7  -1.6688876209359962E-002
           8  0.16963645002775782     
           9  0.62363957965517891     
          10  -6.4832463968853282E-002
          11  -1.3250114117769479E-002
          12  0.16702563589865266     
          13   3.5970442971223379E-007
          14   3.7304021706186650E-007
Sym=     3a
Ene=  -0.68634957422252985     
Spin= Alpha
Occup=     2.00000000
           1  0.43087406559273700     
           2  -8.2170535765264632E-002
           3   2.3239592487413981E-003
           4  -1.7645888079758018E-003
           5 -0.31786337161553058     
           6 -0.37703437666941630     
           7   1.3076466495806155E-002
           8  -3.5040037984055125E-002
           9 -0.31786495056703723     
          10 -0.37832748037285563     
          11   8.2872274656073022E-003
          12   1.8815102238197830E-002
          13  0.16352948136700743     
          14  0.16352953958608293     
Sym=     4a
Ene=  -0.64341669852333805     
Spin= Alpha
Occup=     2.00000000
           1  -5.8319088392398339E-008
           2  -1.0907559973583012E-002
           3 -0.41380825841344010     
           4  -3.7061217524774412E-002
           5  -1.1296349396641999E-008
           6  -1.2740669954345482E-002
           7 -0.48335092553627118     
           8  -4.3289519319169557E-002
           9   3.5644653683976488E-010
          10  -1.2740650331958986E-002
          11 -0.48335135910843285     
          12  -4.3289570226190288E-002
          13  0.16806567728922300     
          14 -0.16806562505182673     
Sym=     5a
Ene=  -0.61577081238906917     
Spin= Alpha
Occup=     2.00000000
           1  -8.5544462758443379E-002
           2  0.14093283929112643     
           3  -3.9858844767433205E-003
           4   3.0262386433234645E-003
           5 -0.37207003782415049     
           6  -1.4782559183814934E-002
           7  -4.9533078703652714E-002
           8  0.55741458671497857     
           9 -0.37206814115601172     
          10   1.1969566847536684E-002
          11   4.9612652673935713E-002
          12 -0.55747444993618767     
          13  -8.8555574902765624E-002
          14  -8.8555664733757936E-002
Sym=     6a
Ene=  -0.58231868285220134     
Spin= Alpha
Occup=     2.00000000
           1  0.21735877195467060     
           2 -0.41626016510393110     
           3   1.1772187918438742E-002
           4  -8.9315702584542855E-003
           5   3.0860156895365844E-002
           6  0.38499766654371126     
           7  -2.7350608838798918E-002
           8  0.19207298693367783     
           9   3.0849983253372331E-002
          10  0.39379534570737945     
          11   5.3243310440582309E-003
          12 -0.17534949362744862     
          13  0.28380213659624415     
          14  0.28380255224661760     
Sym=     7a
Ene=  -0.57300459875167586     
Spin= Alpha
Occup=     2.00000000
           1  -5.6335077902906958E-006
           2  -1.1969850000762346E-002
           3  -4.4396661142238850E-002
           4  0.49923550682595735     
           5  0.24483745766766393     
           6  0.52098584404497095     
           7  -4.9886223162600518E-003
           8  -9.7632965915440476E-002
           9 -0.24483923122668882     
          10 -0.51578002378188637     
          11   2.4333545891048754E-002
          12 -0.11989693676385500     
          13  -5.1757749492326784E-006
          14  -5.0906753066530821E-006
Sym=     8a
Ene=  -0.49341617552107514     
Spin= Alpha
Occup=     2.00000000
           1   7.9414083206108390E-008
           2  -1.1036484183522714E-002
           3 -0.41869363064821208     
           4  -3.7498700155147051E-002
           5  -2.5507101412164611E-008
           6   1.1997689967396344E-002
           7  0.45515503895708204     
           8   4.0764267688030577E-002
           9  -2.5967045090144510E-008
          10   1.1997398589991454E-002
          11  0.45514962297661637     
          12   4.0763781121801346E-002
          13  0.40451660471912160     
          14 -0.40451624051169321     
Sym=     9a
Ene=  -0.46316757735243919     
Spin= Alpha
Occup=     2.00000000
           1  -1.1033176423342071E-008
           2  -4.0712723307097873E-008
           3  -1.9958746288379673E-006
           4  -1.8309222443695645E-007
           5   1.0070361641613183E-008
           6  -1.9662615026636146E-002
           7 -0.74595266994348042     
           8  -6.6808477532697808E-002
           9   3.8206273719287452E-009
          10   1.9662694890361040E-002
          11  0.74595585304141998     
          12   6.6808758161964923E-002
          13   1.5013023965931187E-006
          14  -1.4977363168108798E-006
Sym=    10a
Ene=  -0.20394981864641806     
Spin= Alpha
Occup=     0.00000000
           1   3.1131301943229605E-006
           2   1.1747589742709152E-002
           3   4.3546284717787188E-002
           4 -0.48967442629730368     
           5  0.18019910918339041     
           6  0.35592465962562070     
           7  -7.2592302450446303E-002
           8  0.70577870528000763     
           9 -0.18019898914130283     
          10 -0.38940885428066951     
          11  -5.1512242626387497E-002
          12  0.68976991777319130     
          13  -1.8416440104973314E-006
          14  -1.8954065972220730E-006
Sym=    11a
Ene=   -6.6042850584920668E-002
Spin= Alpha
Occup=     0.00000000
           1  -1.3857997357596933E-005
           2  -1.9111766499895797E-002
           3  -7.0853806822469959E-002
           4  0.79674344625690963     
           5  0.46098944539131725     
           6 -0.47386574571076229     
           7  -2.9161189860452821E-002
           8  0.46506582174619143     
           9 -0.46098860174721257     
          10  0.45106673501853978     
          11  -5.5320698787740638E-002
          12  0.48493110051163946     
          13   8.6400608598088293E-006
          14   8.8791242480295294E-006
Sym=    12a
Ene=    7.0637384598191549E-002
Spin= Alpha
Occup=     0.00000000
           1  -1.1319665445440834     
           2  0.32604832011260304     
           3  -9.2197842212104995E-003
           4   6.9882483646712670E-003
           5   6.9657237868108707E-002
           6 -0.19683730566663171     
           7   2.8895201693946376E-004
           8   5.4705383610905899E-002
           9   6.9668558611642187E-002
          10 -0.19402379060530112     
          11   1.0766348425255992E-002
          12  -6.3108725602659510E-002
          13  0.74199310794857543     
          14  0.74199292780075243     
Sym=    13a
Ene=   0.20313265367805097     
Spin= Alpha
Occup=     0.00000000
           1   2.6375110009819524E-006
           2   2.9181603733540864E-002
           3   1.1068722434600617     
           4   9.9133297177636664E-002
           5  -2.1072929448408220E-006
           6  -4.4782993340976712E-003
           7 -0.16999300002065754     
           8  -1.5225951399594350E-002
           9  -2.2721987500226221E-006
          10  -4.4781489326093157E-003
          11 -0.16999258193307798     
          12  -1.5223367166183098E-002
          13  0.84275510412579868     
          14 -0.84275250738654717     
Sym=    14a
Ene=   0.25404583836954481     
Spin= Alpha
Occup=     0.00000000
           1  0.43485295959979936     
           2   1.1342522865008433     
           3  -3.2085359835560830E-002
           4   2.4359927842802907E-002
           5 -0.41841478679124555     
           6  0.49150574121868879     
           7   7.7160284490029093E-003
           8 -0.23080039266644525     
           9 -0.41841468752135175     
          10  0.47992891652247599     
          11  -3.5189132344233293E-002
          12  0.25166601885850032     
          13  0.27146286830740646     
          14  0.27147211870668403     
