$hessian                                                                        
        0.7175868894  -0.0058628512   0.0105368651  -0.2682859858  -0.0057013006
        0.1314151841  -0.2556884789   0.0181499715  -0.1383618086  -0.1019711569
       -0.1044683376  -0.0109247093  -0.0916412678   0.0978825180   0.0073344687
       -0.0058628512   0.5295110000   0.0241330475  -0.0050270400  -0.0377086879
        0.0010613967   0.0174840570  -0.0390175017   0.0091623228  -0.0979363172
       -0.2208435178  -0.0189582368   0.0913421515  -0.2319412927  -0.0153985302
        0.0105368651   0.0241330475   0.2587813670   0.1240923983   0.0012458934
       -0.0881346077  -0.1310335220   0.0089799040  -0.0994271876  -0.0103375123
       -0.0191101971  -0.0359854035   0.0067417709  -0.0152486478  -0.0352341683
       -0.2682859858  -0.0050270400   0.1240923983   0.3239542783   0.0067988073
       -0.1574497505  -0.0107445296   0.0009145904  -0.0116864368  -0.0230663991
       -0.0061280177   0.0227095779  -0.0218573637   0.0034416600   0.0223342110
       -0.0057013006  -0.0377086879   0.0012458934   0.0067988073   0.0494457969
       -0.0319919586  -0.0026519641  -0.0181716408   0.0308009359  -0.0173981086
        0.0018817344   0.0230706467   0.0189525661   0.0045527973  -0.0231255174
        0.1314151841   0.0010613967  -0.0881346077  -0.1574497505  -0.0319919586
        0.4501946740   0.0282340490   0.0297462608  -0.3558640096  -0.0027654875
       -0.0009833293  -0.0011656282   0.0005660048   0.0021676305  -0.0050304285
       -0.2556884789   0.0174840570  -0.1310335220  -0.0107445296  -0.0026519641
        0.0282340490   0.3092285004  -0.0202985927   0.1493588061  -0.0219735990
       -0.0020061744  -0.0243365117  -0.0208218929   0.0074726743  -0.0222228214
        0.0181499715  -0.0390175017   0.0089799040   0.0009145904  -0.0181716408
        0.0297462608  -0.0202985927   0.0509836938  -0.0412553949  -0.0164368788
        0.0057038130  -0.0225641291   0.0176709097   0.0005016358   0.0250933592
       -0.1383618086   0.0091623228  -0.0994271876  -0.0116864368   0.0308009359
       -0.3558640096   0.1493588061  -0.0412553949   0.4633847240  -0.0011506520
        0.0021044823  -0.0060664319   0.0018400913  -0.0008123461  -0.0020270949
       -0.1019711569  -0.0979363172  -0.0103375123  -0.0230663991  -0.0173981086
       -0.0027654875  -0.0219735990  -0.0164368788  -0.0011506520   0.1399414552
        0.1230038597   0.0133687713   0.0070696999   0.0087674450   0.0008848804
       -0.1044683376  -0.2208435178  -0.0191101971  -0.0061280177   0.0018817344
       -0.0009833293  -0.0020061744   0.0057038130   0.0021044823   0.1230038597
        0.2368678058   0.0205775524  -0.0104013299  -0.0236098353  -0.0025885082
       -0.0109247093  -0.0189582368  -0.0359854035   0.0227095779   0.0230706467
       -0.0011656282  -0.0243365117  -0.0225641291  -0.0060664319   0.0133687713
        0.0205775524   0.0407681299  -0.0008171283  -0.0021258332   0.0024493338
       -0.0916412678   0.0913421515   0.0067417709  -0.0218573637   0.0189525661
        0.0005660048  -0.0208218929   0.0176709097   0.0018400913   0.0070696999
       -0.0104013299  -0.0008171283   0.1272508245  -0.1175642973  -0.0083307388
        0.0978825180  -0.2319412927  -0.0152486478   0.0034416600   0.0045527973
        0.0021676305   0.0074726743   0.0005016358  -0.0008123461   0.0087674450
       -0.0236098353  -0.0021258332  -0.1175642973   0.2504966949   0.0160191966
        0.0073344687  -0.0153985302  -0.0352341683   0.0223342110  -0.0231255174
       -0.0050304285  -0.0222228214   0.0250933592  -0.0020270949   0.0008848804
       -0.0025885082   0.0024493338  -0.0083307388   0.0160191966   0.0398423579
