5
 energy: -11.172212369915 gnorm: 0.073540283490 xtb: 6.2.2 (9d81278992624c895f80dd42a50cac0aa55982e2)
C        -0.27923000000000    0.00790700000000   -0.00608000000000
O         0.93551800000000    0.03346900000000   -0.64913200000000
O         0.90332300000000   -0.08548100000000    0.68861800000000
H        -0.80576500000000   -0.96356100000000   -0.10498300000000
H        -0.75384600000000    1.00766700000000    0.07157700000000
5
 energy: -11.176746886100 gnorm: 0.030434259499 xtb: 6.2.2 (9d81278992624c895f80dd42a50cac0aa55982e2)
C        -0.25980588989635    0.00734865182154   -0.00556863297277
O         0.94025390487519    0.03491628714318   -0.66655607790187
O         0.90733451440258   -0.08716728042133    0.70624845351346
H        -0.81884067255274   -0.92448577426531   -0.10187331315215
H        -0.76894185682867    0.96938911572192    0.06774957051332
5
 energy: -11.177837531443 gnorm: 0.008409951102 xtb: 6.2.2 (9d81278992624c895f80dd42a50cac0aa55982e2)
C        -0.24038349865984    0.00680041547260   -0.00517797475539
O         0.94617154239417    0.03576548115028   -0.67772156268129
O         0.91267232260818   -0.08832800378826    0.71764777163212
H        -0.83351406603084   -0.89859983570727   -0.09990409940755
H        -0.78494630031167    0.94436294287265    0.06515586521211
5
 energy: -11.177880171773 gnorm: 0.003058769254 xtb: 6.2.2 (9d81278992624c895f80dd42a50cac0aa55982e2)
C        -0.23567861149241    0.00666450752437   -0.00505502169315
O         0.94700808084012    0.03586944360513   -0.67913968945115
O         0.91346676291820   -0.08847831454037    0.71910470332857
H        -0.83662340618264   -0.89628911004194   -0.09978687662412
H        -0.78817282608327    0.94223447345281    0.06487688443985
5
 energy: -11.177884058923 gnorm: 0.000865964084 xtb: 6.2.2 (9d81278992624c895f80dd42a50cac0aa55982e2)
C        -0.23462840187251    0.00663524790244   -0.00504237188795
O         0.94677479073554    0.03586767570795   -0.67905371158805
O         0.91322512786665   -0.08846278240203    0.71900634086084
H        -0.83691829533839   -0.89655652941016   -0.09981184957517
H        -0.78845322139130    0.94251738820180    0.06490159219033
