 Entering Gaussian System, Link 0=g16
 Initial command:
 /applis/site/cecic/gaussian16/B.01/nehalem/g16/l1.exe "/bettik/tinaccil/g16/12559875_C3O_2X_t1/Gau-7819.inp" -scrdir="/bettik/tinaccil/g16/12559875_C3O_2X_t1/"
 Entering Link 1 = /applis/site/cecic/gaussian16/B.01/nehalem/g16/l1.exe PID=      7822.
  
 Copyright (c) 1988-2017, Gaussian, Inc.  All Rights Reserved.
  
 This is part of the Gaussian(R) 16 program.  It is based on
 the Gaussian(R) 09 system (copyright 2009, Gaussian, Inc.),
 the Gaussian(R) 03 system (copyright 2003, Gaussian, Inc.),
 the Gaussian(R) 98 system (copyright 1998, Gaussian, Inc.),
 the Gaussian(R) 94 system (copyright 1995, Gaussian, Inc.),
 the Gaussian 92(TM) system (copyright 1992, Gaussian, Inc.),
 the Gaussian 90(TM) system (copyright 1990, Gaussian, Inc.),
 the Gaussian 88(TM) system (copyright 1988, Gaussian, Inc.),
 the Gaussian 86(TM) system (copyright 1986, Carnegie Mellon
 University), and the Gaussian 82(TM) system (copyright 1983,
 Carnegie Mellon University). Gaussian is a federally registered
 trademark of Gaussian, Inc.
  
 This software contains proprietary and confidential information,
 including trade secrets, belonging to Gaussian, Inc.
  
 This software is provided under written license and may be
 used, copied, transmitted, or stored only in accord with that
 written license.
  
 The following legend is applicable only to US Government
 contracts under FAR:
  
                    RESTRICTED RIGHTS LEGEND
  
 Use, reproduction and disclosure by the US Government is
 subject to restrictions as set forth in subparagraphs (a)
 and (c) of the Commercial Computer Software - Restricted
 Rights clause in FAR 52.227-19.
  
 Gaussian, Inc.
 340 Quinnipiac St., Bldg. 40, Wallingford CT 06492
  
  
 ---------------------------------------------------------------
 Warning -- This program may not be used in any manner that
 competes with the business of Gaussian, Inc. or will provide
 assistance to any competitor of Gaussian, Inc.  The licensee
 of this program is prohibited from giving any competitor of
 Gaussian, Inc. access to this program.  By using this program,
 the user acknowledges that Gaussian, Inc. is engaged in the
 business of creating and licensing software in the field of
 computational chemistry and represents and warrants to the
 licensee that it is not a competitor of Gaussian, Inc. and that
 it will not use this program in any manner prohibited above.
 ---------------------------------------------------------------
  

 Cite this work as:
 Gaussian 16, Revision B.01,
 M. J. Frisch, G. W. Trucks, H. B. Schlegel, G. E. Scuseria, 
 M. A. Robb, J. R. Cheeseman, G. Scalmani, V. Barone, 
 G. A. Petersson, H. Nakatsuji, X. Li, M. Caricato, A. V. Marenich, 
 J. Bloino, B. G. Janesko, R. Gomperts, B. Mennucci, H. P. Hratchian, 
 J. V. Ortiz, A. F. Izmaylov, J. L. Sonnenberg, D. Williams-Young, 
 F. Ding, F. Lipparini, F. Egidi, J. Goings, B. Peng, A. Petrone, 
 T. Henderson, D. Ranasinghe, V. G. Zakrzewski, J. Gao, N. Rega, 
 G. Zheng, W. Liang, M. Hada, M. Ehara, K. Toyota, R. Fukuda, 
 J. Hasegawa, M. Ishida, T. Nakajima, Y. Honda, O. Kitao, H. Nakai, 
 T. Vreven, K. Throssell, J. A. Montgomery, Jr., J. E. Peralta, 
 F. Ogliaro, M. J. Bearpark, J. J. Heyd, E. N. Brothers, K. N. Kudin, 
 V. N. Staroverov, T. A. Keith, R. Kobayashi, J. Normand, 
 K. Raghavachari, A. P. Rendell, J. C. Burant, S. S. Iyengar, 
 J. Tomasi, M. Cossi, J. M. Millam, M. Klene, C. Adamo, R. Cammi, 
 J. W. Ochterski, R. L. Martin, K. Morokuma, O. Farkas, 
 J. B. Foresman, and D. J. Fox, Gaussian, Inc., Wallingford CT, 2016.
 
 ******************************************
 Gaussian 16:  ES64L-G16RevB.01 20-Dec-2017
                 2-Oct-2020 
 ******************************************
 %nosave
 %nproc=8
 Will use up to    8 processors via shared memory.
 %mem=2gb
 %chk=input
 --------------------------------------------------------
 #P M062X/cc-pvtz nosymm opt(noeigentest) optcyc=120 freq
 --------------------------------------------------------
 1/6=120,11=1,18=20,19=15,26=3,38=1/1,3;
 2/9=110,12=2,15=1,17=6,18=5,40=1/2;
 3/5=16,6=1,11=2,25=1,30=1,71=1,74=-55/1,2,3;
 4//1;
 5/5=2,38=5/2;
 6/7=2,8=2,9=2,10=2,28=1/1;
 7/30=1/1,2,3,16;
 1/6=120,11=1,18=20,19=15,26=3/3(2);
 2/9=110,15=1/2;
 99//99;
 2/9=110,15=1/2;
 3/5=16,6=1,11=2,25=1,30=1,71=1,74=-55/1,2,3;
 4/5=5,16=3,69=1/1;
 5/5=2,38=5/2;
 7/30=1/1,2,3,16;
 1/6=120,11=1,18=20,19=15,26=3/3(-5);
 2/9=110,15=1/2;
 6/7=2,8=2,9=2,10=2,19=2,28=1/1;
 99/9=1/99;
 Leave Link    1 at Fri Oct  2 16:07:56 2020, MaxMem=   268435456 cpu:               1.2 elap:               0.2
 (Enter /applis/site/cecic/gaussian16/B.01/nehalem/g16/l101.exe)
 -----
 Title
 -----
 Symbolic Z-matrix:
 Charge =  0 Multiplicity = 1
 C
 C                    1    B1
 C                    2    B2       1    A2
 O                    3    B3       2    A3       1    D3       0
       Variables:
  B1                    1.28115                  
  B2                    1.28113                  
  A2                  180.                       
  B3                    1.19623                  
  A3                  180.                       
  D3                  360.                       
 
 ITRead=  0  0  0  0
 MicOpt= -1 -1 -1 -1
 NAtoms=      4 NQM=        4 NQMF=       0 NMMI=      0 NMMIF=      0
                NMic=       0 NMicF=      0.
                    Isotopes and Nuclear Properties:
 (Nuclear quadrupole moments (NQMom) in fm**2, nuclear magnetic moments (NMagM)
  in nuclear magnetons)

  Atom         1           2           3           4
 IAtWgt=          12          12          12          16
 AtmWgt=  12.0000000  12.0000000  12.0000000  15.9949146
 NucSpn=           0           0           0           0
 AtZEff=  -0.0000000  -0.0000000  -0.0000000  -0.0000000
 NQMom=    0.0000000   0.0000000   0.0000000   0.0000000
 NMagM=    0.0000000   0.0000000   0.0000000   0.0000000
 AtZNuc=   6.0000000   6.0000000   6.0000000   8.0000000
 Leave Link  101 at Fri Oct  2 16:07:56 2020, MaxMem=   268435456 cpu:               2.0 elap:               0.4
 (Enter /applis/site/cecic/gaussian16/B.01/nehalem/g16/l103.exe)

 GradGradGradGradGradGradGradGradGradGradGradGradGradGradGradGradGradGrad
 Berny optimization.
 Initialization pass.
                           ----------------------------
                           !    Initial Parameters    !
                           ! (Angstroms and Degrees)  !
 --------------------------                            --------------------------
 ! Name  Definition              Value          Derivative Info.                !
 --------------------------------------------------------------------------------
 ! R1    R(1,2)                  1.2812         estimate D2E/DX2                !
 ! R2    R(2,3)                  1.2811         estimate D2E/DX2                !
 ! R3    R(3,4)                  1.1962         estimate D2E/DX2                !
 ! A1    L(1,2,3,-1,-1)        180.0            estimate D2E/DX2                !
 ! A2    L(2,3,4,-1,-1)        180.0            estimate D2E/DX2                !
 ! A3    L(1,2,3,-2,-2)        180.0            estimate D2E/DX2                !
 ! A4    L(2,3,4,-2,-2)        180.0            estimate D2E/DX2                !
 --------------------------------------------------------------------------------
 Trust Radius=3.00D-01 FncErr=1.00D-07 GrdErr=1.00D-06 EigMax=2.50D+02 EigMin=1.00D-04
 Number of steps in this run=    100 maximum allowed number of steps=    100.
 GradGradGradGradGradGradGradGradGradGradGradGradGradGradGradGradGradGrad

 Leave Link  103 at Fri Oct  2 16:07:57 2020, MaxMem=   268435456 cpu:               0.3 elap:               0.1
 (Enter /applis/site/cecic/gaussian16/B.01/nehalem/g16/l202.exe)
                          Input orientation:                          
 ---------------------------------------------------------------------
 Center     Atomic      Atomic             Coordinates (Angstroms)
 Number     Number       Type             X           Y           Z
 ---------------------------------------------------------------------
      1          6           0        0.000000    0.000000    0.000000
      2          6           0        0.000000    0.000000    1.281150
      3          6           0        0.000000    0.000000    2.562280
      4          8           0        0.000000    0.000000    3.758510
 ---------------------------------------------------------------------
                    Distance matrix (angstroms):
                    1          2          3          4
     1  C    0.000000
     2  C    1.281150   0.000000
     3  C    2.562280   1.281130   0.000000
     4  O    3.758510   2.477360   1.196230   0.000000
 Symmetry turned off by external request.
 Stoichiometry    C3O
 Framework group  C*V[C*(CCCO)]
 Deg. of freedom     3
 Full point group                 C*V     NOp   4
 Rotational constants (GHZ):           0.0000000           4.7073473           4.7073473
 Leave Link  202 at Fri Oct  2 16:07:57 2020, MaxMem=   268435456 cpu:               0.3 elap:               0.1
 (Enter /applis/site/cecic/gaussian16/B.01/nehalem/g16/l301.exe)
 Standard basis: CC-pVTZ (5D, 7F)
 Ernie: Thresh=  0.10000D-02 Tol=  0.10000D-05 Strict=F.
 Ernie:  12 primitive shells out of 104 were deleted.
   120 basis functions,   208 primitive gaussians,   140 cartesian basis functions
    13 alpha electrons       13 beta electrons
       nuclear repulsion energy        75.4196478651 Hartrees.
 IExCor= 4336 DFT=T Ex+Corr=M062X ExCW=0 ScaHFX=  0.540000
 ScaDFX=  1.000000  1.000000  1.000000  1.000000 ScalE2=  1.000000  1.000000
 IRadAn=      5 IRanWt=     -1 IRanGd=            0 ICorTp=0 IEmpDi=  4
 NAtoms=    4 NActive=    4 NUniq=    4 SFac= 1.00D+00 NAtFMM=   60 NAOKFM=F Big=F
 Integral buffers will be    131072 words long.
 Raffenetti 2 integral format.
 Two-electron integral symmetry is turned off.
 Leave Link  301 at Fri Oct  2 16:07:57 2020, MaxMem=   268435456 cpu:               0.7 elap:               0.2
 (Enter /applis/site/cecic/gaussian16/B.01/nehalem/g16/l302.exe)
 NPDir=0 NMtPBC=     1 NCelOv=     1 NCel=       1 NClECP=     1 NCelD=      1
         NCelK=      1 NCelE2=     1 NClLst=     1 CellRange=     0.0.
 One-electron integrals computed using PRISM.
 NBasis=   120 RedAO= T EigKep=  1.24D-04  NBF=   120
 NBsUse=   120 1.00D-06 EigRej= -1.00D+00 NBFU=   120
 Precomputing XC quadrature grid using
 IXCGrd= 4 IRadAn=           5 IRanWt=          -1 IRanGd=           0 AccXCQ= 0.00D+00.
 Generated NRdTot=       0 NPtTot=           0 NUsed=           0 NTot=          32
 NSgBfM=   140   140   140   140   140 MxSgAt=     4 MxSgA2=     4.
 Leave Link  302 at Fri Oct  2 16:07:57 2020, MaxMem=   268435456 cpu:               1.4 elap:               0.3
 (Enter /applis/site/cecic/gaussian16/B.01/nehalem/g16/l303.exe)
 DipDrv:  MaxL=1.
 Leave Link  303 at Fri Oct  2 16:07:57 2020, MaxMem=   268435456 cpu:               0.7 elap:               0.2
 (Enter /applis/site/cecic/gaussian16/B.01/nehalem/g16/l401.exe)
 ExpMin= 1.21D-01 ExpMax= 1.53D+04 ExpMxC= 5.22D+02 IAcc=3 IRadAn=         5 AccDes= 0.00D+00
 Harris functional with IExCor= 1009 and IRadAn=       5 diagonalized for initial guess.
 HarFok:  IExCor= 1009 AccDes= 0.00D+00 IRadAn=         5 IDoV= 1 UseB2=F ITyADJ=14
 ICtDFT=  3500011 ScaDFX=  1.000000  1.000000  1.000000  1.000000
 FoFCou: FMM=F IPFlag=           0 FMFlag=      100000 FMFlg1=           0
         NFxFlg=           0 DoJE=T BraDBF=F KetDBF=T FulRan=T
         wScrn=  0.000000 ICntrl=       500 IOpCl=  0 I1Cent=   200000004 NGrid=           0
         NMat0=    1 NMatS0=      1 NMatT0=    0 NMatD0=    1 NMtDS0=    0 NMtDT0=    0
 Symmetry not used in FoFCou.
 Harris En= -189.286518886782    
 JPrj=0 DoOrth=F DoCkMO=F.
 Leave Link  401 at Fri Oct  2 16:07:58 2020, MaxMem=   268435456 cpu:               5.1 elap:               0.8
 (Enter /applis/site/cecic/gaussian16/B.01/nehalem/g16/l502.exe)
 Keep R1 ints in memory in canonical form, NReq=34106874.
 FoFCou: FMM=F IPFlag=           0 FMFlag=           0 FMFlg1=           0
         NFxFlg=           0 DoJE=F BraDBF=F KetDBF=F FulRan=T
         wScrn=  0.000000 ICntrl=       600 IOpCl=  0 I1Cent=           0 NGrid=           0
         NMat0=    1 NMatS0=   7260 NMatT0=    0 NMatD0=    1 NMtDS0=    0 NMtDT0=    0
 Symmetry not used in FoFCou.
 Two-electron integral symmetry not used.
 Closed shell SCF:
 Using DIIS extrapolation, IDIIS=  1040.
 NGot=   268435456 LenX=   242036732 LenY=   242016691
 Requested convergence on RMS density matrix=1.00D-08 within 128 cycles.
 Requested convergence on MAX density matrix=1.00D-06.
 Requested convergence on             energy=1.00D-06.
 No special actions if energy rises.
 Integral accuracy reduced to 1.0D-05 until final iterations.

 Cycle   1  Pass 0  IDiag  1:
 E= -189.300292556864    
 DIIS: error= 2.87D-02 at cycle   1 NSaved=   1.
 NSaved= 1 IEnMin= 1 EnMin= -189.300292556864     IErMin= 1 ErrMin= 2.87D-02
 ErrMax= 2.87D-02  0.00D+00 EMaxC= 1.00D-01 BMatC= 1.07D-01 BMatP= 1.07D-01
 IDIUse=3 WtCom= 7.13D-01 WtEn= 2.87D-01
 Coeff-Com:  0.100D+01
 Coeff-En:   0.100D+01
 Coeff:      0.100D+01
 Gap=     0.248 Goal=   None    Shift=    0.000
 GapD=    0.248 DampG=1.000 DampE=0.500 DampFc=0.5000 IDamp=-1.
 Damping current iteration by 5.00D-01
 RMSDP=4.47D-03 MaxDP=1.42D-01              OVMax= 2.12D-01

 Cycle   2  Pass 0  IDiag  1:
 E= -189.331017957528     Delta-E=       -0.030725400664 Rises=F Damp=T
 DIIS: error= 8.58D-03 at cycle   2 NSaved=   2.
 NSaved= 2 IEnMin= 2 EnMin= -189.331017957528     IErMin= 2 ErrMin= 8.58D-03
 ErrMax= 8.58D-03  0.00D+00 EMaxC= 1.00D-01 BMatC= 1.46D-02 BMatP= 1.07D-01
 IDIUse=3 WtCom= 9.14D-01 WtEn= 8.58D-02
 Coeff-Com:  0.216D-02 0.998D+00
 Coeff-En:   0.181D+00 0.819D+00
 Coeff:      0.175D-01 0.983D+00
 Gap=     0.334 Goal=   None    Shift=    0.000
 RMSDP=2.08D-03 MaxDP=5.52D-02 DE=-3.07D-02 OVMax= 1.75D-01

 Cycle   3  Pass 0  IDiag  1:
 E= -189.363114156199     Delta-E=       -0.032096198671 Rises=F Damp=F
 DIIS: error= 1.39D-02 at cycle   3 NSaved=   3.
 NSaved= 3 IEnMin= 3 EnMin= -189.363114156199     IErMin= 2 ErrMin= 8.58D-03
 ErrMax= 1.39D-02  0.00D+00 EMaxC= 1.00D-01 BMatC= 1.70D-02 BMatP= 1.46D-02
 IDIUse=2 WtCom= 0.00D+00 WtEn= 1.00D+00
 Coeff-En:   0.000D+00 0.000D+00 0.100D+01
 Coeff:      0.000D+00 0.000D+00 0.100D+01
 Gap=     0.309 Goal=   None    Shift=    0.000
 RMSDP=2.95D-03 MaxDP=6.57D-02 DE=-3.21D-02 OVMax= 1.75D-01

 Cycle   4  Pass 0  IDiag  1:
 E= -189.310852974642     Delta-E=        0.052261181557 Rises=F Damp=F
 DIIS: error= 2.66D-02 at cycle   4 NSaved=   4.
 NSaved= 4 IEnMin= 3 EnMin= -189.363114156199     IErMin= 2 ErrMin= 8.58D-03
 ErrMax= 2.66D-02  0.00D+00 EMaxC= 1.00D-01 BMatC= 6.18D-02 BMatP= 1.46D-02
 IDIUse=2 WtCom= 0.00D+00 WtEn= 1.00D+00
 Coeff-En:   0.000D+00 0.000D+00 0.744D+00 0.256D+00
 Coeff:      0.000D+00 0.000D+00 0.744D+00 0.256D+00
 Gap=     0.289 Goal=   None    Shift=    0.000
 RMSDP=1.80D-03 MaxDP=5.49D-02 DE= 5.23D-02 OVMax= 8.90D-02

 Cycle   5  Pass 0  IDiag  1:
 E= -189.377439826819     Delta-E=       -0.066586852177 Rises=F Damp=F
 DIIS: error= 7.17D-03 at cycle   5 NSaved=   5.
 NSaved= 5 IEnMin= 5 EnMin= -189.377439826819     IErMin= 5 ErrMin= 7.17D-03
 ErrMax= 7.17D-03  0.00D+00 EMaxC= 1.00D-01 BMatC= 3.81D-03 BMatP= 1.46D-02
 IDIUse=3 WtCom= 9.28D-01 WtEn= 7.17D-02
 Coeff-Com: -0.162D-02 0.125D-01 0.344D+00 0.228D-01 0.623D+00
 Coeff-En:   0.000D+00 0.000D+00 0.232D+00 0.000D+00 0.768D+00
 Coeff:     -0.151D-02 0.116D-01 0.336D+00 0.212D-01 0.633D+00
 Gap=     0.305 Goal=   None    Shift=    0.000
 RMSDP=5.71D-04 MaxDP=1.42D-02 DE=-6.66D-02 OVMax= 3.00D-02

 Cycle   6  Pass 0  IDiag  1:
 E= -189.381696036447     Delta-E=       -0.004256209628 Rises=F Damp=F
 DIIS: error= 8.46D-04 at cycle   6 NSaved=   6.
 NSaved= 6 IEnMin= 6 EnMin= -189.381696036447     IErMin= 6 ErrMin= 8.46D-04
 ErrMax= 8.46D-04  0.00D+00 EMaxC= 1.00D-01 BMatC= 7.55D-05 BMatP= 3.81D-03
 IDIUse=3 WtCom= 9.92D-01 WtEn= 8.46D-03
 Coeff-Com: -0.653D-02 0.122D-01 0.467D-01-0.639D-01 0.376D+00 0.636D+00
 Coeff-En:   0.000D+00 0.000D+00 0.000D+00 0.000D+00 0.000D+00 0.100D+01
 Coeff:     -0.647D-02 0.121D-01 0.463D-01-0.633D-01 0.373D+00 0.639D+00
 Gap=     0.304 Goal=   None    Shift=    0.000
 RMSDP=3.49D-05 MaxDP=6.05D-04 DE=-4.26D-03 OVMax= 2.94D-03

 Cycle   7  Pass 0  IDiag  1:
 E= -189.381763380525     Delta-E=       -0.000067344078 Rises=F Damp=F
 DIIS: error= 7.09D-05 at cycle   7 NSaved=   7.
 NSaved= 7 IEnMin= 7 EnMin= -189.381763380525     IErMin= 7 ErrMin= 7.09D-05
 ErrMax= 7.09D-05  0.00D+00 EMaxC= 1.00D-01 BMatC= 3.65D-07 BMatP= 7.55D-05
 IDIUse=1 WtCom= 1.00D+00 WtEn= 0.00D+00
 Coeff-Com: -0.185D-02 0.406D-02-0.892D-02-0.110D-01 0.202D-01 0.758D-01
 Coeff-Com:  0.922D+00
 Coeff:     -0.185D-02 0.406D-02-0.892D-02-0.110D-01 0.202D-01 0.758D-01
 Coeff:      0.922D+00
 Gap=     0.304 Goal=   None    Shift=    0.000
 RMSDP=2.16D-05 MaxDP=6.82D-04 DE=-6.73D-05 OVMax= 2.21D-04

 Cycle   8  Pass 0  IDiag  1:
 E= -189.381763734810     Delta-E=       -0.000000354285 Rises=F Damp=F
 DIIS: error= 2.16D-05 at cycle   8 NSaved=   8.
 NSaved= 8 IEnMin= 8 EnMin= -189.381763734810     IErMin= 8 ErrMin= 2.16D-05
 ErrMax= 2.16D-05  0.00D+00 EMaxC= 1.00D-01 BMatC= 3.65D-08 BMatP= 3.65D-07
 IDIUse=1 WtCom= 1.00D+00 WtEn= 0.00D+00
 Coeff-Com: -0.227D-03 0.375D-03-0.435D-02 0.222D-03-0.102D-01 0.818D-02
 Coeff-Com:  0.178D+00 0.828D+00
 Coeff:     -0.227D-03 0.375D-03-0.435D-02 0.222D-03-0.102D-01 0.818D-02
 Coeff:      0.178D+00 0.828D+00
 Gap=     0.304 Goal=   None    Shift=    0.000
 RMSDP=3.14D-06 MaxDP=1.09D-04 DE=-3.54D-07 OVMax= 5.63D-05

 Initial convergence to 1.0D-05 achieved.  Increase integral accuracy.
 Cycle   9  Pass 1  IDiag  1:
 E= -189.381744405257     Delta-E=        0.000019329553 Rises=F Damp=F
 DIIS: error= 1.56D-05 at cycle   1 NSaved=   1.
 NSaved= 1 IEnMin= 1 EnMin= -189.381744405257     IErMin= 1 ErrMin= 1.56D-05
 ErrMax= 1.56D-05  0.00D+00 EMaxC= 1.00D-01 BMatC= 2.27D-08 BMatP= 2.27D-08
 IDIUse=1 WtCom= 1.00D+00 WtEn= 0.00D+00
 Coeff-Com:  0.100D+01
 Coeff:      0.100D+01
 Gap=     0.304 Goal=   None    Shift=    0.000
 RMSDP=3.14D-06 MaxDP=1.09D-04 DE= 1.93D-05 OVMax= 3.45D-05

 Cycle  10  Pass 1  IDiag  1:
 E= -189.381744414876     Delta-E=       -0.000000009619 Rises=F Damp=F
 DIIS: error= 5.40D-06 at cycle   2 NSaved=   2.
 NSaved= 2 IEnMin= 2 EnMin= -189.381744414876     IErMin= 2 ErrMin= 5.40D-06
 ErrMax= 5.40D-06  0.00D+00 EMaxC= 1.00D-01 BMatC= 3.15D-09 BMatP= 2.27D-08
 IDIUse=1 WtCom= 1.00D+00 WtEn= 0.00D+00
 Coeff-Com:  0.184D+00 0.816D+00
 Coeff:      0.184D+00 0.816D+00
 Gap=     0.304 Goal=   None    Shift=    0.000
 RMSDP=4.97D-07 MaxDP=7.36D-06 DE=-9.62D-09 OVMax= 2.88D-05

 Cycle  11  Pass 1  IDiag  1:
 E= -189.381744415163     Delta-E=       -0.000000000287 Rises=F Damp=F
 DIIS: error= 6.57D-06 at cycle   3 NSaved=   3.
 NSaved= 3 IEnMin= 3 EnMin= -189.381744415163     IErMin= 2 ErrMin= 5.40D-06
 ErrMax= 6.57D-06  0.00D+00 EMaxC= 1.00D-01 BMatC= 3.45D-09 BMatP= 3.15D-09
 IDIUse=1 WtCom= 1.00D+00 WtEn= 0.00D+00
 Coeff-Com: -0.242D-02 0.512D+00 0.490D+00
 Coeff:     -0.242D-02 0.512D+00 0.490D+00
 Gap=     0.304 Goal=   None    Shift=    0.000
 RMSDP=3.85D-07 MaxDP=7.52D-06 DE=-2.87D-10 OVMax= 1.56D-05

 Cycle  12  Pass 1  IDiag  1:
 E= -189.381744417486     Delta-E=       -0.000000002323 Rises=F Damp=F
 DIIS: error= 1.50D-06 at cycle   4 NSaved=   4.
 NSaved= 4 IEnMin= 4 EnMin= -189.381744417486     IErMin= 4 ErrMin= 1.50D-06
 ErrMax= 1.50D-06  0.00D+00 EMaxC= 1.00D-01 BMatC= 2.14D-10 BMatP= 3.15D-09
 IDIUse=1 WtCom= 1.00D+00 WtEn= 0.00D+00
 Coeff-Com: -0.203D-01 0.242D+00 0.277D+00 0.501D+00
 Coeff:     -0.203D-01 0.242D+00 0.277D+00 0.501D+00
 Gap=     0.304 Goal=   None    Shift=    0.000
 RMSDP=8.95D-08 MaxDP=1.51D-06 DE=-2.32D-09 OVMax= 6.12D-06

 Cycle  13  Pass 1  IDiag  1:
 E= -189.381744417664     Delta-E=       -0.000000000178 Rises=F Damp=F
 DIIS: error= 3.28D-07 at cycle   5 NSaved=   5.
 NSaved= 5 IEnMin= 5 EnMin= -189.381744417664     IErMin= 5 ErrMin= 3.28D-07
 ErrMax= 3.28D-07  0.00D+00 EMaxC= 1.00D-01 BMatC= 9.83D-12 BMatP= 2.14D-10
 IDIUse=1 WtCom= 1.00D+00 WtEn= 0.00D+00
 Coeff-Com: -0.476D-02 0.206D-01 0.135D-01 0.163D+00 0.807D+00
 Coeff:     -0.476D-02 0.206D-01 0.135D-01 0.163D+00 0.807D+00
 Gap=     0.304 Goal=   None    Shift=    0.000
 RMSDP=5.46D-08 MaxDP=1.61D-06 DE=-1.78D-10 OVMax= 2.04D-06

 Cycle  14  Pass 1  IDiag  1:
 E= -189.381744417673     Delta-E=       -0.000000000009 Rises=F Damp=F
 DIIS: error= 1.95D-07 at cycle   6 NSaved=   6.
 NSaved= 6 IEnMin= 6 EnMin= -189.381744417673     IErMin= 6 ErrMin= 1.95D-07
 ErrMax= 1.95D-07  0.00D+00 EMaxC= 1.00D-01 BMatC= 2.82D-12 BMatP= 9.83D-12
 IDIUse=1 WtCom= 1.00D+00 WtEn= 0.00D+00
 Coeff-Com: -0.952D-03-0.116D-01-0.208D-01 0.329D-01 0.453D+00 0.547D+00
 Coeff:     -0.952D-03-0.116D-01-0.208D-01 0.329D-01 0.453D+00 0.547D+00
 Gap=     0.304 Goal=   None    Shift=    0.000
 RMSDP=1.30D-08 MaxDP=2.80D-07 DE=-8.64D-12 OVMax= 8.88D-07

 Cycle  15  Pass 1  IDiag  1:
 E= -189.381744417675     Delta-E=       -0.000000000002 Rises=F Damp=F
 DIIS: error= 6.77D-08 at cycle   7 NSaved=   7.
 NSaved= 7 IEnMin= 7 EnMin= -189.381744417675     IErMin= 7 ErrMin= 6.77D-08
 ErrMax= 6.77D-08  0.00D+00 EMaxC= 1.00D-01 BMatC= 4.03D-13 BMatP= 2.82D-12
 IDIUse=1 WtCom= 1.00D+00 WtEn= 0.00D+00
 Coeff-Com:  0.531D-03-0.973D-02-0.153D-01-0.157D-01 0.109D+00 0.320D+00
 Coeff-Com:  0.611D+00
 Coeff:      0.531D-03-0.973D-02-0.153D-01-0.157D-01 0.109D+00 0.320D+00
 Coeff:      0.611D+00
 Gap=     0.304 Goal=   None    Shift=    0.000
 RMSDP=4.62D-09 MaxDP=1.22D-07 DE=-2.22D-12 OVMax= 2.00D-07

 SCF Done:  E(RM062X) =  -189.381744418     A.U. after   15 cycles
            NFock= 15  Conv=0.46D-08     -V/T= 2.0065
 KE= 1.881660174931D+02 PE=-5.925338093877D+02 EE= 1.395663996118D+02
 Leave Link  502 at Fri Oct  2 16:08:04 2020, MaxMem=   268435456 cpu:              33.8 elap:               5.0
 (Enter /applis/site/cecic/gaussian16/B.01/nehalem/g16/l601.exe)
 Copying SCF densities to generalized density rwf, IOpCl= 0 IROHF=0.

 **********************************************************************

            Population analysis using the SCF Density.

 **********************************************************************

 Alpha  occ. eigenvalues --  -19.75591 -10.74665 -10.63550 -10.57547  -1.27923
 Alpha  occ. eigenvalues --   -0.93910  -0.79758  -0.65177  -0.57919  -0.57919
 Alpha  occ. eigenvalues --   -0.39605  -0.39605  -0.39053
 Alpha virt. eigenvalues --   -0.08671  -0.08671   0.11435   0.15948   0.15948
 Alpha virt. eigenvalues --    0.22201   0.26406   0.28191   0.28191   0.30821
 Alpha virt. eigenvalues --    0.36522   0.36522   0.43411   0.47962   0.47962
 Alpha virt. eigenvalues --    0.52734   0.52863   0.52864   0.68185   0.68925
 Alpha virt. eigenvalues --    0.68925   0.72756   0.72756   0.74131   0.85539
 Alpha virt. eigenvalues --    0.85539   0.86900   0.97731   0.97731   0.99606
 Alpha virt. eigenvalues --    1.14597   1.19725   1.19725   1.32857   1.45013
 Alpha virt. eigenvalues --    1.45013   1.56656   1.56656   1.76927   1.84900
 Alpha virt. eigenvalues --    1.91657   1.91657   2.07132   2.07132   2.17298
 Alpha virt. eigenvalues --    2.19282   2.22253   2.22253   2.41765   2.41765
 Alpha virt. eigenvalues --    2.42189   2.42189   2.45137   2.45137   2.52849
 Alpha virt. eigenvalues --    2.63096   2.63096   2.70239   2.70239   2.70517
 Alpha virt. eigenvalues --    2.72405   2.72406   2.85303   2.85303   2.87913
 Alpha virt. eigenvalues --    2.88605   2.88606   2.92587   2.92587   3.07875
 Alpha virt. eigenvalues --    3.07875   3.15275   3.15276   3.24943   3.24943
 Alpha virt. eigenvalues --    3.34108   3.43786   3.43786   3.63244   3.83588
 Alpha virt. eigenvalues --    3.83588   4.03944   4.03944   4.19713   4.27541
 Alpha virt. eigenvalues --    4.51456   4.51456   5.02561   5.08398   5.08398
 Alpha virt. eigenvalues --    5.21786   5.21786   5.26400   5.49063   5.49063
 Alpha virt. eigenvalues --    5.82438   6.22700   6.22700   6.39976   6.67915
 Alpha virt. eigenvalues --    6.67915   6.85467   6.85467   6.99968  12.13732
 Alpha virt. eigenvalues --   13.38069  14.41879
          Condensed to atoms (all electrons):
               1          2          3          4
     1  C    5.274378   0.827999  -0.088486  -0.000503
     2  C    0.827999   5.193139   0.319009  -0.060243
     3  C   -0.088486   0.319009   4.599541   0.710872
     4  O   -0.000503  -0.060243   0.710872   7.515649
 Mulliken charges:
               1
     1  C   -0.013387
     2  C   -0.279903
     3  C    0.459065
     4  O   -0.165775
 Sum of Mulliken charges =  -0.00000
 Mulliken charges with hydrogens summed into heavy atoms:
               1
     1  C   -0.013387
     2  C   -0.279903
     3  C    0.459065
     4  O   -0.165775
 Electronic spatial extent (au):  <R**2>=            628.4817
 Charge=             -0.0000 electrons
 Dipole moment (field-independent basis, Debye):
    X=             -0.0000    Y=              0.0000    Z=              1.5914  Tot=              1.5914
 Quadrupole moment (field-independent basis, Debye-Ang):
   XX=            -21.3849   YY=            -21.3849   ZZ=            -23.2353
   XY=              0.0000   XZ=             -0.0000   YZ=              0.0000
 Traceless Quadrupole moment (field-independent basis, Debye-Ang):
   XX=              0.6168   YY=              0.6168   ZZ=             -1.2336
   XY=              0.0000   XZ=             -0.0000   YZ=              0.0000
 Octapole moment (field-independent basis, Debye-Ang**2):
  XXX=             -0.0000  YYY=              0.0000  ZZZ=           -132.8717  XYY=             -0.0000
  XXY=             -0.0000  XXZ=            -38.2396  XZZ=             -0.0000  YZZ=              0.0000
  YYZ=            -38.2396  XYZ=             -0.0000
 Hexadecapole moment (field-independent basis, Debye-Ang**3):
 XXXX=            -21.6222 YYYY=            -21.6222 ZZZZ=           -811.8783 XXXY=              0.0000
 XXXZ=             -0.0000 YYYX=              0.0000 YYYZ=              0.0000 ZZZX=             -0.0000
 ZZZY=              0.0000 XXYY=             -7.2074 XXZZ=           -119.5551 YYZZ=           -119.5551
 XXYZ=             -0.0000 YYXZ=             -0.0000 ZZXY=             -0.0000
 N-N= 7.541964786514D+01 E-N=-5.925338061934D+02  KE= 1.881660174931D+02
 No NMR shielding tensors so no spin-rotation constants.
 Leave Link  601 at Fri Oct  2 16:08:04 2020, MaxMem=   268435456 cpu:               1.3 elap:               0.5
 (Enter /applis/site/cecic/gaussian16/B.01/nehalem/g16/l701.exe)
 ... and contract with generalized density number  0.
 Compute integral first derivatives.
 Leave Link  701 at Fri Oct  2 16:08:09 2020, MaxMem=   268435456 cpu:               1.3 elap:               2.9
 (Enter /applis/site/cecic/gaussian16/B.01/nehalem/g16/l702.exe)
 L702 exits ... SP integral derivatives will be done elsewhere.
 Leave Link  702 at Fri Oct  2 16:08:19 2020, MaxMem=   268435456 cpu:               0.5 elap:               7.8
 (Enter /applis/site/cecic/gaussian16/B.01/nehalem/g16/l703.exe)
 Integral derivatives from FoFJK, PRISM(SPDF).
 Compute integral first derivatives, UseDBF=F ICtDFT=           0.
 Calling FoFJK, ICntrl=      2127 FMM=F ISym2X=0 I1Cent= 0 IOpClX= 0 NMat=1 NMatS=1 NMatT=0.
 FoFJK:  IHMeth= 1 ICntrl=    2127 DoSepK=F KAlg= 0 I1Cent=           0 FoldK=F
 IRaf=         0 NMat=       1 IRICut=       1 DoRegI=T DoRafI=F ISym2E= 0 IDoP0=0 IntGTp=1.
 FoFCou: FMM=F IPFlag=           0 FMFlag=      100000 FMFlg1=         800
         NFxFlg=           0 DoJE=F BraDBF=F KetDBF=F FulRan=T
         wScrn=  0.000000 ICntrl=      2127 IOpCl=  0 I1Cent=           0 NGrid=           0
         NMat0=    1 NMatS0=      1 NMatT0=    0 NMatD0=    1 NMtDS0=    0 NMtDT0=    0
 Symmetry not used in FoFCou.
 Leave Link  703 at Fri Oct  2 16:08:25 2020, MaxMem=   268435456 cpu:               9.4 elap:               5.9
 (Enter /applis/site/cecic/gaussian16/B.01/nehalem/g16/l716.exe)
 Dipole        =-4.78792880D-15 1.38526350D-15 6.26114095D-01
 -------------------------------------------------------------------
 Center     Atomic                   Forces (Hartrees/Bohr)
 Number     Number              X              Y              Z
 -------------------------------------------------------------------
      1        6           0.000000000    0.000000000    0.020157852
      2        6          -0.000000000    0.000000000   -0.036063198
      3        6          -0.000000000    0.000000000    0.117431665
      4        8          -0.000000000   -0.000000000   -0.101526319
 -------------------------------------------------------------------
 Cartesian Forces:  Max     0.117431665 RMS     0.046372300
 Leave Link  716 at Fri Oct  2 16:08:26 2020, MaxMem=   268435456 cpu:               0.5 elap:               0.3
 (Enter /applis/site/cecic/gaussian16/B.01/nehalem/g16/l103.exe)

 GradGradGradGradGradGradGradGradGradGradGradGradGradGradGradGradGradGrad
 Berny optimization.
 FormGI is forming the generalized inverse of G from B-inverse, IUseBI=4.
 Internal  Forces:  Max     0.101526319 RMS     0.039581584
 Search for a local minimum.
 Step number   1 out of a maximum of  100
 All quantities printed in internal units (Hartrees-Bohrs-Radians)
 RMS Force = .39582D-01 SwitMx=.10000D-02 MixMth= 1
 Mixed Optimization -- RFO/linear search
 Second derivative matrix not updated -- first step.
 The second derivative matrix:
                          R1        R2        R3        A1        A2
           R1           0.72712
           R2           0.00000   0.72718
           R3           0.00000   0.00000   1.06740
           A1           0.00000   0.00000   0.00000   0.03661
           A2           0.00000   0.00000   0.00000   0.00000   0.04387
           A3           0.00000   0.00000   0.00000   0.00000   0.00000
           A4           0.00000   0.00000   0.00000   0.00000   0.00000
                          A3        A4
           A3           0.03661
           A4           0.00000   0.04387
 ITU=  0
     Eigenvalues ---    0.03661   0.03661   0.04387   0.04387   0.72712
     Eigenvalues ---    0.72718   1.06740
 RFO step:  Lambda=-1.04568719D-02 EMin= 3.66117802D-02
 Linear search not attempted -- first point.
 Iteration  1 RMS(Cart)=  0.03010954 RMS(Int)=  0.00000000
 Iteration  2 RMS(Cart)=  0.00000000 RMS(Int)=  0.00000000
 ITry= 1 IFail=0 DXMaxC= 6.67D-02 DCOld= 1.00D+10 DXMaxT= 3.00D-01 DXLimC= 3.00D+00 Rises=F
 Variable       Old X    -DE/DX   Delta X   Delta X   Delta X     New X
                                 (Linear)    (Quad)   (Total)
    R1        2.42102  -0.02016   0.00000  -0.02733  -0.02733   2.39369
    R2        2.42098   0.01591   0.00000   0.02156   0.02156   2.44255
    R3        2.26055  -0.10153   0.00000  -0.09419  -0.09419   2.16635
    A1        3.14159  -0.00000   0.00000  -0.00000   0.00000   3.14159
    A2        3.14159  -0.00000   0.00000  -0.00000   0.00000   3.14159
    A3        3.14159  -0.00000   0.00000  -0.00000   0.00000   3.14159
    A4        3.14159  -0.00000   0.00000  -0.00000   0.00000   3.14159
         Item               Value     Threshold  Converged?
 Maximum Force            0.101526     0.000450     NO 
 RMS     Force            0.039582     0.000300     NO 
 Maximum Displacement     0.066695     0.001800     NO 
 RMS     Displacement     0.030110     0.001200     NO 
 Predicted change in Energy=-5.281160D-03
 Lowest energy point so far.  Saving SCF results.
 GradGradGradGradGradGradGradGradGradGradGradGradGradGradGradGradGradGrad

 Leave Link  103 at Fri Oct  2 16:08:35 2020, MaxMem=   268435456 cpu:              58.2 elap:               9.0
 (Enter /applis/site/cecic/gaussian16/B.01/nehalem/g16/l202.exe)
                          Input orientation:                          
 ---------------------------------------------------------------------
 Center     Atomic      Atomic             Coordinates (Angstroms)
 Number     Number       Type             X           Y           Z
 ---------------------------------------------------------------------
      1          6           0        0.000000   -0.000000    0.017603
      2          6           0       -0.000000    0.000000    1.284290
      3          6           0       -0.000000   -0.000000    2.576831
      4          8           0        0.000000   -0.000000    3.723216
 ---------------------------------------------------------------------
                    Distance matrix (angstroms):
                    1          2          3          4
     1  C    0.000000
     2  C    1.266688   0.000000
     3  C    2.559228   1.292540   0.000000
     4  O    3.705614   2.438926   1.146386   0.000000
 Symmetry turned off by external request.
 Stoichiometry    C3O
 Framework group  C*V[C*(CCCO)]
 Deg. of freedom     3
 Full point group                 C*V     NOp   4
 Rotational constants (GHZ):           0.0000000           4.8264842           4.8264842
 Leave Link  202 at Fri Oct  2 16:08:36 2020, MaxMem=   268435456 cpu:               0.7 elap:               0.2
 (Enter /applis/site/cecic/gaussian16/B.01/nehalem/g16/l301.exe)
 Standard basis: CC-pVTZ (5D, 7F)
 Ernie: Thresh=  0.10000D-02 Tol=  0.10000D-05 Strict=F.
 Ernie:  12 primitive shells out of 104 were deleted.
   120 basis functions,   208 primitive gaussians,   140 cartesian basis functions
    13 alpha electrons       13 beta electrons
       nuclear repulsion energy        76.6483003940 Hartrees.
 IExCor= 4336 DFT=T Ex+Corr=M062X ExCW=0 ScaHFX=  0.540000
 ScaDFX=  1.000000  1.000000  1.000000  1.000000 ScalE2=  1.000000  1.000000
 IRadAn=      5 IRanWt=     -1 IRanGd=            0 ICorTp=0 IEmpDi=  4
 NAtoms=    4 NActive=    4 NUniq=    4 SFac= 1.00D+00 NAtFMM=   60 NAOKFM=F Big=F
 Integral buffers will be    131072 words long.
 Raffenetti 2 integral format.
 Two-electron integral symmetry is turned off.
 Leave Link  301 at Fri Oct  2 16:08:37 2020, MaxMem=   268435456 cpu:               0.7 elap:               0.1
 (Enter /applis/site/cecic/gaussian16/B.01/nehalem/g16/l302.exe)
 NPDir=0 NMtPBC=     1 NCelOv=     1 NCel=       1 NClECP=     1 NCelD=      1
         NCelK=      1 NCelE2=     1 NClLst=     1 CellRange=     0.0.
 One-electron integrals computed using PRISM.
 NBasis=   120 RedAO= T EigKep=  1.23D-04  NBF=   120
 NBsUse=   120 1.00D-06 EigRej= -1.00D+00 NBFU=   120
 Precomputing XC quadrature grid using
 IXCGrd= 4 IRadAn=           5 IRanWt=          -1 IRanGd=           0 AccXCQ= 0.00D+00.
 Generated NRdTot=       0 NPtTot=           0 NUsed=           0 NTot=          32
 NSgBfM=   140   140   140   140   140 MxSgAt=     4 MxSgA2=     4.
 Leave Link  302 at Fri Oct  2 16:08:37 2020, MaxMem=   268435456 cpu:               1.4 elap:               0.2
 (Enter /applis/site/cecic/gaussian16/B.01/nehalem/g16/l303.exe)
 DipDrv:  MaxL=1.
 Leave Link  303 at Fri Oct  2 16:08:37 2020, MaxMem=   268435456 cpu:               0.4 elap:               0.1
 (Enter /applis/site/cecic/gaussian16/B.01/nehalem/g16/l401.exe)
 Initial guess from the checkpoint file:  "input.chk"
 B after Tr=    -0.000000    0.000000   -0.005130
         Rot=    1.000000   -0.000000   -0.000000   -0.000000 Ang=   0.00 deg.
 Guess basis will be translated and rotated to current coordinates.
 JPrj=2 DoOrth=T DoCkMO=T.
 Generating alternative initial guess.
 ExpMin= 1.21D-01 ExpMax= 1.53D+04 ExpMxC= 5.22D+02 IAcc=3 IRadAn=         5 AccDes= 0.00D+00
 Harris functional with IExCor= 1009 and IRadAn=       5 diagonalized for initial guess.
 HarFok:  IExCor= 1009 AccDes= 0.00D+00 IRadAn=         5 IDoV= 1 UseB2=F ITyADJ=14
 ICtDFT=  3500011 ScaDFX=  1.000000  1.000000  1.000000  1.000000
 FoFCou: FMM=F IPFlag=           0 FMFlag=      100000 FMFlg1=           0
         NFxFlg=           0 DoJE=T BraDBF=F KetDBF=T FulRan=T
         wScrn=  0.000000 ICntrl=       500 IOpCl=  0 I1Cent=   200000004 NGrid=           0
         NMat0=    1 NMatS0=      1 NMatT0=    0 NMatD0=    1 NMtDS0=    0 NMtDT0=    0
 Symmetry not used in FoFCou.
 Harris En= -189.296370992168    
 Leave Link  401 at Fri Oct  2 16:08:37 2020, MaxMem=   268435456 cpu:               2.9 elap:               0.4
 (Enter /applis/site/cecic/gaussian16/B.01/nehalem/g16/l502.exe)
 Keep R1 ints in memory in canonical form, NReq=34106874.
 FoFCou: FMM=F IPFlag=           0 FMFlag=           0 FMFlg1=           0
         NFxFlg=           0 DoJE=F BraDBF=F KetDBF=F FulRan=T
         wScrn=  0.000000 ICntrl=       600 IOpCl=  0 I1Cent=           0 NGrid=           0
         NMat0=    1 NMatS0=   7260 NMatT0=    0 NMatD0=    1 NMtDS0=    0 NMtDT0=    0
 Symmetry not used in FoFCou.
 Two-electron integral symmetry not used.
 Closed shell SCF:
 Using DIIS extrapolation, IDIIS=  1040.
 NGot=   268435456 LenX=   242036732 LenY=   242016691
 Requested convergence on RMS density matrix=1.00D-08 within 128 cycles.
 Requested convergence on MAX density matrix=1.00D-06.
 Requested convergence on             energy=1.00D-06.
 No special actions if energy rises.
 Integral accuracy reduced to 1.0D-05 until final iterations.

 Cycle   1  Pass 0  IDiag  1:
 E= -189.385425149244    
 DIIS: error= 6.00D-03 at cycle   1 NSaved=   1.
 NSaved= 1 IEnMin= 1 EnMin= -189.385425149244     IErMin= 1 ErrMin= 6.00D-03
 ErrMax= 6.00D-03  0.00D+00 EMaxC= 1.00D-01 BMatC= 2.74D-03 BMatP= 2.74D-03
 IDIUse=3 WtCom= 9.40D-01 WtEn= 6.00D-02
 Coeff-Com:  0.100D+01
 Coeff-En:   0.100D+01
 Coeff:      0.100D+01
 Gap=     1.467 Goal=   None    Shift=    0.000
 GapD=    1.467 DampG=2.000 DampE=1.000 DampFc=2.0000 IDamp=-1.
 RMSDP=5.63D-04 MaxDP=1.38D-02              OVMax= 1.88D-02

 Cycle   2  Pass 0  IDiag  1:
 E= -189.387399245197     Delta-E=       -0.001974095952 Rises=F Damp=F
 DIIS: error= 3.25D-03 at cycle   2 NSaved=   2.
 NSaved= 2 IEnMin= 2 EnMin= -189.387399245197     IErMin= 2 ErrMin= 3.25D-03
 ErrMax= 3.25D-03  0.00D+00 EMaxC= 1.00D-01 BMatC= 8.61D-04 BMatP= 2.74D-03
 IDIUse=3 WtCom= 9.67D-01 WtEn= 3.25D-02
 Coeff-Com:  0.314D+00 0.686D+00
 Coeff-En:   0.000D+00 0.100D+01
 Coeff:      0.303D+00 0.697D+00
 Gap=     0.306 Goal=   None    Shift=    0.000
 RMSDP=2.94D-04 MaxDP=8.57D-03 DE=-1.97D-03 OVMax= 1.03D-02

 Cycle   3  Pass 0  IDiag  1:
 E= -189.387627684678     Delta-E=       -0.000228439482 Rises=F Damp=F
 DIIS: error= 2.39D-03 at cycle   3 NSaved=   3.
 NSaved= 3 IEnMin= 3 EnMin= -189.387627684678     IErMin= 3 ErrMin= 2.39D-03
 ErrMax= 2.39D-03  0.00D+00 EMaxC= 1.00D-01 BMatC= 4.83D-04 BMatP= 8.61D-04
 IDIUse=3 WtCom= 9.76D-01 WtEn= 2.39D-02
 Coeff-Com:  0.429D-01 0.424D+00 0.533D+00
 Coeff-En:   0.000D+00 0.379D+00 0.621D+00
 Coeff:      0.419D-01 0.423D+00 0.535D+00
 Gap=     0.306 Goal=   None    Shift=    0.000
 RMSDP=1.41D-04 MaxDP=2.94D-03 DE=-2.28D-04 OVMax= 5.66D-03

 Cycle   4  Pass 0  IDiag  1:
 E= -189.387955743600     Delta-E=       -0.000328058922 Rises=F Damp=F
 DIIS: error= 5.27D-04 at cycle   4 NSaved=   4.
 NSaved= 4 IEnMin= 4 EnMin= -189.387955743600     IErMin= 4 ErrMin= 5.27D-04
 ErrMax= 5.27D-04  0.00D+00 EMaxC= 1.00D-01 BMatC= 1.48D-05 BMatP= 4.83D-04
 IDIUse=3 WtCom= 9.95D-01 WtEn= 5.27D-03
 Coeff-Com: -0.214D-01 0.146D-01 0.161D+00 0.846D+00
 Coeff-En:   0.000D+00 0.000D+00 0.000D+00 0.100D+01
 Coeff:     -0.213D-01 0.146D-01 0.160D+00 0.847D+00
 Gap=     0.306 Goal=   None    Shift=    0.000
 RMSDP=2.50D-05 MaxDP=6.23D-04 DE=-3.28D-04 OVMax= 1.68D-03

 Cycle   5  Pass 0  IDiag  1:
 E= -189.387968697687     Delta-E=       -0.000012954087 Rises=F Damp=F
 DIIS: error= 1.81D-04 at cycle   5 NSaved=   5.
 NSaved= 5 IEnMin= 5 EnMin= -189.387968697687     IErMin= 5 ErrMin= 1.81D-04
 ErrMax= 1.81D-04  0.00D+00 EMaxC= 1.00D-01 BMatC= 2.23D-06 BMatP= 1.48D-05
 IDIUse=3 WtCom= 9.98D-01 WtEn= 1.81D-03
 Coeff-Com: -0.124D-01-0.113D-01 0.427D-01 0.400D+00 0.581D+00
 Coeff-En:   0.000D+00 0.000D+00 0.000D+00 0.000D+00 0.100D+01
 Coeff:     -0.124D-01-0.113D-01 0.426D-01 0.399D+00 0.582D+00
 Gap=     0.305 Goal=   None    Shift=    0.000
 RMSDP=2.61D-05 MaxDP=7.06D-04 DE=-1.30D-05 OVMax= 9.36D-04

 Cycle   6  Pass 0  IDiag  1:
 E= -189.387970262223     Delta-E=       -0.000001564535 Rises=F Damp=F
 DIIS: error= 1.33D-04 at cycle   6 NSaved=   6.
 NSaved= 6 IEnMin= 6 EnMin= -189.387970262223     IErMin= 6 ErrMin= 1.33D-04
 ErrMax= 1.33D-04  0.00D+00 EMaxC= 1.00D-01 BMatC= 7.22D-07 BMatP= 2.23D-06
 IDIUse=3 WtCom= 9.99D-01 WtEn= 1.33D-03
 Coeff-Com: -0.654D-03-0.118D-01-0.212D-01 0.428D-01 0.384D+00 0.607D+00
 Coeff-En:   0.000D+00 0.000D+00 0.000D+00 0.000D+00 0.265D+00 0.735D+00
 Coeff:     -0.653D-03-0.118D-01-0.212D-01 0.428D-01 0.384D+00 0.607D+00
 Gap=     0.306 Goal=   None    Shift=    0.000
 RMSDP=4.79D-06 MaxDP=9.20D-05 DE=-1.56D-06 OVMax= 4.28D-04

 Initial convergence to 1.0D-05 achieved.  Increase integral accuracy.
 Cycle   7  Pass 1  IDiag  1:
 E= -189.387958727932     Delta-E=        0.000011534291 Rises=F Damp=F
 DIIS: error= 1.73D-05 at cycle   1 NSaved=   1.
 NSaved= 1 IEnMin= 1 EnMin= -189.387958727932     IErMin= 1 ErrMin= 1.73D-05
 ErrMax= 1.73D-05  0.00D+00 EMaxC= 1.00D-01 BMatC= 3.14D-08 BMatP= 3.14D-08
 IDIUse=1 WtCom= 1.00D+00 WtEn= 0.00D+00
 Coeff-Com:  0.100D+01
 Coeff:      0.100D+01
 Gap=     0.306 Goal=   None    Shift=    0.000
 RMSDP=4.79D-06 MaxDP=9.20D-05 DE= 1.15D-05 OVMax= 1.05D-04

 Cycle   8  Pass 1  IDiag  1:
 E= -189.387958717477     Delta-E=        0.000000010455 Rises=F Damp=F
 DIIS: error= 2.16D-05 at cycle   2 NSaved=   2.
 NSaved= 2 IEnMin= 1 EnMin= -189.387958727932     IErMin= 1 ErrMin= 1.73D-05
 ErrMax= 2.16D-05  0.00D+00 EMaxC= 1.00D-01 BMatC= 3.21D-08 BMatP= 3.14D-08
 IDIUse=1 WtCom= 1.00D+00 WtEn= 0.00D+00
 Coeff-Com:  0.504D+00 0.496D+00
 Coeff:      0.504D+00 0.496D+00
 Gap=     0.306 Goal=   None    Shift=    0.000
 RMSDP=1.88D-06 MaxDP=3.99D-05 DE= 1.05D-08 OVMax= 1.11D-04

 Cycle   9  Pass 1  IDiag  1:
 E= -189.387958743856     Delta-E=       -0.000000026379 Rises=F Damp=F
 DIIS: error= 9.57D-06 at cycle   3 NSaved=   3.
 NSaved= 3 IEnMin= 3 EnMin= -189.387958743856     IErMin= 3 ErrMin= 9.57D-06
 ErrMax= 9.57D-06  0.00D+00 EMaxC= 1.00D-01 BMatC= 6.83D-09 BMatP= 3.14D-08
 IDIUse=1 WtCom= 1.00D+00 WtEn= 0.00D+00
 Coeff-Com:  0.629D-02 0.311D+00 0.683D+00
 Coeff:      0.629D-02 0.311D+00 0.683D+00
 Gap=     0.306 Goal=   None    Shift=    0.000
 RMSDP=8.10D-07 MaxDP=2.02D-05 DE=-2.64D-08 OVMax= 3.25D-05

 Cycle  10  Pass 1  IDiag  1:
 E= -189.387958750226     Delta-E=       -0.000000006369 Rises=F Damp=F
 DIIS: error= 1.61D-06 at cycle   4 NSaved=   4.
 NSaved= 4 IEnMin= 4 EnMin= -189.387958750226     IErMin= 4 ErrMin= 1.61D-06
 ErrMax= 1.61D-06  0.00D+00 EMaxC= 1.00D-01 BMatC= 2.66D-10 BMatP= 6.83D-09
 IDIUse=1 WtCom= 1.00D+00 WtEn= 0.00D+00
 Coeff-Com: -0.302D-01 0.121D+00 0.302D+00 0.607D+00
 Coeff:     -0.302D-01 0.121D+00 0.302D+00 0.607D+00
 Gap=     0.306 Goal=   None    Shift=    0.000
 RMSDP=8.98D-08 MaxDP=2.13D-06 DE=-6.37D-09 OVMax= 5.40D-06

 Cycle  11  Pass 1  IDiag  1:
 E= -189.387958750454     Delta-E=       -0.000000000228 Rises=F Damp=F
 DIIS: error= 4.45D-07 at cycle   5 NSaved=   5.
 NSaved= 5 IEnMin= 5 EnMin= -189.387958750454     IErMin= 5 ErrMin= 4.45D-07
 ErrMax= 4.45D-07  0.00D+00 EMaxC= 1.00D-01 BMatC= 1.55D-11 BMatP= 2.66D-10
 IDIUse=1 WtCom= 1.00D+00 WtEn= 0.00D+00
 Coeff-Com: -0.796D-02 0.109D-01 0.162D-01 0.178D+00 0.802D+00
 Coeff:     -0.796D-02 0.109D-01 0.162D-01 0.178D+00 0.802D+00
 Gap=     0.306 Goal=   None    Shift=    0.000
 RMSDP=4.01D-08 MaxDP=9.33D-07 DE=-2.28D-10 OVMax= 1.63D-06

 Cycle  12  Pass 1  IDiag  1:
 E= -189.387958750466     Delta-E=       -0.000000000013 Rises=F Damp=F
 DIIS: error= 3.10D-07 at cycle   6 NSaved=   6.
 NSaved= 6 IEnMin= 6 EnMin= -189.387958750466     IErMin= 6 ErrMin= 3.10D-07
 ErrMax= 3.10D-07  0.00D+00 EMaxC= 1.00D-01 BMatC= 5.74D-12 BMatP= 1.55D-11
 IDIUse=1 WtCom= 1.00D+00 WtEn= 0.00D+00
 Coeff-Com: -0.224D-02-0.507D-02-0.233D-01 0.444D-01 0.452D+00 0.534D+00
 Coeff:     -0.224D-02-0.507D-02-0.233D-01 0.444D-01 0.452D+00 0.534D+00
 Gap=     0.306 Goal=   None    Shift=    0.000
 RMSDP=1.56D-08 MaxDP=3.00D-07 DE=-1.25D-11 OVMax= 6.33D-07

 Cycle  13  Pass 1  IDiag  1:
 E= -189.387958750470     Delta-E=       -0.000000000004 Rises=F Damp=F
 DIIS: error= 1.04D-07 at cycle   7 NSaved=   7.
 NSaved= 7 IEnMin= 7 EnMin= -189.387958750470     IErMin= 7 ErrMin= 1.04D-07
 ErrMax= 1.04D-07  0.00D+00 EMaxC= 1.00D-01 BMatC= 5.80D-13 BMatP= 5.74D-12
 IDIUse=1 WtCom= 1.00D+00 WtEn= 0.00D+00
 Coeff-Com:  0.669D-03-0.440D-02-0.171D-01-0.163D-01 0.455D-01 0.252D+00
 Coeff-Com:  0.740D+00
 Coeff:      0.669D-03-0.440D-02-0.171D-01-0.163D-01 0.455D-01 0.252D+00
 Coeff:      0.740D+00
 Gap=     0.306 Goal=   None    Shift=    0.000
 RMSDP=1.03D-08 MaxDP=2.79D-07 DE=-4.15D-12 OVMax= 2.41D-07

 Cycle  14  Pass 1  IDiag  1:
 E= -189.387958750470     Delta-E=        0.000000000000 Rises=F Damp=F
 DIIS: error= 6.49D-09 at cycle   8 NSaved=   8.
 NSaved= 8 IEnMin= 7 EnMin= -189.387958750470     IErMin= 8 ErrMin= 6.49D-09
 ErrMax= 6.49D-09  0.00D+00 EMaxC= 1.00D-01 BMatC= 4.32D-15 BMatP= 5.80D-13
 IDIUse=1 WtCom= 1.00D+00 WtEn= 0.00D+00
 Coeff-Com:  0.153D-03-0.591D-03-0.204D-02-0.362D-02-0.103D-01 0.308D-01
 Coeff-Com:  0.136D+00 0.850D+00
 Coeff:      0.153D-03-0.591D-03-0.204D-02-0.362D-02-0.103D-01 0.308D-01
 Coeff:      0.136D+00 0.850D+00
 Gap=     0.306 Goal=   None    Shift=    0.000
 RMSDP=8.04D-10 MaxDP=2.02D-08 DE= 5.68D-14 OVMax= 2.81D-08

 SCF Done:  E(RM062X) =  -189.387958750     A.U. after   14 cycles
            NFock= 14  Conv=0.80D-09     -V/T= 2.0053
 KE= 1.883983531922D+02 PE=-5.951115220803D+02 EE= 1.406769097436D+02
 Leave Link  502 at Fri Oct  2 16:08:50 2020, MaxMem=   268435456 cpu:              90.4 elap:              13.0
 (Enter /applis/site/cecic/gaussian16/B.01/nehalem/g16/l701.exe)
 ... and contract with generalized density number  0.
 Compute integral first derivatives.
 Leave Link  701 at Fri Oct  2 16:08:54 2020, MaxMem=   268435456 cpu:               1.3 elap:               3.6
 (Enter /applis/site/cecic/gaussian16/B.01/nehalem/g16/l702.exe)
 L702 exits ... SP integral derivatives will be done elsewhere.
 Leave Link  702 at Fri Oct  2 16:08:54 2020, MaxMem=   268435456 cpu:               0.2 elap:               0.1
 (Enter /applis/site/cecic/gaussian16/B.01/nehalem/g16/l703.exe)
 Integral derivatives from FoFJK, PRISM(SPDF).
 Compute integral first derivatives, UseDBF=F ICtDFT=           0.
 Calling FoFJK, ICntrl=      2127 FMM=F ISym2X=0 I1Cent= 0 IOpClX= 0 NMat=1 NMatS=1 NMatT=0.
 FoFJK:  IHMeth= 1 ICntrl=    2127 DoSepK=F KAlg= 0 I1Cent=           0 FoldK=F
 IRaf=         0 NMat=       1 IRICut=       1 DoRegI=T DoRafI=F ISym2E= 0 IDoP0=0 IntGTp=1.
 FoFCou: FMM=F IPFlag=           0 FMFlag=      100000 FMFlg1=         800
         NFxFlg=           0 DoJE=F BraDBF=F KetDBF=F FulRan=T
         wScrn=  0.000000 ICntrl=      2127 IOpCl=  0 I1Cent=           0 NGrid=           0
         NMat0=    1 NMatS0=      1 NMatT0=    0 NMatD0=    1 NMtDS0=    0 NMtDT0=    0
 Symmetry not used in FoFCou.
 Leave Link  703 at Fri Oct  2 16:08:55 2020, MaxMem=   268435456 cpu:               9.3 elap:               1.2
 (Enter /applis/site/cecic/gaussian16/B.01/nehalem/g16/l716.exe)
 Dipole        =-6.68067220D-12 2.04073239D-12 8.72958887D-01
 -------------------------------------------------------------------
 Center     Atomic                   Forces (Hartrees/Bohr)
 Number     Number              X              Y              Z
 -------------------------------------------------------------------
      1        6          -0.000000000   -0.000000000    0.004004557
      2        6           0.000000000    0.000000000   -0.011553434
      3        6           0.000000000   -0.000000000    0.020267594
      4        8          -0.000000000    0.000000000   -0.012718717
 -------------------------------------------------------------------
 Cartesian Forces:  Max     0.020267594 RMS     0.007757037
 Leave Link  716 at Fri Oct  2 16:08:59 2020, MaxMem=   268435456 cpu:               0.6 elap:               0.6
 (Enter /applis/site/cecic/gaussian16/B.01/nehalem/g16/l103.exe)

 GradGradGradGradGradGradGradGradGradGradGradGradGradGradGradGradGradGrad
 Berny optimization.
 Using GEDIIS/GDIIS optimizer.
 FormGI is forming the generalized inverse of G from B-inverse, IUseBI=4.
 Internal  Forces:  Max     0.012718717 RMS     0.005791469
 Search for a local minimum.
 Step number   2 out of a maximum of  100
 All quantities printed in internal units (Hartrees-Bohrs-Radians)
 RMS Force = .57915D-02 SwitMx=.10000D-02 MixMth= 1
 Mixed Optimization -- RFO/linear search
 Update second derivatives using D2CorX and points    1    2
 DE= -6.21D-03 DEPred=-5.28D-03 R= 1.18D+00
 TightC=F SS=  1.41D+00  RLast= 1.00D-01 DXNew= 5.0454D-01 3.0126D-01
 Trust test= 1.18D+00 RLast= 1.00D-01 DXMaxT set to 3.01D-01
 The second derivative matrix:
                          R1        R2        R3        A1        A2
           R1           0.71801
           R2           0.01508   0.71120
           R3          -0.03338   0.06972   0.96848
           A1           0.00000  -0.00000   0.00000   0.03661
           A2           0.00000  -0.00000   0.00000   0.00000   0.04387
           A3           0.00000  -0.00000   0.00000   0.00000   0.00000
           A4           0.00000  -0.00000   0.00000   0.00000   0.00000
                          A3        A4
           A3           0.03661
           A4           0.00000   0.04387
 ITU=  1  0
 Use linear search instead of GDIIS.
     Eigenvalues ---    0.03661   0.03661   0.04387   0.04387   0.67914
     Eigenvalues ---    0.72935   0.98920
 RFO step:  Lambda=-5.21269659D-05 EMin= 3.66117802D-02
 Quartic linear search produced a step of  0.13666.
 Iteration  1 RMS(Cart)=  0.00360094 RMS(Int)=  0.00000000
 Iteration  2 RMS(Cart)=  0.00000000 RMS(Int)=  0.00000000
 ITry= 1 IFail=0 DXMaxC= 7.16D-03 DCOld= 1.00D+10 DXMaxT= 3.01D-01 DXLimC= 3.00D+00 Rises=F
 Variable       Old X    -DE/DX   Delta X   Delta X   Delta X     New X
                                 (Linear)    (Quad)   (Total)
    R1        2.39369  -0.00400  -0.00373  -0.00171  -0.00545   2.38825
    R2        2.44255   0.00755   0.00295   0.00821   0.01116   2.45370
    R3        2.16635  -0.01272  -0.01287   0.00108  -0.01179   2.15457
    A1        3.14159   0.00000   0.00000   0.00000   0.00000   3.14159
    A2        3.14159   0.00000   0.00000   0.00000   0.00000   3.14159
    A3        3.14159   0.00000   0.00000   0.00000   0.00000   3.14159
    A4        3.14159   0.00000   0.00000   0.00000   0.00000   3.14159
         Item               Value     Threshold  Converged?
 Maximum Force            0.012719     0.000450     NO 
 RMS     Force            0.005791     0.000300     NO 
 Maximum Displacement     0.007164     0.001800     NO 
 RMS     Displacement     0.003601     0.001200     NO 
 Predicted change in Energy=-1.459893D-04
 Lowest energy point so far.  Saving SCF results.
 GradGradGradGradGradGradGradGradGradGradGradGradGradGradGradGradGradGrad

 Leave Link  103 at Fri Oct  2 16:09:02 2020, MaxMem=   268435456 cpu:               0.4 elap:               0.5
 (Enter /applis/site/cecic/gaussian16/B.01/nehalem/g16/l202.exe)
                          Input orientation:                          
 ---------------------------------------------------------------------
 Center     Atomic      Atomic             Coordinates (Angstroms)
 Number     Number       Type             X           Y           Z
 ---------------------------------------------------------------------
      1          6           0        0.000000   -0.000000    0.018372
      2          6           0       -0.000000    0.000000    1.282178
      3          6           0        0.000000   -0.000000    2.580622
      4          8           0       -0.000000    0.000000    3.720769
 ---------------------------------------------------------------------
                    Distance matrix (angstroms):
                    1          2          3          4
     1  C    0.000000
     2  C    1.263806   0.000000
     3  C    2.562250   1.298444   0.000000
     4  O    3.702397   2.438591   1.140147   0.000000
 Symmetry turned off by external request.
 Stoichiometry    C3O
 Framework group  C*V[C*(CCCO)]
 Deg. of freedom     3
 Full point group                 C*V     NOp   4
 Rotational constants (GHZ):           0.0000000           4.8302484           4.8302484
 Leave Link  202 at Fri Oct  2 16:09:02 2020, MaxMem=   268435456 cpu:               0.7 elap:               0.1
 (Enter /applis/site/cecic/gaussian16/B.01/nehalem/g16/l301.exe)
 Standard basis: CC-pVTZ (5D, 7F)
 Ernie: Thresh=  0.10000D-02 Tol=  0.10000D-05 Strict=F.
 Ernie:  12 primitive shells out of 104 were deleted.
   120 basis functions,   208 primitive gaussians,   140 cartesian basis functions
    13 alpha electrons       13 beta electrons
       nuclear repulsion energy        76.7354159775 Hartrees.
 IExCor= 4336 DFT=T Ex+Corr=M062X ExCW=0 ScaHFX=  0.540000
 ScaDFX=  1.000000  1.000000  1.000000  1.000000 ScalE2=  1.000000  1.000000
 IRadAn=      5 IRanWt=     -1 IRanGd=            0 ICorTp=0 IEmpDi=  4
 NAtoms=    4 NActive=    4 NUniq=    4 SFac= 1.00D+00 NAtFMM=   60 NAOKFM=F Big=F
 Integral buffers will be    131072 words long.
 Raffenetti 2 integral format.
 Two-electron integral symmetry is turned off.
 Leave Link  301 at Fri Oct  2 16:09:02 2020, MaxMem=   268435456 cpu:               0.5 elap:               0.1
 (Enter /applis/site/cecic/gaussian16/B.01/nehalem/g16/l302.exe)
 NPDir=0 NMtPBC=     1 NCelOv=     1 NCel=       1 NClECP=     1 NCelD=      1
         NCelK=      1 NCelE2=     1 NClLst=     1 CellRange=     0.0.
 One-electron integrals computed using PRISM.
 NBasis=   120 RedAO= T EigKep=  1.25D-04  NBF=   120
 NBsUse=   120 1.00D-06 EigRej= -1.00D+00 NBFU=   120
 Precomputing XC quadrature grid using
 IXCGrd= 4 IRadAn=           5 IRanWt=          -1 IRanGd=           0 AccXCQ= 0.00D+00.
 Generated NRdTot=       0 NPtTot=           0 NUsed=           0 NTot=          32
 NSgBfM=   140   140   140   140   140 MxSgAt=     4 MxSgA2=     4.
 Leave Link  302 at Fri Oct  2 16:09:03 2020, MaxMem=   268435456 cpu:               1.3 elap:               0.2
 (Enter /applis/site/cecic/gaussian16/B.01/nehalem/g16/l303.exe)
 DipDrv:  MaxL=1.
 Leave Link  303 at Fri Oct  2 16:09:04 2020, MaxMem=   268435456 cpu:               0.7 elap:               1.3
 (Enter /applis/site/cecic/gaussian16/B.01/nehalem/g16/l401.exe)
 Initial guess from the checkpoint file:  "input.chk"
 B after Tr=     0.000000   -0.000000   -0.000356
         Rot=    1.000000    0.000000    0.000000    0.000000 Ang=   0.00 deg.
 Guess basis will be translated and rotated to current coordinates.
 JPrj=2 DoOrth=T DoCkMO=T.
 Leave Link  401 at Fri Oct  2 16:09:06 2020, MaxMem=   268435456 cpu:               2.3 elap:               1.9
 (Enter /applis/site/cecic/gaussian16/B.01/nehalem/g16/l502.exe)
 Keep R1 ints in memory in canonical form, NReq=34106874.
 FoFCou: FMM=F IPFlag=           0 FMFlag=           0 FMFlg1=           0
         NFxFlg=           0 DoJE=F BraDBF=F KetDBF=F FulRan=T
         wScrn=  0.000000 ICntrl=       600 IOpCl=  0 I1Cent=           0 NGrid=           0
         NMat0=    1 NMatS0=   7260 NMatT0=    0 NMatD0=    1 NMtDS0=    0 NMtDT0=    0
 Symmetry not used in FoFCou.
 Two-electron integral symmetry not used.
 Closed shell SCF:
 Using DIIS extrapolation, IDIIS=  1040.
 NGot=   268435456 LenX=   242036732 LenY=   242016691
 Requested convergence on RMS density matrix=1.00D-08 within 128 cycles.
 Requested convergence on MAX density matrix=1.00D-06.
 Requested convergence on             energy=1.00D-06.
 No special actions if energy rises.

 Cycle   1  Pass 1  IDiag  1:
 E= -189.388019550207    
 DIIS: error= 1.20D-03 at cycle   1 NSaved=   1.
 NSaved= 1 IEnMin= 1 EnMin= -189.388019550207     IErMin= 1 ErrMin= 1.20D-03
 ErrMax= 1.20D-03  0.00D+00 EMaxC= 1.00D-01 BMatC= 8.28D-05 BMatP= 8.28D-05
 IDIUse=3 WtCom= 9.88D-01 WtEn= 1.20D-02
 Coeff-Com:  0.100D+01
 Coeff-En:   0.100D+01
 Coeff:      0.100D+01
 Gap=     1.474 Goal=   None    Shift=    0.000
 GapD=    1.474 DampG=2.000 DampE=1.000 DampFc=2.0000 IDamp=-1.
 RMSDP=1.06D-04 MaxDP=2.52D-03              OVMax= 2.97D-03

 Cycle   2  Pass 1  IDiag  1:
 E= -189.388068048651     Delta-E=       -0.000048498444 Rises=F Damp=F
 DIIS: error= 6.90D-04 at cycle   2 NSaved=   2.
 NSaved= 2 IEnMin= 2 EnMin= -189.388068048651     IErMin= 2 ErrMin= 6.90D-04
 ErrMax= 6.90D-04  0.00D+00 EMaxC= 1.00D-01 BMatC= 3.27D-05 BMatP= 8.28D-05
 IDIUse=3 WtCom= 9.93D-01 WtEn= 6.90D-03
 Coeff-Com:  0.344D+00 0.656D+00
 Coeff-En:   0.000D+00 0.100D+01
 Coeff:      0.342D+00 0.658D+00
 Gap=     0.305 Goal=   None    Shift=    0.000
 RMSDP=6.51D-05 MaxDP=1.97D-03 DE=-4.85D-05 OVMax= 2.01D-03

 Cycle   3  Pass 1  IDiag  1:
 E= -189.388079234852     Delta-E=       -0.000011186201 Rises=F Damp=F
 DIIS: error= 4.89D-04 at cycle   3 NSaved=   3.
 NSaved= 3 IEnMin= 3 EnMin= -189.388079234852     IErMin= 3 ErrMin= 4.89D-04
 ErrMax= 4.89D-04  0.00D+00 EMaxC= 1.00D-01 BMatC= 1.61D-05 BMatP= 3.27D-05
 IDIUse=3 WtCom= 9.95D-01 WtEn= 4.89D-03
 Coeff-Com:  0.372D-01 0.406D+00 0.557D+00
 Coeff-En:   0.000D+00 0.365D+00 0.635D+00
 Coeff:      0.370D-01 0.406D+00 0.557D+00
 Gap=     0.305 Goal=   None    Shift=    0.000
 RMSDP=2.11D-05 MaxDP=3.72D-04 DE=-1.12D-05 OVMax= 9.85D-04

 Cycle   4  Pass 1  IDiag  1:
 E= -189.388092048168     Delta-E=       -0.000012813316 Rises=F Damp=F
 DIIS: error= 7.85D-05 at cycle   4 NSaved=   4.
 NSaved= 4 IEnMin= 4 EnMin= -189.388092048168     IErMin= 4 ErrMin= 7.85D-05
 ErrMax= 7.85D-05  0.00D+00 EMaxC= 1.00D-01 BMatC= 2.80D-07 BMatP= 1.61D-05
 IDIUse=1 WtCom= 1.00D+00 WtEn= 0.00D+00
 Coeff-Com: -0.197D-01 0.121D-01 0.122D+00 0.885D+00
 Coeff:     -0.197D-01 0.121D-01 0.122D+00 0.885D+00
 Gap=     0.305 Goal=   None    Shift=    0.000
 RMSDP=9.05D-06 MaxDP=2.85D-04 DE=-1.28D-05 OVMax= 1.89D-04

 Cycle   5  Pass 1  IDiag  1:
 E= -189.388092297738     Delta-E=       -0.000000249569 Rises=F Damp=F
 DIIS: error= 2.62D-05 at cycle   5 NSaved=   5.
 NSaved= 5 IEnMin= 5 EnMin= -189.388092297738     IErMin= 5 ErrMin= 2.62D-05
 ErrMax= 2.62D-05  0.00D+00 EMaxC= 1.00D-01 BMatC= 4.87D-08 BMatP= 2.80D-07
 IDIUse=1 WtCom= 1.00D+00 WtEn= 0.00D+00
 Coeff-Com: -0.710D-02-0.119D-01 0.264D-01 0.397D+00 0.595D+00
 Coeff:     -0.710D-02-0.119D-01 0.264D-01 0.397D+00 0.595D+00
 Gap=     0.305 Goal=   None    Shift=    0.000
 RMSDP=2.01D-06 MaxDP=3.49D-05 DE=-2.50D-07 OVMax= 1.64D-04

 Cycle   6  Pass 1  IDiag  1:
 E= -189.388092332708     Delta-E=       -0.000000034971 Rises=F Damp=F
 DIIS: error= 1.77D-05 at cycle   6 NSaved=   6.
 NSaved= 6 IEnMin= 6 EnMin= -189.388092332708     IErMin= 6 ErrMin= 1.77D-05
 ErrMax= 1.77D-05  0.00D+00 EMaxC= 1.00D-01 BMatC= 2.10D-08 BMatP= 4.87D-08
 IDIUse=1 WtCom= 1.00D+00 WtEn= 0.00D+00
 Coeff-Com: -0.623D-03-0.118D-01-0.166D-01 0.375D-01 0.416D+00 0.575D+00
 Coeff:     -0.623D-03-0.118D-01-0.166D-01 0.375D-01 0.416D+00 0.575D+00
 Gap=     0.305 Goal=   None    Shift=    0.000
 RMSDP=1.96D-06 MaxDP=5.58D-05 DE=-3.50D-08 OVMax= 5.40D-05

 Cycle   7  Pass 1  IDiag  1:
 E= -189.388092353419     Delta-E=       -0.000000020711 Rises=F Damp=F
 DIIS: error= 1.83D-06 at cycle   7 NSaved=   7.
 NSaved= 7 IEnMin= 7 EnMin= -189.388092353419     IErMin= 7 ErrMin= 1.83D-06
 ErrMax= 1.83D-06  0.00D+00 EMaxC= 1.00D-01 BMatC= 3.00D-10 BMatP= 2.10D-08
 IDIUse=1 WtCom= 1.00D+00 WtEn= 0.00D+00
 Coeff-Com:  0.353D-03-0.286D-02-0.869D-02-0.225D-01 0.930D-01 0.156D+00
 Coeff-Com:  0.785D+00
 Coeff:      0.353D-03-0.286D-02-0.869D-02-0.225D-01 0.930D-01 0.156D+00
 Coeff:      0.785D+00
 Gap=     0.305 Goal=   None    Shift=    0.000
 RMSDP=1.80D-07 MaxDP=5.82D-06 DE=-2.07D-08 OVMax= 5.31D-06

 Cycle   8  Pass 1  IDiag  1:
 E= -189.388092353681     Delta-E=       -0.000000000262 Rises=F Damp=F
 DIIS: error= 7.94D-07 at cycle   8 NSaved=   8.
 NSaved= 8 IEnMin= 8 EnMin= -189.388092353681     IErMin= 8 ErrMin= 7.94D-07
 ErrMax= 7.94D-07  0.00D+00 EMaxC= 1.00D-01 BMatC= 5.44D-11 BMatP= 3.00D-10
 IDIUse=1 WtCom= 1.00D+00 WtEn= 0.00D+00
 Coeff-Com:  0.213D-03-0.195D-03-0.256D-02-0.127D-01 0.852D-02 0.189D-01
 Coeff-Com:  0.352D+00 0.636D+00
 Coeff:      0.213D-03-0.195D-03-0.256D-02-0.127D-01 0.852D-02 0.189D-01
 Coeff:      0.352D+00 0.636D+00
 Gap=     0.305 Goal=   None    Shift=    0.000
 RMSDP=4.15D-08 MaxDP=7.56D-07 DE=-2.62D-10 OVMax= 2.14D-06

 Cycle   9  Pass 1  IDiag  1:
 E= -189.388092353726     Delta-E=       -0.000000000044 Rises=F Damp=F
 DIIS: error= 1.48D-07 at cycle   9 NSaved=   9.
 NSaved= 9 IEnMin= 9 EnMin= -189.388092353726     IErMin= 9 ErrMin= 1.48D-07
 ErrMax= 1.48D-07  0.00D+00 EMaxC= 1.00D-01 BMatC= 1.34D-12 BMatP= 5.44D-11
 IDIUse=1 WtCom= 1.00D+00 WtEn= 0.00D+00
 Coeff-Com: -0.958D-05 0.302D-03 0.373D-03 0.319D-03-0.646D-02-0.139D-01
 Coeff-Com: -0.115D-01 0.506D-01 0.980D+00
 Coeff:     -0.958D-05 0.302D-03 0.373D-03 0.319D-03-0.646D-02-0.139D-01
 Coeff:     -0.115D-01 0.506D-01 0.980D+00
 Gap=     0.305 Goal=   None    Shift=    0.000
 RMSDP=1.21D-08 MaxDP=2.37D-07 DE=-4.44D-11 OVMax= 3.00D-07

 Cycle  10  Pass 1  IDiag  1:
 E= -189.388092353726     Delta-E=       -0.000000000001 Rises=F Damp=F
 DIIS: error= 1.25D-08 at cycle  10 NSaved=  10.
 NSaved=10 IEnMin=10 EnMin= -189.388092353726     IErMin=10 ErrMin= 1.25D-08
 ErrMax= 1.25D-08  0.00D+00 EMaxC= 1.00D-01 BMatC= 1.08D-14 BMatP= 1.34D-12
 IDIUse=1 WtCom= 1.00D+00 WtEn= 0.00D+00
 Coeff-Com: -0.271D-05-0.678D-05 0.373D-04 0.218D-03-0.212D-04 0.361D-03
 Coeff-Com: -0.407D-02-0.163D-01-0.180D-01 0.104D+01
 Coeff:     -0.271D-05-0.678D-05 0.373D-04 0.218D-03-0.212D-04 0.361D-03
 Coeff:     -0.407D-02-0.163D-01-0.180D-01 0.104D+01
 Gap=     0.305 Goal=   None    Shift=    0.000
 RMSDP=3.67D-09 MaxDP=1.21D-07 DE=-7.39D-13 OVMax= 5.36D-08

 SCF Done:  E(RM062X) =  -189.388092354     A.U. after   10 cycles
            NFock= 10  Conv=0.37D-08     -V/T= 2.0051
 KE= 1.884187556108D+02 PE=-5.952875823909D+02 EE= 1.407453184489D+02
 Leave Link  502 at Fri Oct  2 16:09:23 2020, MaxMem=   268435456 cpu:             107.7 elap:              17.4
 (Enter /applis/site/cecic/gaussian16/B.01/nehalem/g16/l701.exe)
 ... and contract with generalized density number  0.
 Compute integral first derivatives.
 Leave Link  701 at Fri Oct  2 16:09:25 2020, MaxMem=   268435456 cpu:               1.2 elap:               0.2
 (Enter /applis/site/cecic/gaussian16/B.01/nehalem/g16/l702.exe)
 L702 exits ... SP integral derivatives will be done elsewhere.
 Leave Link  702 at Fri Oct  2 16:09:25 2020, MaxMem=   268435456 cpu:               0.4 elap:               0.1
 (Enter /applis/site/cecic/gaussian16/B.01/nehalem/g16/l703.exe)
 Integral derivatives from FoFJK, PRISM(SPDF).
 Compute integral first derivatives, UseDBF=F ICtDFT=           0.
 Calling FoFJK, ICntrl=      2127 FMM=F ISym2X=0 I1Cent= 0 IOpClX= 0 NMat=1 NMatS=1 NMatT=0.
 FoFJK:  IHMeth= 1 ICntrl=    2127 DoSepK=F KAlg= 0 I1Cent=           0 FoldK=F
 IRaf=         0 NMat=       1 IRICut=       1 DoRegI=T DoRafI=F ISym2E= 0 IDoP0=0 IntGTp=1.
 FoFCou: FMM=F IPFlag=           0 FMFlag=      100000 FMFlg1=         800
         NFxFlg=           0 DoJE=F BraDBF=F KetDBF=F FulRan=T
         wScrn=  0.000000 ICntrl=      2127 IOpCl=  0 I1Cent=           0 NGrid=           0
         NMat0=    1 NMatS0=      1 NMatT0=    0 NMatD0=    1 NMtDS0=    0 NMtDT0=    0
 Symmetry not used in FoFCou.
 Leave Link  703 at Fri Oct  2 16:09:26 2020, MaxMem=   268435456 cpu:              10.1 elap:               1.4
 (Enter /applis/site/cecic/gaussian16/B.01/nehalem/g16/l716.exe)
 Dipole        = 3.59178573D-10-1.15728205D-10 9.19572055D-01
 -------------------------------------------------------------------
 Center     Atomic                   Forces (Hartrees/Bohr)
 Number     Number              X              Y              Z
 -------------------------------------------------------------------
      1        6          -0.000000000    0.000000000    0.000405599
      2        6           0.000000000   -0.000000000   -0.001237357
      3        6          -0.000000000    0.000000000    0.000746343
      4        8           0.000000000   -0.000000000    0.000085415
 -------------------------------------------------------------------
 Cartesian Forces:  Max     0.001237357 RMS     0.000433963
 Leave Link  716 at Fri Oct  2 16:09:27 2020, MaxMem=   268435456 cpu:               0.6 elap:               0.2
 (Enter /applis/site/cecic/gaussian16/B.01/nehalem/g16/l103.exe)

 GradGradGradGradGradGradGradGradGradGradGradGradGradGradGradGradGradGrad
 Berny optimization.
 Using GEDIIS/GDIIS optimizer.
 FormGI is forming the generalized inverse of G from B-inverse, IUseBI=4.
 Internal  Forces:  Max     0.000831758 RMS     0.000351248
 Search for a local minimum.
 Step number   3 out of a maximum of  100
 All quantities printed in internal units (Hartrees-Bohrs-Radians)
 RMS Force = .35125D-03 SwitMx=.10000D-02 MixMth= 2
 Mixed Optimization -- En-DIIS/RFO-DIIS
 Update second derivatives using D2CorX and points    1    2    3
 DE= -1.34D-04 DEPred=-1.46D-04 R= 9.15D-01
 TightC=F SS=  1.41D+00  RLast= 1.71D-02 DXNew= 5.0665D-01 5.1362D-02
 Trust test= 9.15D-01 RLast= 1.71D-02 DXMaxT set to 3.01D-01
 The second derivative matrix:
                          R1        R2        R3        A1        A2
           R1           0.71985
           R2           0.02317   0.67447
           R3          -0.00533   0.05782   1.14330
           A1           0.00000  -0.00000   0.00000   0.03661
           A2          -0.00000   0.00000  -0.00000  -0.00000   0.04387
           A3           0.00000  -0.00000   0.00000   0.00000  -0.00000
           A4          -0.00000   0.00000  -0.00000  -0.00000   0.00000
                          A3        A4
           A3           0.03661
           A4          -0.00000   0.04387
 ITU=  1  1  0
 Use linear search instead of GDIIS.
     Eigenvalues ---    0.03661   0.03661   0.04387   0.04387   0.65835
     Eigenvalues ---    0.72892   1.15034
 RFO step:  Lambda=-8.37252860D-07 EMin= 3.66117802D-02
 Quartic linear search produced a step of  0.04229.
 Iteration  1 RMS(Cart)=  0.00039435 RMS(Int)=  0.00000000
 Iteration  2 RMS(Cart)=  0.00000000 RMS(Int)=  0.00000001
 ITry= 1 IFail=0 DXMaxC= 7.77D-04 DCOld= 1.00D+10 DXMaxT= 3.01D-01 DXLimC= 3.00D+00 Rises=F
 Variable       Old X    -DE/DX   Delta X   Delta X   Delta X     New X
                                 (Linear)    (Quad)   (Total)
    R1        2.38825  -0.00041  -0.00023  -0.00037  -0.00060   2.38765
    R2        2.45370   0.00083   0.00047   0.00078   0.00125   2.45495
    R3        2.15457   0.00009  -0.00050   0.00051   0.00001   2.15458
    A1        3.14159   0.00000   0.00000   0.00000   0.00000   3.14159
    A2        3.14159  -0.00000   0.00000  -0.00000  -0.00000   3.14159
    A3        3.14159   0.00000   0.00000   0.00000   0.00000   3.14159
    A4        3.14159  -0.00000   0.00000  -0.00000  -0.00000   3.14159
         Item               Value     Threshold  Converged?
 Maximum Force            0.000832     0.000450     NO 
 RMS     Force            0.000351     0.000300     NO 
 Maximum Displacement     0.000777     0.001800     YES
 RMS     Displacement     0.000394     0.001200     YES
 Predicted change in Energy=-6.439629D-07
 Lowest energy point so far.  Saving SCF results.
 GradGradGradGradGradGradGradGradGradGradGradGradGradGradGradGradGradGrad

 Leave Link  103 at Fri Oct  2 16:09:28 2020, MaxMem=   268435456 cpu:               0.7 elap:               0.2
 (Enter /applis/site/cecic/gaussian16/B.01/nehalem/g16/l202.exe)
                          Input orientation:                          
 ---------------------------------------------------------------------
 Center     Atomic      Atomic             Coordinates (Angstroms)
 Number     Number       Type             X           Y           Z
 ---------------------------------------------------------------------
      1          6           0        0.000000   -0.000000    0.018279
      2          6           0       -0.000000    0.000000    1.281766
      3          6           0       -0.000000    0.000000    2.580871
      4          8           0        0.000000   -0.000000    3.721024
 ---------------------------------------------------------------------
                    Distance matrix (angstroms):
                    1          2          3          4
     1  C    0.000000
     2  C    1.263488   0.000000
     3  C    2.562592   1.299104   0.000000
     4  O    3.702746   2.439258   1.140154   0.000000
 Symmetry turned off by external request.
 Stoichiometry    C3O
 Framework group  C*V[C*(CCCO)]
 Deg. of freedom     3
 Full point group                 C*V     NOp   4
 Rotational constants (GHZ):           0.0000000           4.8289119           4.8289119
 Leave Link  202 at Fri Oct  2 16:09:28 2020, MaxMem=   268435456 cpu:               0.5 elap:               0.1
 (Enter /applis/site/cecic/gaussian16/B.01/nehalem/g16/l301.exe)
 Standard basis: CC-pVTZ (5D, 7F)
 Ernie: Thresh=  0.10000D-02 Tol=  0.10000D-05 Strict=F.
 Ernie:  12 primitive shells out of 104 were deleted.
   120 basis functions,   208 primitive gaussians,   140 cartesian basis functions
    13 alpha electrons       13 beta electrons
       nuclear repulsion energy        76.7271446879 Hartrees.
 IExCor= 4336 DFT=T Ex+Corr=M062X ExCW=0 ScaHFX=  0.540000
 ScaDFX=  1.000000  1.000000  1.000000  1.000000 ScalE2=  1.000000  1.000000
 IRadAn=      5 IRanWt=     -1 IRanGd=            0 ICorTp=0 IEmpDi=  4
 NAtoms=    4 NActive=    4 NUniq=    4 SFac= 1.00D+00 NAtFMM=   60 NAOKFM=F Big=F
 Integral buffers will be    131072 words long.
 Raffenetti 2 integral format.
 Two-electron integral symmetry is turned off.
 Leave Link  301 at Fri Oct  2 16:09:28 2020, MaxMem=   268435456 cpu:               0.6 elap:               0.1
 (Enter /applis/site/cecic/gaussian16/B.01/nehalem/g16/l302.exe)
 NPDir=0 NMtPBC=     1 NCelOv=     1 NCel=       1 NClECP=     1 NCelD=      1
         NCelK=      1 NCelE2=     1 NClLst=     1 CellRange=     0.0.
 One-electron integrals computed using PRISM.
 NBasis=   120 RedAO= T EigKep=  1.25D-04  NBF=   120
 NBsUse=   120 1.00D-06 EigRej= -1.00D+00 NBFU=   120
 Precomputing XC quadrature grid using
 IXCGrd= 4 IRadAn=           5 IRanWt=          -1 IRanGd=           0 AccXCQ= 0.00D+00.
 Generated NRdTot=       0 NPtTot=           0 NUsed=           0 NTot=          32
 NSgBfM=   140   140   140   140   140 MxSgAt=     4 MxSgA2=     4.
 Leave Link  302 at Fri Oct  2 16:09:28 2020, MaxMem=   268435456 cpu:               1.3 elap:               0.2
 (Enter /applis/site/cecic/gaussian16/B.01/nehalem/g16/l303.exe)
 DipDrv:  MaxL=1.
 Leave Link  303 at Fri Oct  2 16:09:28 2020, MaxMem=   268435456 cpu:               0.5 elap:               0.2
 (Enter /applis/site/cecic/gaussian16/B.01/nehalem/g16/l401.exe)
 Initial guess from the checkpoint file:  "input.chk"
 B after Tr=    -0.000000    0.000000    0.000037
         Rot=    1.000000   -0.000000   -0.000000    0.000000 Ang=   0.00 deg.
 Guess basis will be translated and rotated to current coordinates.
 JPrj=2 DoOrth=T DoCkMO=T.
 Leave Link  401 at Fri Oct  2 16:09:29 2020, MaxMem=   268435456 cpu:               1.1 elap:               0.2
 (Enter /applis/site/cecic/gaussian16/B.01/nehalem/g16/l502.exe)
 Keep R1 ints in memory in canonical form, NReq=34106874.
 FoFCou: FMM=F IPFlag=           0 FMFlag=           0 FMFlg1=           0
         NFxFlg=           0 DoJE=F BraDBF=F KetDBF=F FulRan=T
         wScrn=  0.000000 ICntrl=       600 IOpCl=  0 I1Cent=           0 NGrid=           0
         NMat0=    1 NMatS0=   7260 NMatT0=    0 NMatD0=    1 NMtDS0=    0 NMtDT0=    0
 Symmetry not used in FoFCou.
 Two-electron integral symmetry not used.
 Closed shell SCF:
 Using DIIS extrapolation, IDIIS=  1040.
 NGot=   268435456 LenX=   242036732 LenY=   242016691
 Requested convergence on RMS density matrix=1.00D-08 within 128 cycles.
 Requested convergence on MAX density matrix=1.00D-06.
 Requested convergence on             energy=1.00D-06.
 No special actions if energy rises.

 Cycle   1  Pass 1  IDiag  1:
 E= -189.388092710292    
 DIIS: error= 7.18D-05 at cycle   1 NSaved=   1.
 NSaved= 1 IEnMin= 1 EnMin= -189.388092710292     IErMin= 1 ErrMin= 7.18D-05
 ErrMax= 7.18D-05  0.00D+00 EMaxC= 1.00D-01 BMatC= 3.92D-07 BMatP= 3.92D-07
 IDIUse=1 WtCom= 1.00D+00 WtEn= 0.00D+00
 Coeff-Com:  0.100D+01
 Coeff:      0.100D+01
 Gap=     1.476 Goal=   None    Shift=    0.000
 RMSDP=9.47D-06 MaxDP=3.12D-04              OVMax= 2.65D-04

 Cycle   2  Pass 1  IDiag  1:
 E= -189.388092797960     Delta-E=       -0.000000087667 Rises=F Damp=F
 DIIS: error= 7.32D-05 at cycle   2 NSaved=   2.
 NSaved= 2 IEnMin= 2 EnMin= -189.388092797960     IErMin= 1 ErrMin= 7.18D-05
 ErrMax= 7.32D-05  0.00D+00 EMaxC= 1.00D-01 BMatC= 1.89D-07 BMatP= 3.92D-07
 IDIUse=1 WtCom= 1.00D+00 WtEn= 0.00D+00
 Coeff-Com:  0.372D+00 0.628D+00
 Coeff:      0.372D+00 0.628D+00
 Gap=     0.305 Goal=   None    Shift=    0.000
 RMSDP=6.13D-06 MaxDP=1.66D-04 DE=-8.77D-08 OVMax= 2.71D-04

 Cycle   3  Pass 1  IDiag  1:
 E= -189.388092874904     Delta-E=       -0.000000076944 Rises=F Damp=F
 DIIS: error= 5.06D-05 at cycle   3 NSaved=   3.
 NSaved= 3 IEnMin= 3 EnMin= -189.388092874904     IErMin= 3 ErrMin= 5.06D-05
 ErrMax= 5.06D-05  0.00D+00 EMaxC= 1.00D-01 BMatC= 9.46D-08 BMatP= 1.89D-07
 IDIUse=1 WtCom= 1.00D+00 WtEn= 0.00D+00
 Coeff-Com:  0.155D-01 0.411D+00 0.574D+00
 Coeff:      0.155D-01 0.411D+00 0.574D+00
 Gap=     0.305 Goal=   None    Shift=    0.000
 RMSDP=2.40D-06 MaxDP=6.80D-05 DE=-7.69D-08 OVMax= 1.44D-04

 Cycle   4  Pass 1  IDiag  1:
 E= -189.388092975724     Delta-E=       -0.000000100820 Rises=F Damp=F
 DIIS: error= 5.29D-06 at cycle   4 NSaved=   4.
 NSaved= 4 IEnMin= 4 EnMin= -189.388092975724     IErMin= 4 ErrMin= 5.29D-06
 ErrMax= 5.29D-06  0.00D+00 EMaxC= 1.00D-01 BMatC= 2.04D-09 BMatP= 9.46D-08
 IDIUse=1 WtCom= 1.00D+00 WtEn= 0.00D+00
 Coeff-Com: -0.427D-02 0.119D+00 0.225D+00 0.660D+00
 Coeff:     -0.427D-02 0.119D+00 0.225D+00 0.660D+00
 Gap=     0.305 Goal=   None    Shift=    0.000
 RMSDP=7.29D-07 MaxDP=1.92D-05 DE=-1.01D-07 OVMax= 2.31D-05

 Cycle   5  Pass 1  IDiag  1:
 E= -189.388092977053     Delta-E=       -0.000000001329 Rises=F Damp=F
 DIIS: error= 4.06D-06 at cycle   5 NSaved=   5.
 NSaved= 5 IEnMin= 5 EnMin= -189.388092977053     IErMin= 5 ErrMin= 4.06D-06
 ErrMax= 4.06D-06  0.00D+00 EMaxC= 1.00D-01 BMatC= 9.75D-10 BMatP= 2.04D-09
 IDIUse=1 WtCom= 1.00D+00 WtEn= 0.00D+00
 Coeff-Com: -0.480D-02-0.462D-02 0.431D-01 0.441D+00 0.526D+00
 Coeff:     -0.480D-02-0.462D-02 0.431D-01 0.441D+00 0.526D+00
 Gap=     0.305 Goal=   None    Shift=    0.000
 DSYEVD-2 returned Info=         241 IAlg= 4 N=   120 NDim=   120 NE2=     2016804 trying  DSYEV.
 RMSDP=1.50D-07 MaxDP=2.76D-06 DE=-1.33D-09 OVMax= 9.22D-06

 Cycle   6  Pass 1  IDiag  1:
 E= -189.388092977780     Delta-E=       -0.000000000727 Rises=F Damp=F
 DIIS: error= 4.36D-07 at cycle   6 NSaved=   6.
 NSaved= 6 IEnMin= 6 EnMin= -189.388092977780     IErMin= 6 ErrMin= 4.36D-07
 ErrMax= 4.36D-07  0.00D+00 EMaxC= 1.00D-01 BMatC= 1.04D-11 BMatP= 9.75D-10
 IDIUse=1 WtCom= 1.00D+00 WtEn= 0.00D+00
 Coeff-Com:  0.124D-03-0.116D-01-0.127D-01-0.275D-01 0.482D-01 0.100D+01
 Coeff:      0.124D-03-0.116D-01-0.127D-01-0.275D-01 0.482D-01 0.100D+01
 Gap=     0.305 Goal=   None    Shift=    0.000
 RMSDP=1.01D-07 MaxDP=3.39D-06 DE=-7.27D-10 OVMax= 1.05D-06

 Cycle   7  Pass 1  IDiag  1:
 E= -189.388092977789     Delta-E=       -0.000000000009 Rises=F Damp=F
 DIIS: error= 1.19D-07 at cycle   7 NSaved=   7.
 NSaved= 7 IEnMin= 7 EnMin= -189.388092977789     IErMin= 7 ErrMin= 1.19D-07
 ErrMax= 1.19D-07  0.00D+00 EMaxC= 1.00D-01 BMatC= 1.27D-12 BMatP= 1.04D-11
 IDIUse=1 WtCom= 1.00D+00 WtEn= 0.00D+00
 Coeff-Com:  0.302D-03-0.476D-02-0.742D-02-0.325D-01 0.767D-04 0.461D+00
 Coeff-Com:  0.583D+00
 Coeff:      0.302D-03-0.476D-02-0.742D-02-0.325D-01 0.767D-04 0.461D+00
 Coeff:      0.583D+00
 Gap=     0.305 Goal=   None    Shift=    0.000
 RMSDP=8.83D-09 MaxDP=2.36D-07 DE=-9.04D-12 OVMax= 4.32D-07

 SCF Done:  E(RM062X) =  -189.388092978     A.U. after    7 cycles
            NFock=  7  Conv=0.88D-08     -V/T= 2.0052
 KE= 1.884174775608D+02 PE=-5.952691838524D+02 EE= 1.407364686259D+02
 Leave Link  502 at Fri Oct  2 16:09:31 2020, MaxMem=   268435456 cpu:              21.0 elap:               2.9
 (Enter /applis/site/cecic/gaussian16/B.01/nehalem/g16/l701.exe)
 ... and contract with generalized density number  0.
 Compute integral first derivatives.
 Leave Link  701 at Fri Oct  2 16:09:32 2020, MaxMem=   268435456 cpu:               1.3 elap:               0.2
 (Enter /applis/site/cecic/gaussian16/B.01/nehalem/g16/l702.exe)
 L702 exits ... SP integral derivatives will be done elsewhere.
 Leave Link  702 at Fri Oct  2 16:09:32 2020, MaxMem=   268435456 cpu:               0.2 elap:               0.1
 (Enter /applis/site/cecic/gaussian16/B.01/nehalem/g16/l703.exe)
 Integral derivatives from FoFJK, PRISM(SPDF).
 Compute integral first derivatives, UseDBF=F ICtDFT=           0.
 Calling FoFJK, ICntrl=      2127 FMM=F ISym2X=0 I1Cent= 0 IOpClX= 0 NMat=1 NMatS=1 NMatT=0.
 FoFJK:  IHMeth= 1 ICntrl=    2127 DoSepK=F KAlg= 0 I1Cent=           0 FoldK=F
 IRaf=         0 NMat=       1 IRICut=       1 DoRegI=T DoRafI=F ISym2E= 0 IDoP0=0 IntGTp=1.
 FoFCou: FMM=F IPFlag=           0 FMFlag=      100000 FMFlg1=         800
         NFxFlg=           0 DoJE=F BraDBF=F KetDBF=F FulRan=T
         wScrn=  0.000000 ICntrl=      2127 IOpCl=  0 I1Cent=           0 NGrid=           0
         NMat0=    1 NMatS0=      1 NMatT0=    0 NMatD0=    1 NMtDS0=    0 NMtDT0=    0
 Symmetry not used in FoFCou.
 Leave Link  703 at Fri Oct  2 16:09:33 2020, MaxMem=   268435456 cpu:               9.7 elap:               1.2
 (Enter /applis/site/cecic/gaussian16/B.01/nehalem/g16/l716.exe)
 Dipole        =-3.00768683D-09 9.87352596D-10 9.22239310D-01
 -------------------------------------------------------------------
 Center     Atomic                   Forces (Hartrees/Bohr)
 Number     Number              X              Y              Z
 -------------------------------------------------------------------
      1        6          -0.000000000    0.000000000   -0.000052126
      2        6          -0.000000000    0.000000000    0.000053330
      3        6           0.000000001   -0.000000000    0.000045825
      4        8          -0.000000000    0.000000000   -0.000047029
 -------------------------------------------------------------------
 Cartesian Forces:  Max     0.000053330 RMS     0.000028683
 Leave Link  716 at Fri Oct  2 16:09:33 2020, MaxMem=   268435456 cpu:               1.1 elap:               0.2
 (Enter /applis/site/cecic/gaussian16/B.01/nehalem/g16/l103.exe)

 GradGradGradGradGradGradGradGradGradGradGradGradGradGradGradGradGradGrad
 Berny optimization.
 Using GEDIIS/GDIIS optimizer.
 FormGI is forming the generalized inverse of G from B-inverse, IUseBI=4.
 Internal  Forces:  Max     0.000052126 RMS     0.000026539
 Search for a local minimum.
 Step number   4 out of a maximum of  100
 All quantities printed in internal units (Hartrees-Bohrs-Radians)
 RMS Force = .26539D-04 SwitMx=.10000D-02 MixMth= 2
 Mixed Optimization -- En-DIIS/RFO-DIIS
 Swapping is turned off.
 Update second derivatives using D2CorX and points    1    2    3    4
 DE= -6.24D-07 DEPred=-6.44D-07 R= 9.69D-01
 Trust test= 9.69D-01 RLast= 1.38D-03 DXMaxT set to 3.01D-01
 The second derivative matrix:
                          R1        R2        R3        A1        A2
           R1           0.74970
           R2          -0.00551   0.66443
           R3          -0.02739   0.08186   1.12449
           A1           0.00000  -0.00000  -0.00000   0.03661
           A2          -0.00000   0.00000  -0.00000   0.00000   0.04387
[...]
 ErrMax= 6.47D-06  0.00D+00 EMaxC= 1.00D-01 BMatC= 2.42D-09 BMatP= 2.43D-08
 IDIUse=1 WtCom= 1.00D+00 WtEn= 0.00D+00
 Coeff-Com: -0.141D-03 0.101D-02 0.220D-02 0.425D-02-0.356D-01-0.639D-01
 Coeff-Com:  0.251D+00 0.841D+00
 Coeff:     -0.141D-03 0.101D-02 0.220D-02 0.425D-02-0.356D-01-0.639D-01
 Coeff:      0.251D+00 0.841D+00
 Gap=     0.470 Goal=   None    Shift=    0.000
 DSYEVD-2 returned Info=         369 IAlg= 4 N=   184 NDim=   184 NE2=     1579235 trying  DSYEV.
 RMSDP=4.03D-07 MaxDP=2.56D-05 DE=-3.38D-08 OVMax= 3.74D-05

 Cycle   9  Pass 1  IDiag  1:
 E= -188.395010972169     Delta-E=       -0.000000003745 Rises=F Damp=F
 DIIS: error= 2.08D-06 at cycle   9 NSaved=   9.
 NSaved= 9 IEnMin= 9 EnMin= -188.395010972169     IErMin= 9 ErrMin= 2.08D-06
 ErrMax= 2.08D-06  0.00D+00 EMaxC= 1.00D-01 BMatC= 5.42D-10 BMatP= 2.42D-09
 IDIUse=1 WtCom= 1.00D+00 WtEn= 0.00D+00
 Coeff-Com:  0.144D-04-0.306D-03-0.128D-03 0.115D-02 0.746D-02-0.279D-01
 Coeff-Com: -0.100D+00 0.257D+00 0.863D+00
 Coeff:      0.144D-04-0.306D-03-0.128D-03 0.115D-02 0.746D-02-0.279D-01
 Coeff:     -0.100D+00 0.257D+00 0.863D+00
 Gap=     0.470 Goal=   None    Shift=    0.000
 DSYEVD-2 returned Info=         369 IAlg= 4 N=   184 NDim=   184 NE2=     1579235 trying  DSYEV.
 RMSDP=2.06D-07 MaxDP=8.61D-06 DE=-3.75D-09 OVMax= 8.54D-06

 Cycle  10  Pass 1  IDiag  1:
 E= -188.395010972819     Delta-E=       -0.000000000649 Rises=F Damp=F
 DIIS: error= 3.21D-07 at cycle  10 NSaved=  10.
 NSaved=10 IEnMin=10 EnMin= -188.395010972819     IErMin=10 ErrMin= 3.21D-07
 ErrMax= 3.21D-07  0.00D+00 EMaxC= 1.00D-01 BMatC= 9.76D-12 BMatP= 5.42D-10
 IDIUse=1 WtCom= 1.00D+00 WtEn= 0.00D+00
 Coeff-Com:  0.800D-05-0.461D-04-0.110D-03-0.464D-03 0.189D-02 0.656D-02
 Coeff-Com: -0.197D-02-0.764D-01-0.170D+00 0.124D+01
 Coeff:      0.800D-05-0.461D-04-0.110D-03-0.464D-03 0.189D-02 0.656D-02
 Coeff:     -0.197D-02-0.764D-01-0.170D+00 0.124D+01
 Gap=     0.470 Goal=   None    Shift=    0.000
 RMSDP=9.00D-08 MaxDP=4.48D-06 DE=-6.49D-10 OVMax= 1.95D-06

 Cycle  11  Pass 1  IDiag  1:
 E= -188.395010972842     Delta-E=       -0.000000000024 Rises=F Damp=F
 DIIS: error= 6.44D-08 at cycle  11 NSaved=  11.
 NSaved=11 IEnMin=11 EnMin= -188.395010972842     IErMin=11 ErrMin= 6.44D-08
 ErrMax= 6.44D-08  0.00D+00 EMaxC= 1.00D-01 BMatC= 3.25D-13 BMatP= 9.76D-12
 IDIUse=1 WtCom= 1.00D+00 WtEn= 0.00D+00
 Coeff-Com: -0.245D-05 0.223D-04 0.343D-04 0.670D-04-0.721D-03-0.958D-03
 Coeff-Com:  0.481D-02 0.112D-01-0.771D-04-0.276D+00 0.126D+01
 Coeff:     -0.245D-05 0.223D-04 0.343D-04 0.670D-04-0.721D-03-0.958D-03
 Coeff:      0.481D-02 0.112D-01-0.771D-04-0.276D+00 0.126D+01
 Gap=     0.470 Goal=   None    Shift=    0.000
 RMSDP=1.15D-08 MaxDP=5.88D-07 DE=-2.39D-11 OVMax= 3.78D-07

 Cycle  12  Pass 1  IDiag  1:
 E= -188.395010972842     Delta-E=        0.000000000001 Rises=F Damp=F
 DIIS: error= 9.77D-09 at cycle  12 NSaved=  12.
 NSaved=12 IEnMin=11 EnMin= -188.395010972842     IErMin=12 ErrMin= 9.77D-09
 ErrMax= 9.77D-09  0.00D+00 EMaxC= 1.00D-01 BMatC= 6.85D-15 BMatP= 3.25D-13
 IDIUse=1 WtCom= 1.00D+00 WtEn= 0.00D+00
 Coeff-Com:  0.362D-06-0.401D-05-0.565D-05-0.124D-05 0.117D-03 0.271D-04
 Coeff-Com: -0.923D-03-0.713D-03 0.322D-02 0.391D-01-0.325D+00 0.128D+01
 Coeff:      0.362D-06-0.401D-05-0.565D-05-0.124D-05 0.117D-03 0.271D-04
 Coeff:     -0.923D-03-0.713D-03 0.322D-02 0.391D-01-0.325D+00 0.128D+01
 Gap=     0.470 Goal=   None    Shift=    0.000
 RMSDP=3.85D-09 MaxDP=2.23D-07 DE= 8.53D-13 OVMax= 6.94D-08

 SCF Done:  E(RHF) =  -188.395010973     A.U. after   12 cycles
            NFock= 12  Conv=0.38D-08     -V/T= 2.0015
 KE= 1.881191896721D+02 PE=-5.945596088464D+02 EE= 1.413182635136D+02
 Leave Link  502 at Fri Oct  2 16:10:58 2020, MaxMem=   327680000 cpu:              94.6 elap:              13.4
 (Enter /applis/site/cecic/gaussian16/B.01/nehalem/g16/l801.exe)
 Windowed orbitals will be sorted by symmetry type.
 ExpMin= 3.57D-02 ExpMax= 1.53D+04 ExpMxC= 5.22D+02 IAcc=3 IRadAn=         5 AccDes= 0.00D+00
 HarFok:  IExCor=  205 AccDes= 0.00D+00 IRadAn=         5 IDoV=-2 UseB2=F ITyADJ=14
 ICtDFT= 12500011 ScaDFX=  1.000000  1.000000  1.000000  1.000000
 Largest valence mixing into a core orbital is  2.31D-04
 Largest core mixing into a valence orbital is  4.00D-05
 Range of M.O.s used for correlation:     5   184
 NBasis=   184 NAE=    13 NBE=    13 NFC=     4 NFV=     0
 NROrb=    180 NOA=     9 NOB=     9 NVA=   171 NVB=   171

 **** Warning!!: The largest alpha MO coefficient is  0.72501579D+02

 Leave Link  801 at Fri Oct  2 16:10:58 2020, MaxMem=   327680000 cpu:               1.0 elap:               0.2
 (Enter /applis/site/cecic/gaussian16/B.01/nehalem/g16/l804.exe)
 Closed-shell transformation, MDV=   327680000 ITran=4 ISComp=1.
 Unit  1 TFree=       1132745 TCopy=        703392.
 Semi-Direct transformation.
 ModeAB=           2 MOrb=             9 LenV=     326703837
 LASXX=     25317216 LTotXX=    25317216 LenRXX=    25317216
 LTotAB=    25734105 MaxLAS=    39382200 LenRXY=    39382200
 NonZer=    50634432 LenScr=    76414976 LnRSAI=           0
 LnScr1=           0 LExtra=           0 Total=    141114392
 MaxDsk=          -1 SrtSym=           F ITran=            4
 DoSDTr:  NPSUse=  8
 JobTyp=0 Pass  1:  I=   1 to   9.
 (rs|ai) integrals will be sorted in core.
 Complete sort for first half transformation.
 First half transformation complete.
 Complete sort for second half transformation.
 Second half transformation complete.
 SymMOI:  orbitals are not symmetric.
 Spin components of T(2) and E(2):
     alpha-alpha T2 =       0.3167741090D-01 E2=     -0.8608051195D-01
     alpha-beta  T2 =       0.1680725144D+00 E2=     -0.4877292835D+00
     beta-beta   T2 =       0.3167741090D-01 E2=     -0.8608051195D-01
 ANorm=    0.1109696957D+01
 E2 =    -0.6598903074D+00 EUMP2 =    -0.18905490128022D+03
 Leave Link  804 at Fri Oct  2 16:11:11 2020, MaxMem=   327680000 cpu:              95.1 elap:              12.5
 (Enter /applis/site/cecic/gaussian16/B.01/nehalem/g16/l913.exe)
 CIDS:  MDV=   327680000.
 Frozen-core window:  NFC=   4 NFV=   0.
 IFCWin=0 IBDFC=1 NFBD=     0     0 NFCmp=     0     0 NFFFC=     0     0
 Using DD3R+UMP44R for 1st iteration.
 Using DD4RQ for 2nd and later iterations.
 Keep R2 and R3 ints in memory in symmetry-blocked form, NReq=181807015.
 FoFCou: FMM=F IPFlag=           0 FMFlag=           0 FMFlg1=           0
         NFxFlg=           0 DoJE=F BraDBF=F KetDBF=F FulRan=T
         wScrn=  0.000000 ICntrl=       600 IOpCl=  0 I1Cent=           0 NGrid=           0
         NMat0=    1 NMatS0=  17020 NMatT0=    0 NMatD0=    1 NMtDS0=    0 NMtDT0=    0
 Petite list used in FoFCou.
 CIDS: In Core Option IDoMem=           1.
 CCSD(T)
 =======
 Iterations=  50 Convergence= 0.100D-06
 Produce multiple copies of IABC intergrals
 Iteration Nr.   1
 **********************
 DD1Dir will call FoFMem   1 times, MxPair=        90
 NAB=    45 NAA=     0 NBB=     0.
 MP4(R+Q)=  0.23499532D-01
 Maximum subspace dimension=  5
 A-vector RMS=  4.3519209D-03 Max=  3.0926576D-02 conv= 1.00D-05.
 RLE energy=       -0.6260567836
 E3=        0.11173902D-01        EUMP3=      -0.18904372738D+03
 E4(DQ)=    0.38217935D-02        UMP4(DQ)=   -0.18903990558D+03
 E4(SDQ)=  -0.97238616D-02        UMP4(SDQ)=  -0.18905345124D+03
 VARIATIONAL ENERGIES WITH THE FIRST-ORDER WAVEFUNCTION:
 DE(Corr)= -0.62422975     E(Corr)=     -189.01924072    
 NORM(A)=   0.11003852D+01
 Iteration Nr.   2
 **********************
 DD1Dir will call FoFMem   1 times, MxPair=        90
 NAB=    45 NAA=     0 NBB=     0.
 A-vector RMS=  8.5872696D-04 Max=  1.1462455D-02 conv= 1.00D-05.
 RLE energy=       -0.6529799655
 DE(Corr)= -0.65569785     E(CORR)=     -189.05070882     Delta=-3.15D-02
 NORM(A)=   0.11119216D+01
 Iteration Nr.   3
 **********************
 DD1Dir will call FoFMem   1 times, MxPair=        90
 NAB=    45 NAA=     0 NBB=     0.
 A-vector RMS=  9.2815424D-04 Max=  8.4745628D-03 conv= 1.00D-05.
 RLE energy=       -0.6545468046
 DE(Corr)= -0.65149213     E(CORR)=     -189.04650310     Delta= 4.21D-03
 NORM(A)=   0.11156307D+01
 Iteration Nr.   4
 **********************
 DD1Dir will call FoFMem   1 times, MxPair=        90
 NAB=    45 NAA=     0 NBB=     0.
 A-vector RMS=  1.8565552D-04 Max=  1.1124315D-03 conv= 1.00D-05.
 RLE energy=       -0.6546209550
 DE(Corr)= -0.65440422     E(CORR)=     -189.04941519     Delta=-2.91D-03
 NORM(A)=   0.11167193D+01
 Iteration Nr.   5
 **********************
 DD1Dir will call FoFMem   1 times, MxPair=        90
 NAB=    45 NAA=     0 NBB=     0.
 A-vector RMS=  1.2538120D-04 Max=  1.1420441D-03 conv= 1.00D-05.
 RLE energy=       -0.6547640011
 DE(Corr)= -0.65473676     E(CORR)=     -189.04974773     Delta=-3.33D-04
 NORM(A)=   0.11172107D+01
 Iteration Nr.   6
 **********************
 DD1Dir will call FoFMem   1 times, MxPair=        90
 NAB=    45 NAA=     0 NBB=     0.
 A-vector RMS=  2.6155311D-05 Max=  1.8568507D-04 conv= 1.00D-05.
 RLE energy=       -0.6548269649
 DE(Corr)= -0.65477384     E(CORR)=     -189.04978481     Delta=-3.71D-05
 NORM(A)=   0.11173150D+01
 Iteration Nr.   7
 **********************
 DD1Dir will call FoFMem   1 times, MxPair=        90
 NAB=    45 NAA=     0 NBB=     0.
 A-vector RMS=  1.7453023D-05 Max=  2.0022877D-04 conv= 1.00D-05.
 RLE energy=       -0.6547543567
 DE(Corr)= -0.65477138     E(CORR)=     -189.04978236     Delta= 2.45D-06
 NORM(A)=   0.11173139D+01
 Iteration Nr.   8
 **********************
 DD1Dir will call FoFMem   1 times, MxPair=        90
 NAB=    45 NAA=     0 NBB=     0.
 A-vector RMS=  5.9726922D-06 Max=  4.6575515D-05 conv= 1.00D-05.
 RLE energy=       -0.6547794834
 DE(Corr)= -0.65478315     E(CORR)=     -189.04979413     Delta=-1.18D-05
 NORM(A)=   0.11173197D+01
 Iteration Nr.   9
 **********************
 DD1Dir will call FoFMem   1 times, MxPair=        90
 NAB=    45 NAA=     0 NBB=     0.
 A-vector RMS=  2.8029845D-06 Max=  3.0536484D-05 conv= 1.00D-05.
 RLE energy=       -0.6547729299
 DE(Corr)= -0.65477263     E(CORR)=     -189.04978360     Delta= 1.05D-05
 NORM(A)=   0.11173196D+01
 Iteration Nr.  10
 **********************
 DD1Dir will call FoFMem   1 times, MxPair=        90
 NAB=    45 NAA=     0 NBB=     0.
 A-vector RMS=  9.8935863D-07 Max=  9.2493938D-06 conv= 1.00D-05.
 RLE energy=       -0.6547764702
 DE(Corr)= -0.65477720     E(CORR)=     -189.04978818     Delta=-4.58D-06
 NORM(A)=   0.11173199D+01
 Iteration Nr.  11
 **********************
 DD1Dir will call FoFMem   1 times, MxPair=        90
 NAB=    45 NAA=     0 NBB=     0.
 A-vector RMS=  5.2621927D-07 Max=  4.4156654D-06 conv= 1.00D-05.
 RLE energy=       -0.6547757096
 DE(Corr)= -0.65477516     E(CORR)=     -189.04978613     Delta= 2.05D-06
 NORM(A)=   0.11173202D+01
 Iteration Nr.  12
 **********************
 DD1Dir will call FoFMem   1 times, MxPair=        90
 NAB=    45 NAA=     0 NBB=     0.
 A-vector RMS=  2.3881092D-07 Max=  1.9110990D-06 conv= 1.00D-05.
 RLE energy=       -0.6547758203
 DE(Corr)= -0.65477599     E(CORR)=     -189.04978696     Delta=-8.31D-07
 NORM(A)=   0.11173202D+01
 Iteration Nr.  13
 **********************
 DD1Dir will call FoFMem   1 times, MxPair=        90
 NAB=    45 NAA=     0 NBB=     0.
 A-vector RMS=  8.9295105D-08 Max=  8.6559089D-07 conv= 1.00D-05.
 RLE energy=       -0.6547760167
 DE(Corr)= -0.65477604     E(CORR)=     -189.04978701     Delta=-5.03D-08
 NORM(A)=   0.11173204D+01
 CI/CC converged in   13 iterations to DelEn=-5.03D-08 Conv= 1.00D-07 ErrA1= 8.93D-08 Conv= 1.00D-05
 Wavefunction amplitudes converged. E(Corr)=     -189.04978701    
 Largest amplitude= 6.82D-02
 T4(AAA)= -0.11862324D-02
 T4(AAB)= -0.21576158D-01
 T5(AAA)=  0.87337026D-04
 T5(AAB)=  0.13570446D-02
 Time for triples=     1386.36 seconds.
 T4(CCSD)= -0.45524781D-01
 T5(CCSD)=  0.28887633D-02
 CCSD(T)= -0.18909242303D+03
 Discarding MO integrals.
 Leave Link  913 at Fri Oct  2 16:16:11 2020, MaxMem=   327680000 cpu:            2257.6 elap:             300.2
 (Enter /applis/site/cecic/gaussian16/B.01/nehalem/g16/l601.exe)
 Copying SCF densities to generalized density rwf, IOpCl= 0 IROHF=0.

 **********************************************************************

            Population analysis using the SCF Density.

 **********************************************************************

 Orbital symmetries:
       Occupied  (SG) (SG) (SG) (SG) (SG) (SG) (SG) (SG) (PI) (PI)
                 (SG) (PI) (PI)
       Virtual   (PI) (PI) (SG) (SG) (PI) (PI) (SG) (PI) (PI) (SG)
                 (PI) (PI) (SG) (SG) (PI) (PI) (SG) (DLTA) (DLTA)
                 (SG) (PI) (PI) (DLTA) (DLTA) (SG) (PI) (PI) (SG)
                 (PI) (PI) (SG) (DLTA) (DLTA) (PI) (PI) (SG) (PI)
                 (PI) (SG) (SG) (SG) (DLTA) (DLTA) (PI) (PI) (PI)
                 (PI) (SG) (PI) (PI) (DLTA) (DLTA) (DLTA) (DLTA)
                 (SG) (PHI) (PHI) (SG) (SG) (PHI) (PHI) (PI) (PI)
                 (PI) (PI) (DLTA) (DLTA) (SG) (DLTA) (DLTA) (SG)
                 (PI) (PI) (PHI) (PHI) (SG) (SG) (SG) (PI) (PI)
                 (PI) (PI) (DLTA) (DLTA) (SG) (PI) (PI) (DLTA)
                 (DLTA) (PI) (PI) (SG) (PHI) (PHI) (DLTA) (DLTA)
                 (SG) (PI) (PI) (SG) (SG) (PI) (PI) (DLTA) (DLTA)
                 (PI) (PI) (SG) (PI) (PI) (SG) (DLTA) (DLTA) (DLTA)
                 (DLTA) (SG) (PHI) (PHI) (SG) (PI) (PI) (PHI) (PHI)
                 (PI) (PI) (DLTA) (DLTA) (SG) (PI) (PI) (PHI) (PHI)
                 (SG) (DLTA) (DLTA) (DLTA) (DLTA) (PI) (PI) (PI)
                 (PI) (SG) (DLTA) (DLTA) (SG) (PI) (PI) (SG) (PI)
                 (PI) (SG) (SG) (SG) (PI) (PI) (PHI) (PHI) (DLTA)
                 (DLTA) (DLTA) (DLTA) (SG) (PI) (PI) (PI) (PI)
                 (SG) (SG) (SG) (SG) (SG)
 The electronic state is 1-SG.
 Alpha  occ. eigenvalues --  -20.69809 -11.46341 -11.32639 -11.24787  -1.55254
 Alpha  occ. eigenvalues --   -1.11376  -0.94201  -0.79872  -0.69633  -0.69633
 Alpha  occ. eigenvalues --   -0.48557  -0.44045  -0.44045
 Alpha virt. eigenvalues --    0.02955   0.02955   0.04688   0.06262   0.07122
 Alpha virt. eigenvalues --    0.07122   0.08153   0.10694   0.10694   0.14120
 Alpha virt. eigenvalues --    0.14995   0.14995   0.19463   0.22178   0.23104
 Alpha virt. eigenvalues --    0.23104   0.23859   0.25103   0.25103   0.25263
 Alpha virt. eigenvalues --    0.29678   0.29678   0.34215   0.34215   0.35947
 Alpha virt. eigenvalues --    0.37307   0.37307   0.40354   0.44071   0.44071
 Alpha virt. eigenvalues --    0.44902   0.46887   0.46887   0.49878   0.49878
 Alpha virt. eigenvalues --    0.52740   0.58753   0.58753   0.59831   0.68247
 Alpha virt. eigenvalues --    0.69133   0.77204   0.77204   0.77786   0.77786
 Alpha virt. eigenvalues --    0.84302   0.84302   0.88421   0.90341   0.90341
 Alpha virt. eigenvalues --    0.92894   0.92894   0.95852   0.95852   0.96361
 Alpha virt. eigenvalues --    0.96394   0.96394   0.97646   1.07836   1.10578
 Alpha virt. eigenvalues --    1.10578   1.14888   1.14888   1.18673   1.18673
 Alpha virt. eigenvalues --    1.18702   1.18702   1.20997   1.34203   1.34203
 Alpha virt. eigenvalues --    1.36564   1.37965   1.37965   1.38230   1.38230
 Alpha virt. eigenvalues --    1.40297   1.47688   1.53052   1.60425   1.60425
 Alpha virt. eigenvalues --    1.63081   1.63081   1.74679   1.74679   1.80241
 Alpha virt. eigenvalues --    1.86672   1.86672   2.03233   2.03233   2.06902
 Alpha virt. eigenvalues --    2.06902   2.14936   2.17314   2.17314   2.31101
 Alpha virt. eigenvalues --    2.31101   2.39977   2.44355   2.44355   2.48303
 Alpha virt. eigenvalues --    2.64779   2.69006   2.69006   2.69081   2.69081
 Alpha virt. eigenvalues --    2.96194   2.96194   3.02794   3.07785   3.07785
 Alpha virt. eigenvalues --    3.10084   3.10986   3.10986   3.24307   3.24307
 Alpha virt. eigenvalues --    3.24506   3.24774   3.24774   3.40223   3.41280
 Alpha virt. eigenvalues --    3.41280   3.41816   3.41816   3.46951   3.46951
 Alpha virt. eigenvalues --    3.56815   3.56815   3.60083   3.62045   3.62045
 Alpha virt. eigenvalues --    3.69901   3.69901   3.88255   3.90179   3.90179
 Alpha virt. eigenvalues --    3.93232   3.93232   4.01942   4.01942   4.20866
 Alpha virt. eigenvalues --    4.20866   4.21754   4.50390   4.50390   4.57377
 Alpha virt. eigenvalues --    4.74071   4.74071   5.04547   5.41999   5.41999
 Alpha virt. eigenvalues --    5.44376   5.92715   5.98175   6.25855   6.25855
 Alpha virt. eigenvalues --    6.46500   6.46500   6.81272   6.81272   7.16521
 Alpha virt. eigenvalues --    7.16521   7.45277   7.53226   7.53226   7.76515
 Alpha virt. eigenvalues --    7.76515   7.82073  12.83886  16.16781  17.11451
 Alpha virt. eigenvalues --   20.64555
          Condensed to atoms (all electrons):
               1          2          3          4
     1  C    7.131095  -0.181576   0.022849  -0.047819
     2  C   -0.181576   5.447991  -0.187453  -0.185066
     3  C    0.022849  -0.187453   5.559175   0.590582
     4  O   -0.047819  -0.185066   0.590582   7.838707
 Mulliken charges:
               1
     1  C   -0.924549
     2  C    1.106104
     3  C    0.014848
     4  O   -0.196403
 Sum of Mulliken charges =  -0.00000
 Mulliken charges with hydrogens summed into heavy atoms:
               1
     1  C   -0.924549
     2  C    1.106104
     3  C    0.014848
     4  O   -0.196403
 Electronic spatial extent (au):  <R**2>=            241.6174
 Charge=             -0.0000 electrons
 Dipole moment (field-independent basis, Debye):
    X=              0.0000    Y=              0.0000    Z=              1.9177  Tot=              1.9177
 Quadrupole moment (field-independent basis, Debye-Ang):
   XX=            -21.6845   YY=            -21.6845   ZZ=            -30.2359
   XY=              0.0000   XZ=              0.0000   YZ=              0.0000
 Traceless Quadrupole moment (field-independent basis, Debye-Ang):
   XX=              2.8505   YY=              2.8505   ZZ=             -5.7010
   XY=              0.0000   XZ=              0.0000   YZ=              0.0000
 Octapole moment (field-independent basis, Debye-Ang**2):
  XXX=              0.0000  YYY=              0.0000  ZZZ=             30.1984  XYY=              0.0000
  XXY=              0.0000  XXZ=              6.0907  XZZ=              0.0000  YZZ=             -0.0000
  YYZ=              6.0907  XYZ=              0.0000
 Hexadecapole moment (field-independent basis, Debye-Ang**3):
 XXXX=            -23.1450 YYYY=            -23.1450 ZZZZ=           -360.9300 XXXY=              0.0000
 XXXZ=              0.0000 YYYX=              0.0000 YYYZ=              0.0000 ZZZX=              0.0000
 ZZZY=              0.0000 XXYY=             -7.7150 XXZZ=            -52.3979 YYZZ=            -52.3979
 XXYZ=              0.0000 YYXZ=              0.0000 ZZXY=             -0.0000
 N-N= 7.672714468790D+01 E-N=-5.945596089122D+02  KE= 1.881191896721D+02
 Leave Link  601 at Fri Oct  2 16:16:11 2020, MaxMem=   327680000 cpu:               0.9 elap:               0.2
 (Enter /applis/site/cecic/gaussian16/B.01/nehalem/g16/l9999.exe)
 1\1\GINC-DAHU113\SP\RCCSD(T)-FC\Aug-CC-pVTZ\C3O1\TINACCIL\02-Oct-2020\
 0\\#P CCSD(T)/aug-cc-pvtz geom=allcheck guess=read\\Title\\0,1\C,0,0.0
 000000009,-0.0000000003,0.0182785337\C,0,-0.0000000005,0.0000000002,1.
 2817664022\C,0,-0.0000000018,0.0000000006,2.5808707025\O,0,0.000000001
 5,-0.0000000005,3.7210243616\\Version=ES64L-G16RevB.01\State=1-SG\HF=-
 188.395011\MP2=-189.0549013\MP3=-189.0437274\MP4D=-189.0634051\MP4DQ=-
 189.0399056\MP4SDQ=-189.0534512\CCSD=-189.049787\CCSD(T)=-189.092423\R
 MSD=3.846e-09\PG=C*V [C*(C1C1C1O1)]\\@


 "PERFECTION IS NOT AN ACCIDENT"
         --  EAGLE ELECTRIC MANUFACTURING CO.,INC. NY
 Job cpu time:       0 days  0 hours 41 minutes 22.1 seconds.
 Elapsed time:       0 days  0 hours  5 minutes 35.5 seconds.
 File lengths (MBytes):  RWF=   2339 Int=      0 D2E=      0 Chk=      4 Scr=      1
 Normal termination of Gaussian 16 at Fri Oct  2 16:16:12 2020.
