5
 energy: -10.695229346535 gnorm: 0.127666370315 xtb: 6.2.2 (9d81278992624c895f80dd42a50cac0aa55982e2)
N        -0.85484200000000   -0.14853500000000   -1.17875600000000
C        -0.00734900000000   -0.00127700000000   -0.01013400000000
C         1.11906500000000   -1.01093800000000   -0.07315400000000
C        -0.82709200000000   -0.23712400000000    1.24070400000000
C         0.57021700000000    1.39787400000000    0.02134000000000
5
 energy: -10.730751484309 gnorm: 0.109838517345 xtb: 6.2.2 (9d81278992624c895f80dd42a50cac0aa55982e2)
N        -0.86022682131487   -0.14946343387321   -1.18619623923426
C        -0.05124245668595   -0.00890658511030   -0.07065363026724
C         1.07785425514757   -0.93456398840736   -0.01796605067784
C        -0.73342351526009   -0.21437632998689    1.20484414705446
C         0.56703753811334    1.30731033737777    0.06997177312488
5
 energy: -10.811239830224 gnorm: 0.129586511840 xtb: 6.2.2 (9d81278992624c895f80dd42a50cac0aa55982e2)
N        -0.88528518629121   -0.15379981503081   -1.22078613713790
C        -0.18609263746911   -0.03234781335817   -0.25658219194694
C         0.99828013894843   -0.75581066411801    0.13054640166784
C        -0.50204364611966   -0.15925097772967    1.14345267670789
C         0.57514033093155    1.10120927023666    0.20336925070910
5
 energy: -10.849478246632 gnorm: 0.885016717800 xtb: 6.2.2 (9d81278992624c895f80dd42a50cac0aa55982e2)
N        -0.92084927028217   -0.15996372464722   -1.26985794880371
C        -0.33244253107242   -0.05778861446514   -0.45836778279976
C         0.91743389906716   -0.56480971928369    0.29403098268051
C        -0.25179531597841   -0.09988109595357    1.08343237184234
C         0.58765221826583    0.88244315434962    0.35076237708062
5
 energy: -10.917968416123 gnorm: 0.230094661091 xtb: 6.2.2 (9d81278992624c895f80dd42a50cac0aa55982e2)
N        -0.96697516173952   -0.16797135739678   -1.33347306440458
C        -0.30539975434095   -0.05312408829401   -0.42102674036751
C         0.96562215067436   -0.61709254143527    0.27918340318704
C        -0.30148049348991   -0.11321339230529    1.13465423913064
C         0.60823225889603    0.95140137943134    0.34066216245440
5
 energy: -10.945371685259 gnorm: 0.089494967053 xtb: 6.2.2 (9d81278992624c895f80dd42a50cac0aa55982e2)
N        -1.02245098636544   -0.17755730579190   -1.41012306498555
C        -0.33526763905406   -0.05827177139476   -0.46244492017770
C         0.93555893403978   -0.53817556600500    0.35162118188830
C        -0.19447030597296   -0.08822686231342    1.11466459808845
C         0.61662899735269    0.86223150550508    0.40628220518651
5
 energy: -10.948181863966 gnorm: 0.045654171628 xtb: 6.2.2 (9d81278992624c895f80dd42a50cac0aa55982e2)
N        -1.02123591517894   -0.17701653370313   -1.40977514193958
C        -0.33093264296678   -0.05689531401554   -0.45879692723364
C         0.95165065934086   -0.56625048436504    0.34042892418962
C        -0.21919587821720   -0.09588050151569    1.13221194809336
C         0.61971277702206    0.89604283359940    0.39593119689024
5
 energy: -10.953697433312 gnorm: 0.058167096249 xtb: 6.2.2 (9d81278992624c895f80dd42a50cac0aa55982e2)
N        -1.01699286587987   -0.17278475241232   -1.41723574877682
C        -0.31692913288557   -0.04771548229521   -0.46416455249304
C         0.92648953312800   -0.59501341160438    0.35867484298889
C        -0.18757998229788   -0.10295191749665    1.12387460181304
C         0.59501144793532    0.91846556380855    0.39885085646793
5
 energy: -10.965766923243 gnorm: 0.122496677520 xtb: 6.2.2 (9d81278992624c895f80dd42a50cac0aa55982e2)
N        -0.98001440426725   -0.14688645521830   -1.45067738966486
C        -0.27010876586236   -0.00531315270376   -0.50042952270841
C         0.82713064973557   -0.74080981618756    0.43188114683002
C        -0.06856101791237   -0.14837159429083    1.12395756688601
C         0.49155253830641    1.04138101840045    0.39526819865724
5
 energy: -10.979760776202 gnorm: 0.092099563971 xtb: 6.2.2 (9d81278992624c895f80dd42a50cac0aa55982e2)
N        -0.89587466588181   -0.12919180344343   -1.49965630268919
C        -0.25144181028159   -0.02296145864435   -0.49267876787117
C         0.80921150083886   -0.81617177067848    0.37803018728404
C        -0.04024049681473   -0.07466752923943    1.19631256366635
C         0.37834447213927    1.04299256200568    0.41799231960997
5
 energy: -10.993078735370 gnorm: 0.120940686023 xtb: 6.2.2 (9d81278992624c895f80dd42a50cac0aa55982e2)
N        -0.73273135893772   -0.10091926192089   -1.59772867558050
C        -0.22851308189332   -0.01844388713251   -0.47321663233214
C         0.70525412081874   -0.89469049816234    0.32154861982876
C         0.03453945950431   -0.02441075429380    1.33444980324165
C         0.22144986050801    1.03846440150953    0.41494688484223
5
 energy: -11.002450036706 gnorm: 0.091289673743 xtb: 6.2.2 (9d81278992624c895f80dd42a50cac0aa55982e2)
N        -0.72340215808522   -0.11299275220000   -1.62358659773981
C        -0.21132847771914   -0.02974457508903   -0.50974727873841
C         0.69514475633201   -0.87678006831375    0.30709976136505
C         0.05379295119143    0.03224164751208    1.36115986728568
C         0.18579192828093    0.98727574809068    0.46507424782749
5
 energy: -11.015258784742 gnorm: 0.053046860475 xtb: 6.2.2 (9d81278992624c895f80dd42a50cac0aa55982e2)
N        -0.73336652035079   -0.06438184932634   -1.67087834415220
C        -0.20738009331437   -0.03334553164293   -0.57927050222204
C         0.67659586600603   -0.80724741309981    0.37206379439683
C         0.07749882720531    0.00015348444455    1.43323439629660
C         0.18665092045382    0.90482130962453    0.44485065568081
5
 energy: -11.019405656168 gnorm: 0.072177069535 xtb: 6.2.2 (9d81278992624c895f80dd42a50cac0aa55982e2)
N        -0.70707496939387   -0.03923379932031   -1.72866824392133
C        -0.15010289528551   -0.02498931786920   -0.67183645213107
C         0.61067114290728   -0.86437579409377    0.42099041190545
C         0.15807567276276    0.01569846379345    1.49874844547524
C         0.08843004900935    0.91290044748983    0.48076583867171
5
 energy: -11.023075853138 gnorm: 0.045566419036 xtb: 6.2.2 (9d81278992624c895f80dd42a50cac0aa55982e2)
N        -0.71823155513615   -0.05779743325836   -1.68870865565086
C        -0.13781172961075   -0.00796589633566   -0.65092948509016
C         0.60124620536711   -0.84201064879752    0.41475793335327
C         0.13444499680238   -0.00755857458229    1.45758436947189
C         0.12035108257742    0.91533255297383    0.46729583791585
5
 energy: -11.024464998872 gnorm: 0.027785023153 xtb: 6.2.2 (9d81278992624c895f80dd42a50cac0aa55982e2)
N        -0.69754695223586   -0.07424462058760   -1.68008837441858
C        -0.12271605585552    0.00936372989709   -0.63133796618633
C         0.56515714292841   -0.84436288122248    0.40189976126171
C         0.13756148532207   -0.01943149581597    1.44858944427545
C         0.11754337984090    0.92867526772896    0.46093713506775
5
 energy: -11.025145491030 gnorm: 0.012102103637 xtb: 6.2.2 (9d81278992624c895f80dd42a50cac0aa55982e2)
N        -0.70011642927933   -0.09345252300372   -1.67955227149892
C        -0.11293617213607    0.02249597808559   -0.63723739592532
C         0.54027988029374   -0.84920313589025    0.40717857555315
C         0.14985480410745   -0.02872359614265    1.43815797129966
C         0.12291691701421    0.94888327695103    0.47145312057143
5
 energy: -11.025419752709 gnorm: 0.013449241688 xtb: 6.2.2 (9d81278992624c895f80dd42a50cac0aa55982e2)
N        -0.68919977419563   -0.09953584251555   -1.69558954013919
C        -0.11827320134364    0.02136175091928   -0.63936546876841
C         0.52620352629599   -0.84785658565382    0.40436126989805
C         0.16263490312127   -0.02409635800722    1.45143793782835
C         0.11863354612202    0.95012703525730    0.47915580118120
5
 energy: -11.025609056743 gnorm: 0.013647566227 xtb: 6.2.2 (9d81278992624c895f80dd42a50cac0aa55982e2)
N        -0.68579654006332   -0.09499589678759   -1.70321207062484
C        -0.12467497994863    0.01406773807549   -0.63844223712030
C         0.52311152580794   -0.84686495662362    0.40788091619121
C         0.17173410162378   -0.02264914959381    1.45484189987432
C         0.11562489258023    0.95044226492953    0.47893149167961
5
 energy: -11.025884875463 gnorm: 0.014926158289 xtb: 6.2.2 (9d81278992624c895f80dd42a50cac0aa55982e2)
N        -0.67583777968779   -0.08499707529864   -1.71452738622655
C        -0.13968009295772   -0.00502081566644   -0.63201335253653
C         0.51772295236962   -0.84625901023881    0.41159503537067
C         0.19012697472909   -0.01648966037431    1.45698371421251
C         0.10766694554680    0.95276656157819    0.47796198917990
5
 energy: -11.025992916584 gnorm: 0.010171600442 xtb: 6.2.2 (9d81278992624c895f80dd42a50cac0aa55982e2)
N        -0.66929370566987   -0.08183243523555   -1.71666287669811
C        -0.14494642147729   -0.01310320773634   -0.63025601005886
C         0.51344437644434   -0.84593017398975    0.41153589985622
C         0.19816937336711   -0.01224346717558    1.45660628570104
C         0.10262537733571    0.95310928413722    0.47877670119971
5
 energy: -11.026055938900 gnorm: 0.002457448820 xtb: 6.2.2 (9d81278992624c895f80dd42a50cac0aa55982e2)
N        -0.66423677197716   -0.08145779549071   -1.71478480937687
C        -0.14788894008280   -0.01312395350746   -0.62930572294607
C         0.50967945052680   -0.84746165767237    0.41015246804304
C         0.20350655890425   -0.01073978066912    1.45541826687774
C         0.09893870262890    0.95278318733965    0.47851979740216
5
 energy: -11.026074002411 gnorm: 0.001638425974 xtb: 6.2.2 (9d81278992624c895f80dd42a50cac0aa55982e2)
N        -0.66001994996626   -0.08126909315367   -1.71639910086980
C        -0.15183439481013   -0.01319686720297   -0.62835547125785
C         0.50663264319772   -0.84882524507411    0.40973652154004
C         0.20917173512603   -0.00918850635215    1.45565207468332
C         0.09604896645265    0.95247971178290    0.47936597590429
5
 energy: -11.026082526366 gnorm: 0.000750616487 xtb: 6.2.2 (9d81278992624c895f80dd42a50cac0aa55982e2)
N        -0.65412421428438   -0.08117495699241   -1.72071683930238
C        -0.15871302416107   -0.01323097351704   -0.62683408074172
C         0.50283489282495   -0.85060040501090    0.40955673347361
C         0.21741396412804   -0.00695277950297    1.45688000835114
C         0.09258738149246    0.95195911502331    0.48111417821935
5
 energy: -11.026083502911 gnorm: 0.000357164003 xtb: 6.2.2 (9d81278992624c895f80dd42a50cac0aa55982e2)
N        -0.65550906641073   -0.08134165307658   -1.72029070570137
C        -0.15753042935755   -0.01298780424533   -0.62720595393859
C         0.50387182851202   -0.85010611598213    0.40972864829532
C         0.21555373130200   -0.00748281102509    1.45694654561244
C         0.09361293595425    0.95191838432913    0.48082146573220
