$hessian                                                                        
        0.1604045220   0.0173287706   0.3183474732  -0.1581863351  -0.0197972067
       -0.2624894878   0.0000828286   0.0050445667  -0.0285267204  -0.0075890998
       -0.0002692069  -0.0077379508   0.0052880843  -0.0023069236  -0.0195933143
        0.0173287706   0.0289903634   0.0440356543  -0.0192241753  -0.0263863470
       -0.0356830110   0.0083971071   0.0026388128   0.0170479487   0.0001449581
       -0.0050708508  -0.0021667558  -0.0066466605  -0.0001719784  -0.0232338362
        0.3183474732   0.0440356543   0.7181417516  -0.2775328789  -0.0389866874
       -0.6078690325  -0.0143940718   0.0095086412  -0.0562881829  -0.0161089090
       -0.0037132780   0.0041403731  -0.0103116135  -0.0108443300  -0.0581249093
       -0.1581863351  -0.0192241753  -0.2775328789   0.2394605466   0.0234674413
        0.3361682500  -0.0641985212   0.0371328713  -0.0263823624   0.0254608783
       -0.0007426306  -0.0031404560  -0.0425365686  -0.0406335067  -0.0291125526
       -0.0197972067  -0.0263863470  -0.0389866874   0.0234674413   0.0774714334
        0.0452091895   0.0045007435  -0.0319015491  -0.0049225882  -0.0009192909
        0.0275633229   0.0042935615  -0.0072516871  -0.0467468603  -0.0055934755
       -0.2624894878  -0.0356830110  -0.6078690325   0.3361682500   0.0452091895
        0.8039029889  -0.0601358031   0.0655350098  -0.0493975583   0.0126774587
        0.0064763849  -0.0924547235  -0.0262204178  -0.0815375732  -0.0541816746
        0.0000828286   0.0083971071  -0.0143940718  -0.0641985212   0.0045007435
       -0.0601358031   0.0764253341  -0.1006169090   0.0036281051  -0.0308756899
        0.0201788825   0.0656452785   0.0185660484   0.0675401759   0.0052564913
        0.0050445667   0.0026388128   0.0095086412   0.0371328713  -0.0319015491
        0.0655350098  -0.1006169090   0.2634728003   0.0869181989   0.0350778172
       -0.0615572068  -0.1880448067   0.0233616538  -0.1726528572   0.0260829569
       -0.0285267204   0.0170479487  -0.0562881829  -0.0263823624  -0.0049225882
       -0.0493975583   0.0036281051   0.0869181989   0.2404542694   0.0322325380
       -0.0545602302  -0.2459597907   0.0190484397  -0.0444833292   0.1111912625
       -0.0075890998   0.0001449581  -0.0161089090   0.0254608783  -0.0009192909
        0.0126774587  -0.0308756899   0.0350778172   0.0322325380   0.0285653617
       -0.0246482647  -0.0289949511  -0.0155614502  -0.0096552197   0.0001938634
       -0.0002692069  -0.0050708508  -0.0037132780  -0.0007426306   0.0275633229
        0.0064763849   0.0201788825  -0.0615572068  -0.0545602302  -0.0246482647
        0.1366011042  -0.0233792723   0.0054812197  -0.0975363695   0.0751763956
       -0.0077379508  -0.0021667558   0.0041403731  -0.0031404560   0.0042935615
       -0.0924547235   0.0656452785  -0.1880448067  -0.2459597907  -0.0289949511
       -0.0233792723   0.5603492654  -0.0257719206   0.2092972733  -0.2260751244
        0.0052880843  -0.0066466605  -0.0103116135  -0.0425365686  -0.0072516871
       -0.0262204178   0.0185660484   0.0233616538   0.0190484397  -0.0155614502
        0.0054812197  -0.0257719206   0.0342438860  -0.0149445258   0.0432555122
       -0.0023069236  -0.0001719784  -0.0108443300  -0.0406335067  -0.0467468603
       -0.0815375732   0.0675401759  -0.1726528572  -0.0444833292  -0.0096552197
       -0.0975363695   0.2092972733  -0.0149445258   0.3171080654  -0.0724320409
       -0.0195933143  -0.0232338362  -0.0581249093  -0.0291125526  -0.0055934755
       -0.0541816746   0.0052564913   0.0260829569   0.1111912625   0.0001938634
        0.0751763956  -0.2260751244   0.0432555122  -0.0724320409   0.2271904458
