[Molden Format]
[Title]
[Atoms] AU
N      1     7 -0.12387446453467E+01 -0.15371262038007E+00 -0.32508733946013E+01
C      2     6 -0.29769360596837E+00 -0.24543900633918E-01 -0.11852462847343E+01
C      3     6  0.95217396074152E+00 -0.16064712212539E+01  0.77427433892905E+00
C      4     6  0.40734701607177E+00 -0.14137789739646E-01  0.27532282967655E+01
C      5     6  0.17691538477586E+00  0.17988655320174E+01  0.90861704364761E+00
[GTO]
           1 0
 s           4   1.0000000000000000     
   63.594024466941008      -0.19234388414721629     
   10.951417231523665      -0.23478107924953728     
  0.87999310257376984       0.37593753901700888     
  0.33538715296521110       0.14982889271862770     
 p           4   1.0000000000000000     
   7.2965040481495080       0.97658666315667420     
   1.8918745450712575       0.90372226730345739     
  0.66694432110824120       0.47404958461536373     
  0.26552202674130870        7.1516067715011844E-002

           2 0
 s           4   1.0000000000000000     
   51.049363095579913      -0.16312063210127389     
   8.7911227406887544      -0.19911024581000730     
  0.70640422258929825       0.31882047753655751     
  0.26922813413411617       0.12706504184240380     
 p           4   1.0000000000000000     
   5.8263656140800002       0.73716451545209605     
   1.5106896018720002       0.68216371614850257     
  0.53256483288000001       0.35783053929253711     
  0.21202323690600003        5.3983030275847881E-002

           3 0
 s           4   1.0000000000000000     
   51.049363095579913      -0.16312063210127389     
   8.7911227406887544      -0.19911024581000730     
  0.70640422258929825       0.31882047753655751     
  0.26922813413411617       0.12706504184240380     
 p           4   1.0000000000000000     
   5.8263656140800002       0.73716451545209605     
   1.5106896018720002       0.68216371614850257     
  0.53256483288000001       0.35783053929253711     
  0.21202323690600003        5.3983030275847881E-002

           4 0
 s           4   1.0000000000000000     
   51.049363095579913      -0.16312063210127389     
   8.7911227406887544      -0.19911024581000730     
  0.70640422258929825       0.31882047753655751     
  0.26922813413411617       0.12706504184240380     
 p           4   1.0000000000000000     
   5.8263656140800002       0.73716451545209605     
   1.5106896018720002       0.68216371614850257     
  0.53256483288000001       0.35783053929253711     
  0.21202323690600003        5.3983030275847881E-002

           5 0
 s           4   1.0000000000000000     
   51.049363095579913      -0.16312063210127389     
   8.7911227406887544      -0.19911024581000730     
  0.70640422258929825       0.31882047753655751     
  0.26922813413411617       0.12706504184240380     
 p           4   1.0000000000000000     
   5.8263656140800002       0.73716451545209605     
   1.5106896018720002       0.68216371614850257     
  0.53256483288000001       0.35783053929253711     
  0.21202323690600003        5.3983030275847881E-002

[MO]
Sym=     1a
Ene=  -0.73819874399173491     
Spin= Alpha
Occup=     2.00000000
           1   6.2485295833325218E-002
           2   2.2529625652435291E-002
           3   2.9079996695052200E-003
           4   5.5876186804348478E-002
           5  0.30929775789876984     
           6   3.9716102940577466E-002
           7   4.3449381944868750E-003
           8  0.12260853314888005     
           9  0.32079619261889014     
          10  -5.8690495562037481E-002
          11  0.13771988487482875     
          12   8.5746336892777390E-003
          13  0.30889824750331291     
          14   2.2923349071187537E-004
          15   6.3923380915366125E-003
          16 -0.16205408727835102     
          17  0.32062231410736886     
          18   6.8437219905850511E-003
          19 -0.14966176454109262     
          20  -2.5042083699883724E-003
Sym=     2a
Ene=  -0.70031093397925392     
Spin= Alpha
Occup=     2.00000000
           1  0.49953298441875460     
           2   9.3161840424063072E-002
           3   1.2964055715289677E-002
           4  0.19932979144555404     
           5  0.39724020928974196     
           6 -0.10606383857462112     
           7  -1.3796091501462404E-002
           8 -0.25639783806171035     
           9  -6.8808416846543818E-002
          10  -1.7242687376935444E-002
          11  -2.6607408501485297E-002
          12  -9.4870378845697892E-002
          13 -0.16823850461456141     
          14  -1.2920478960795621E-002
          15  -4.5646610887829370E-003
          16   4.1205246792089971E-002
          17  -6.8960243590148393E-002
          18  -2.8584764013326543E-002
          19   2.3516520714341026E-002
          20  -9.2747574985641609E-002
Sym=     3a
Ene=  -0.63047207368246549     
Spin= Alpha
Occup=     2.00000000
           1   5.1673998524469035E-003
           2  -3.5584778663914893E-002
           3  0.15484327422041258     
           4   6.3013341853562221E-003
           5  -4.2567375966596011E-003
           6  -8.0791008367241776E-002
           7  0.34285133100922643     
           8   9.5227545567108489E-003
           9 -0.47566813001293884     
          10   2.7716570982803296E-002
          11   7.2508259443065118E-002
          12   6.2506736639151078E-003
          13   7.1807965612293257E-003
          14  -6.9489962941732736E-002
          15  0.30807142175598595     
          16   1.2429861552576421E-002
          17  0.47491050188818112     
          18  -5.5188303425321973E-002
          19   5.3215992689778877E-002
          20   7.7528487733781737E-003
Sym=     4a
Ene=  -0.62031335244272423     
Spin= Alpha
Occup=     2.00000000
           1 -0.33881786558816651     
           2   3.6846832759135063E-002
           3   1.0896504777676281E-002
           4   8.0933319486363245E-003
           5  0.24649434444698778     
           6  0.18174591178789395     
           7   3.7048956735060590E-002
           8  0.24322259583285313     
           9   3.1292985522657024E-002
          10  -3.1011655569447856E-002
          11   1.0084065141324096E-002
          12 -0.31177981737611776     
          13 -0.48953287142293900     
          14  -3.9101857781446182E-002
          15  -1.4330809884747144E-003
          16  -4.9226261363817699E-002
          17   4.5770277900039028E-002
          18  -3.0517251920244202E-002
          19   2.7440756575738434E-003
          20 -0.31095527011247159     
Sym=     5a
Ene=  -0.56742003172545241     
Spin= Alpha
Occup=     2.00000000
           1  -7.8090227466596968E-002
           2 -0.32654050665678430     
           3  -7.3356747643218992E-002
           4  0.17823181992420248     
           5   3.9906311881535039E-002
           6 -0.43449195865587509     
           7  -9.9063755042323093E-002
           8  0.23603464332592361     
           9  -6.6117368891384198E-002
          10 -0.29910783057675228     
          11  -9.0108871165992449E-002
          12   2.9911142583875859E-002
          13   4.5839944877140118E-004
          14 -0.29315524739635745     
          15  -7.5066916404486095E-002
          16   6.7915440722348180E-003
          17  -6.9977806785836913E-002
          18 -0.30953050813550276     
          19  -5.1047080880486380E-002
          20   1.8116902917746300E-002
Sym=     6a
Ene=  -0.56688118145921018     
Spin= Alpha
Occup=     2.00000000
           1  -1.8468510763914245E-003
           2   7.3696190936951372E-002
           3 -0.35531565787574898     
           4  -1.0680565483409201E-002
           5   1.1176586048753294E-003
           6   8.4346858805174577E-002
           7 -0.41295987556408509     
           8  -1.1813360778732672E-002
           9 -0.10770371968699965     
          10  -6.4705091492346975E-002
          11   1.6824984043768799E-002
          12 -0.31734039361568345     
          13   8.9515481702059094E-004
          14  -9.2096756458896284E-002
          15  0.37616406988532219     
          16   1.5446062011695462E-002
          17  0.10561816920135489     
          18   4.3066791294326688E-002
          19   1.8674759051650381E-002
          20  0.32054439250699079     
Sym=     7a
Ene=  -0.50405191163043617     
Spin= Alpha
Occup=     2.00000000
           1 -0.40893350534941070     
           2  0.52581860167189454     
           3  0.11297058167373659     
           4  0.16677673957850109     
           5  0.16273654397331186     
           6  0.18274387092030323     
           7   4.8190528076800139E-002
           8 -0.15331218918524356     
           9 -0.17703297039109381     
          10 -0.18764110115535890     
          11   3.2118025699396213E-003
          12   5.0487182913617971E-002
          13  0.31264007577448621     
          14 -0.27185482870289102     
          15  -7.1562809402202443E-002
          16  0.24232163240416263     
          17 -0.17726508366280250     
          18 -0.16756938315949174     
          19  -8.8009367348133000E-002
          20   4.6949569666595796E-002
Sym=     8a
Ene=  -0.49150879915083379     
Spin= Alpha
Occup=     2.00000000
           1  0.45425733201631191     
           2  0.14771345614535866     
           3   5.8333050117691188E-002
           4 -0.60384168785753300     
           5 -0.14044598789568916     
           6  0.21136033997178014     
           7   4.6218728599556724E-002
           8   4.3773524669969595E-002
           9   5.1252534740642147E-002
          10 -0.20806934036792712     
          11  -7.5696072064504058E-002
          12  -2.9640518399452045E-002
          13  -6.5719103593041200E-002
          14 -0.37642137653402541     
          15  -8.1944551184965853E-002
          16  -9.0268374344935259E-002
          17   5.1007308840333825E-002
          18 -0.22150369725753638     
          19  -1.9948055951585060E-002
          20  -2.7113997022832504E-002
Sym=     9a
Ene=  -0.46836111957607185     
Spin= Alpha
Occup=     1.99997160
           1 -0.11595895075813867     
           2  0.11606930710256576     
           3   2.2100431854810473E-002
           4  0.11380569307297800     
           5  -3.4107838130574317E-002
           6  -2.8855270086766045E-002
           7  -2.9613126856502109E-003
           8  -9.1725587877640638E-002
           9  0.44863593442863953     
          10   8.0918381023991293E-002
          11 -0.50539980725577538     
          12   2.0545462480676444E-002
          13  -2.4609479741480141E-002
          14  -6.0797568628824766E-002
          15  -1.6997390200730364E-002
          16   5.7603817964675091E-002
          17  0.44967834299025605     
          18 -0.14537342576843035     
          19  0.48809380527710217     
          20   5.7240985631830929E-002
Sym=    10a
Ene=  -0.44846887242276001     
Spin= Alpha
Occup=     1.00002840
           1   1.2721413166511702E-003
           2 -0.16727492004049668     
           3  0.72594439761253926     
           4   2.8952125589716691E-002
           5   1.1056007913212761E-003
           6   8.9888752219756927E-004
           7  -1.1773813447616462E-004
           8   1.3825715389135964E-003
           9  0.26501649668369726     
          10  0.11720720227329406     
          11 -0.15268751920641241     
          12 -0.29312665947908662     
          13   3.0828370058617769E-003
          14  -5.7461585375877221E-002
          15  0.25605068502572054     
          16   1.4918489963467911E-002
          17 -0.26469448747214003     
          18  -3.4266620486017023E-002
          19 -0.20703771843431537     
          20  0.27752477570733736     
Sym=    11a
Ene=  -0.42595369834645946     
Spin= Alpha
Occup=     1.00000000
           1  0.14139578733837049     
           2 -0.29942625243778509     
           3  -6.5896488311654997E-002
           4 -0.15266735727711089     
           5  0.15219650879157023     
           6  0.12257341566332497     
           7   2.0658026998777650E-002
           8  0.18837960197632256     
           9   6.2740769763597820E-003
          10   5.7664330582716909E-002
          11  -3.7460022779479421E-002
          12 -0.22611524074671599     
          13  0.43643399369041253     
          14   6.1659651649352394E-002
          15  -1.6527167080338703E-002
          16  0.71973672054989246     
          17   1.0971809028656826E-002
          18   3.3535984297852393E-002
          19   8.0604065860236065E-002
          20 -0.22547353403063355     
Sym=    12a
Ene=  -0.38352393927196909     
Spin= Alpha
Occup=     1.00000000
           1  -5.7624421973578417E-005
           2   7.6697822924131770E-002
           3 -0.35138678531879897     
           4  -1.2909958952591408E-002
           5  -2.5869927111408603E-004
           6  -3.6765030222585190E-002
           7  0.16816209964705187     
           8   6.0308244895852037E-003
           9  0.11700772367585946     
          10  0.66062949083045086     
          11  -2.5926212334674268E-002
          12  -1.2950503869124946E-002
          13   6.3092137204284195E-004
          14  -2.6418500663348388E-002
          15  0.10755867702284072     
          16   5.1341048198038659E-003
          17 -0.11605221272379899     
          18 -0.58321681423857286     
          19 -0.30936456924737615     
          20  -1.6372472515147295E-003
Sym=    13a
Ene=  -0.31932760028586782     
Spin= Alpha
Occup=     0.00000000
           1   9.9515643991387702E-003
           2  0.46316153546935362     
           3  0.11410694369388699     
           4 -0.31121297417950644     
           5   9.9084462780096610E-002
           6 -0.40815670966982337     
           7 -0.10062754623466721     
           8  0.28366260107974794     
           9  -2.7787061246229965E-002
          10 -0.23843118040637304     
          11  -9.6170638120136667E-002
          12   1.5508198452902034E-002
          13  -3.4363644832837166E-002
          14  0.68971435486300281     
          15  0.15546391863487100     
          16  0.11108357777997106     
          17  -2.9546808884852345E-002
          18 -0.25408222935690333     
          19  -2.7779984589361664E-002
          20   1.6178703368601586E-002
Sym=    14a
Ene=  -0.31111841781029265     
Spin= Alpha
Occup=     0.00000000
           1  -1.4603586177458022E-004
           2   6.2006145331926887E-002
           3 -0.28787196414586014     
           4  -9.7057350719070273E-003
           5  -1.0232941213573548E-003
           6  -6.5133406500449159E-002
           7  0.29944041723112852     
           8   9.9989332956406333E-003
           9   6.5639029254296488E-002
          10 -0.16699941200407234     
          11 -0.66296942385934243     
          12   9.9547708286807562E-002
          13   6.0553647379861845E-004
          14  -6.7605171685174090E-002
          15  0.26960522862770331     
          16   1.0775788291397376E-002
          17  -6.4288146417384825E-002
          18  0.44013698911221288     
          19 -0.51532745094650600     
          20 -0.14753278729818908     
Sym=    15a
Ene=  -0.19927934910666981     
Spin= Alpha
Occup=     0.00000000
           1  -1.3208947784086090E-002
           2 -0.43515313204710682     
           3 -0.10507194320028490     
           4  0.14650776603982471     
           5   6.5727233210425409E-002
           6  0.64741360007548798     
           7  0.15820007590745791     
           8 -0.26605896597800610     
           9  -5.7270531349186041E-002
          10 -0.45851182378460315     
          11 -0.17248868271678333     
          12  0.11684853446782119     
          13  -2.9771846196511440E-002
          14  0.47047989288376035     
          15  0.11058599765022814     
          16  -9.2279748184534952E-002
          17  -5.6682176288603767E-002
          18 -0.48387514300740708     
          19  -5.2691667677602125E-002
          20  0.12086291121250110     
Sym=    16a
Ene=    6.9632132381984430E-002
Spin= Alpha
Occup=     0.00000000
           1  -4.1155345633613911E-003
           2   7.5777752539464976E-002
           3 -0.35994340401765823     
           4  -2.6999390491384008E-002
           5   4.3285566492586011E-002
           6 -0.19827950038160430     
           7  0.91125882613242515     
           8   5.4857289110033694E-002
           9  0.46593337259155687     
          10 -0.26625801071227412     
          11  0.34664387887562720     
          12 -0.34960369400434560     
          13  -1.5733706165691912E-002
          14  -2.3605048296675400E-002
          15   7.5474424634234011E-002
          16   8.4386927456683043E-003
          17 -0.48296241802736950     
          18  0.11134000500597151     
          19  0.42021478684137542     
          20  0.43740315490782650     
Sym=    17a
Ene=   0.10022441608554754     
Spin= Alpha
Occup=     0.00000000
           1  0.13419666025748045     
           2  0.14817061485657101     
           3   3.6901206555666134E-003
           4  0.31710936996781014     
           5 -0.98933544217004277     
           6 -0.16949511843726930     
           7   1.9895732488750800E-002
           8 -0.35194518287567567     
           9  0.21733096731580434     
          10 -0.25921899520208153     
          11  0.16477202146267320     
          12 -0.61177720461324325     
          13  0.31580622575303413     
          14  0.12509657163446367     
          15   3.6738528884637113E-002
          16 -0.10392663136354266     
          17  0.17008527863782788     
          18 -0.16257910809450590     
          19 -0.17466639747719945     
          20 -0.58689332276785899     
Sym=    18a
Ene=   0.19953417239169050     
Spin= Alpha
Occup=     0.00000000
           1   5.1311759562945776E-004
           2  -1.1555323048815699E-002
           3   5.1286171854608667E-002
           4   2.7613533379779714E-003
           5  -2.3032735120308723E-004
           6   4.5740415978842791E-002
           7 -0.19812542254997900     
           8  -7.7395444917825063E-003
           9  0.43894991331891786     
          10  -8.1211701070068573E-002
          11  0.30035121798580816     
          12  0.62745323554133425     
          13  -1.8222659032338391E-003
          14 -0.22265247932126306     
          15  0.97727146470116222     
          16   4.0274188431726608E-002
          17 -0.43737449203234252     
          18  -6.7018031561491484E-002
          19  0.34931296236699255     
          20 -0.59966591789610668     
Sym=    19a
Ene=   0.42360406976014342     
Spin= Alpha
Occup=     0.00000000
           1 -0.37488096799335202     
           2 -0.17891393991061888     
           3  -2.3874847642032453E-002
           4 -0.42675106103187921     
           5  0.47576394989114634     
           6 -0.18111368800568636     
           7  -2.7867187559520116E-002
           8 -0.27437587819540693     
           9 -0.43804981373447854     
          10  0.16371589031620926     
          11 -0.36119692393860170     
          12 -0.39306301026701956     
          13  0.85123694535609151     
          14   4.5783177250199376E-002
          15   4.4929703921690711E-002
          16 -0.81047111938420913     
          17 -0.44284684996751150     
          18  -1.5216648174546189E-002
          19  0.42822443769709195     
          20 -0.36358474875945651     
Sym=    20a
Ene=   0.82208643301873063     
Spin= Alpha
Occup=     0.00000000
           1  0.79738472402685157     
           2  0.34119025703352357     
           3   4.7737092804985698E-002
           4  0.73709914682847810     
           5 -0.34485278009386400     
           6  0.49970115383571995     
           7   6.5017177865509562E-002
           8   1.1440608609376701     
           9 -0.42738472987564630     
          10  0.16763606898073183     
          11 -0.34711700814783941     
          12  -6.1331421582453468E-003
          13  0.35741267086818546     
          14   2.8986432066229827E-002
          15   2.1142786786871294E-002
          16 -0.35875467214766571     
          17 -0.42344895510924718     
          18   7.2644524001719976E-005
          19  0.38234145428093935     
          20   1.8495786498874855E-002
