 Entering Gaussian System
 *********************************************
 Gaussian 98:
 frequency output generated by the xtb code
 *********************************************
                         Standard orientation:
 --------------------------------------------------------------------
  Center     Atomic     Atomic              Coordinates (Angstroms)
  Number     Number      Type              X           Y           Z
 --------------------------------------------------------------------
    1          6             0        0.197819    1.003771   -0.071805
    2          6             0       -0.745258   -0.039513   -0.713980
    3          6             0        0.171900   -1.008814    0.067721
    4          6             0       -0.728194    0.059597    0.729966
    5          7             0        1.103733   -0.015041   -0.011901
 --------------------------------------------------------------------
     1 basis functions        1 primitive gaussians
     1 alpha electrons        1 beta electrons

 Harmonic frequencies (cm**-1), IR intensities (KM/Mole),
 Raman scattering activities (A**4/amu), Raman depolarization ratios,
 reduced masses (AMU), force constants (mDyne/A) and normal coordinates:
                      1                      2                      3
                        a                      a                      a 
 Frequencies --  -913.7757              -209.3184               699.9480
 Red. masses --    12.0107                12.8214                12.1770
 Frc consts  --     0.0000                 0.0000                 0.0000
 IR Inten    --     0.0053                 0.3048                 0.0095
 Raman Activ --     0.0000                 0.0000                 0.0000
 Depolar     --     0.0000                 0.0000                 0.0000
 Atom AN      X      Y      Z        X      Y      Z        X      Y      Z
   1   6     0.00   0.03   0.41    -0.00  -0.03  -0.40     0.35  -0.15   0.01
   2   6    -0.01  -0.57   0.04    -0.36   0.01   0.06    -0.51   0.02   0.23
   3   6    -0.01  -0.03  -0.41    -0.01  -0.03  -0.40     0.36   0.14  -0.02
   4   6     0.01   0.57  -0.04     0.36  -0.00   0.06    -0.51  -0.01  -0.22
   5   7    -0.00  -0.00   0.00     0.01   0.04   0.64     0.29  -0.00  -0.00
                      4                      5                      6
                        a                      a                      a 
 Frequencies --   726.4571               903.1282               913.4436
 Red. masses --    12.0108                12.6033                12.2412
 Frc consts  --     0.0000                 0.0000                 0.0000
 IR Inten    --     0.7710                 0.3086                 0.6891
 Raman Activ --     0.0000                 0.0000                 0.0000
 Depolar     --     0.0000                 0.0000                 0.0000
 Atom AN      X      Y      Z        X      Y      Z        X      Y      Z
   1   6    -0.00  -0.03  -0.37     0.29   0.46  -0.03    -0.51  -0.19   0.02
   2   6     0.48   0.02   0.37     0.02   0.02   0.25     0.00   0.38  -0.03
   3   6    -0.00  -0.03  -0.37     0.27  -0.46   0.03     0.51  -0.20   0.01
   4   6    -0.47   0.03   0.38     0.01  -0.02  -0.25     0.01   0.38  -0.03
   5   7     0.00  -0.00  -0.00    -0.54   0.01   0.01    -0.01  -0.34   0.02
                      7                      8                      9
                        a                      a                      a 
 Frequencies --  1188.3619              1254.7051              1402.3147
 Red. masses --    12.7486                12.5027                12.3054
 Frc consts  --     0.0000                 0.0000                 0.0000
 IR Inten    --     1.1686                 1.0722                 0.0839
 Raman Activ --     0.0000                 0.0000                 0.0000
 Depolar     --     0.0000                 0.0000                 0.0000
 Atom AN      X      Y      Z        X      Y      Z        X      Y      Z
   1   6    -0.12   0.51  -0.03     0.32  -0.24   0.01     0.01   0.46  -0.03
   2   6    -0.00  -0.18   0.01    -0.06  -0.03  -0.46    -0.21  -0.03  -0.41
   3   6     0.14   0.51  -0.04     0.32   0.23  -0.02    -0.01  -0.46   0.03
   4   6    -0.00  -0.19   0.01    -0.05   0.03   0.46    -0.20   0.03   0.42
   5   7    -0.01  -0.61   0.04    -0.50   0.01   0.01     0.38  -0.01  -0.00
