5
 energy: -10.939874376769 gnorm: 0.137295620585 xtb: 6.2.2 (9d81278992624c895f80dd42a50cac0aa55982e2)
C         0.16225700000000    0.95350000000000   -0.06770100000000
C        -0.79319700000000   -0.03849100000000   -0.70441900000000
C         0.13762900000000   -0.95758300000000    0.06443400000000
C        -0.77639000000000    0.05986300000000    0.72142300000000
N         1.26970100000000   -0.01728900000000   -0.01373700000000
5
 energy: -10.959912410774 gnorm: 0.085500967061 xtb: 6.2.2 (9d81278992624c895f80dd42a50cac0aa55982e2)
C         0.16969675145059    0.97191649174486   -0.06905578774115
C        -0.75735024722712   -0.03999982682547   -0.71965456155469
C         0.14459911146728   -0.97619805984406    0.06564416030874
C        -0.74020530178518    0.06039608319188    0.73587668497152
N         1.18325968609443   -0.01611468826722   -0.01281049598442
5
 energy: -10.960047120327 gnorm: 0.087276589203 xtb: 6.2.2 (9d81278992624c895f80dd42a50cac0aa55982e2)
C         0.19144780557641    1.03098691401839   -0.07339416446921
C        -0.69849644483500   -0.04119476768038   -0.72620687501642
C         0.16483648571252   -1.03584195426574    0.06953027777863
C        -0.68121977911755    0.05999502771070    0.74115463303865
N         1.02343193266362   -0.01394521978296   -0.01108387133165
5
 energy: -10.967667340642 gnorm: 0.012668277666 xtb: 6.2.2 (9d81278992624c895f80dd42a50cac0aa55982e2)
C         0.18582228565698    1.00368384878965   -0.07144446486668
C        -0.73328715242839   -0.04041759447152   -0.72141294887865
C         0.15991083193839   -1.00839496243706    0.06769377723485
C        -0.71611154362421    0.06016382898956    0.73711457269536
N         1.10366557845723   -0.01503512087063   -0.01195093618489
5
 energy: -10.967843487018 gnorm: 0.008205465260 xtb: 6.2.2 (9d81278992624c895f80dd42a50cac0aa55982e2)
C         0.19033998552232    1.00228677927714   -0.07140851432774
C        -0.73796978724244   -0.04019241689047   -0.71915953761696
C         0.16446464344678   -1.00712217797233    0.06755794345906
C        -0.72084522707156    0.06006798498212    0.73496365326963
N         1.10401038534490   -0.01504016939645   -0.01195354478400
5
 energy: -10.967962561286 gnorm: 0.002411674039 xtb: 6.2.2 (9d81278992624c895f80dd42a50cac0aa55982e2)
C         0.19765014912260    1.00219562136431   -0.07153502420043
C        -0.74506369038350   -0.03977345607013   -0.71493309222582
C         0.17177947614757   -1.00722904883845    0.06748553049014
C        -0.72798834206270    0.05984308390099    0.73089625481991
N         1.10362240717603   -0.01503620035672   -0.01191366888380
5
 energy: -10.967966482156 gnorm: 0.001035988008 xtb: 6.2.2 (9d81278992624c895f80dd42a50cac0aa55982e2)
C         0.19789130449751    1.00297628836896   -0.07162789910785
C        -0.74532191696294   -0.03969592298094   -0.71443327837034
C         0.17200045527156   -1.00801813412631    0.06756007775741
C        -0.72825071969833    0.05977331961076    0.73040638048099
N         1.10368087689220   -0.01503555087247   -0.01190528076021
5
 energy: -10.967967233933 gnorm: 0.000607530878 xtb: 6.2.2 (9d81278992624c895f80dd42a50cac0aa55982e2)
C         0.19781405887748    1.00377246053214   -0.07180240263794
C        -0.74525552539973   -0.03951555153882   -0.71398315023077
C         0.17190480986636   -1.00881305545924    0.06771967404594
C        -0.72819681236962    0.05959170852123    0.72996336163148
N         1.10373346902551   -0.01503556205530   -0.01189748280871
