$hessian                                                                        
        0.2400027144  -0.0203509820  -0.0014603555  -0.0533347359  -0.0619232705
       -0.0592670293   0.0201941872   0.0114907751  -0.0002007022  -0.0510144386
       -0.0544358805   0.0678324131  -0.1558477271   0.1252193578  -0.0069043260
       -0.0203509820   0.4932263661  -0.0362549547  -0.0607745807  -0.0848108116
       -0.0519479714  -0.0151285425  -0.1266936483   0.0153760351  -0.0531361178
       -0.0893980315   0.0607579673   0.1493902230  -0.1923238747   0.0120689238
       -0.0014603555  -0.0362549547  -0.0324859110  -0.0398788080   0.0948505222
       -0.0338698849   0.0022280097   0.0150467765   0.0929004818   0.0474395730
       -0.0859039335  -0.0316442825  -0.0083284192   0.0122615895   0.0050995966
       -0.0533347359  -0.0607745807  -0.0398788080   0.1526172987   0.0059271562
        0.1155139951  -0.0505927136   0.0533306774  -0.0493359974   0.0467949705
       -0.0007071626  -0.0317793967  -0.0954848198   0.0022239097   0.0054802069
       -0.0619232705  -0.0848108116   0.0948505222   0.0059271562  -0.0473600921
        0.0274614955   0.0514789012  -0.0922849797  -0.0857426426   0.0041329152
        0.1989582668  -0.0346725915   0.0003842978   0.0254976165  -0.0018967836
       -0.0592670293  -0.0519479714  -0.0338698849   0.1155139951   0.0274614955
        0.3711748697  -0.0657398378   0.0613860032  -0.0291934761   0.0231521204
       -0.0353544992  -0.3072197879  -0.0136592483  -0.0015450280  -0.0008917208
        0.0201941872  -0.0151285425   0.0022280097  -0.0505927136   0.0514789012
       -0.0657398378   0.2412607522   0.0264941113  -0.0054004967  -0.0478830636
        0.0629681260   0.0581732523  -0.1629791622  -0.1258125961   0.0107390726
        0.0114907751  -0.1266936483   0.0150467765   0.0533306774  -0.0922849797
        0.0613860032   0.0264941113   0.4920004480  -0.0366451658   0.0586162804
       -0.0881599186  -0.0548331850  -0.1499318443  -0.1848619014   0.0150455712
       -0.0002007022   0.0153760351   0.0929004818  -0.0493359974  -0.0857426426
       -0.0291934761  -0.0054004967  -0.0366451658  -0.0324023577   0.0428115469
        0.0923563727  -0.0360101928   0.0121256494   0.0146554007   0.0047055448
       -0.0510144386  -0.0531361178   0.0474395730   0.0467949705   0.0041329152
        0.0231521204  -0.0478830636   0.0586162804   0.0428115469   0.1472442064
       -0.0106888423  -0.1098857756  -0.0951416747   0.0010757646  -0.0035174647
       -0.0544358805  -0.0893980315  -0.0859039335  -0.0007071626   0.1989582668
       -0.0353544992   0.0629681260  -0.0881599186   0.0923563727  -0.0106888423
       -0.0469005441   0.0307270159   0.0028637594   0.0255002274  -0.0018249559
        0.0678324131   0.0607579673  -0.0316442825  -0.0317793967  -0.0346725915
       -0.3072197879   0.0581732523  -0.0548331850  -0.0360101928  -0.1098857756
        0.0307270159   0.3760574045   0.0156595069  -0.0019792066  -0.0011831413
       -0.1558477271   0.1493902230  -0.0083284192  -0.0954848198   0.0003842978
       -0.0136592483  -0.1629791622  -0.1499318443   0.0121256494  -0.0951416747
        0.0028637594   0.0156595069   0.5094533838  -0.0027064359  -0.0057974887
        0.1252193578  -0.1923238747   0.0122615895   0.0022239097   0.0254976165
       -0.0015450280  -0.1258125961  -0.1848619014   0.0146554007   0.0010757646
        0.0255002274  -0.0019792066  -0.0027064359   0.3261879322  -0.0233927556
       -0.0069043260   0.0120689238   0.0050995966   0.0054802069  -0.0018967836
       -0.0008917208   0.0107390726   0.0150455712   0.0047055448  -0.0035174647
       -0.0018249559  -0.0011831413  -0.0057974887  -0.0233927556  -0.0077302793
