5
 energy: -10.967967234123 gnorm: 0.000607497551 xtb: 6.2.2 (9d81278992624c895f80dd42a50cac0aa55982e2)
C         0.19781906396944    1.00377129944734   -0.07180484505216
C        -0.74525822456555   -0.03951289551204   -0.71398047982515
C         0.17189976412317   -1.00881383734346    0.06772083469538
C        -0.72819395227463    0.05959679536298    0.72996579950517
N         1.10373334874757   -0.01504136195481   -0.01190130932323
