3
 energy: -8.042663339557 gnorm: 0.875974172910 xtb: 6.2.2 (9d81278992624c895f80dd42a50cac0aa55982e2)
O        -0.16240900000000    0.44994500000000    0.00000000000000
O         0.99697500000000   -0.17269800000000    0.00000000000000
H        -0.83456700000000   -0.27724600000000    0.00000000000000
3
 energy: -8.236687197877 gnorm: 0.112893053955 xtb: 6.2.2 (9d81278992624c895f80dd42a50cac0aa55982e2)
O        -0.29079793433970    0.50059515548018   -0.00000000000000
O         1.20630801576932   -0.23031220520305   -0.00000000000000
H        -0.91551108142962   -0.27028195027712    0.00000000000000
3
 energy: -8.243009741453 gnorm: 0.067157085993 xtb: 6.2.2 (9d81278992624c895f80dd42a50cac0aa55982e2)
O        -0.31792350665690    0.50373847876919   -0.00000000000000
O         1.22904561653399   -0.24093773891698   -0.00000000000000
H        -0.91112310987709   -0.26279973985221    0.00000000000000
3
 energy: -8.247330430235 gnorm: 0.025737994749 xtb: 6.2.2 (9d81278992624c895f80dd42a50cac0aa55982e2)
O        -0.35377340777482    0.51687463730705   -0.00000000000000
O         1.26364669411725   -0.25801724134453   -0.00000000000000
H        -0.90987428634243   -0.25885639596253    0.00000000000000
3
 energy: -8.248131936484 gnorm: 0.008999956027 xtb: 6.2.2 (9d81278992624c895f80dd42a50cac0aa55982e2)
O        -0.36796309887239    0.52976256703963   -0.00000000000000
O         1.27975304705606   -0.26746144395909   -0.00000000000000
H        -0.91179094818368   -0.26230012308054    0.00000000000000
3
 energy: -8.248237489362 gnorm: 0.001106356085 xtb: 6.2.2 (9d81278992624c895f80dd42a50cac0aa55982e2)
O        -0.37405798395773    0.53694112684784   -0.00000000000000
O         1.28615298024245   -0.27215048290490   -0.00000000000000
H        -0.91209599628472   -0.26478964394294    0.00000000000000
3
 energy: -8.248240410828 gnorm: 0.000835028682 xtb: 6.2.2 (9d81278992624c895f80dd42a50cac0aa55982e2)
O        -0.37551409520035    0.53902135490817   -0.00000000000000
O         1.28656595561736   -0.27346846369580   -0.00000000000000
H        -0.91105286041701   -0.26555189121238    0.00000000000000
