      -----------------------------------------------------------      
     |                   =====================                   |     
     |                           x T B                           |     
     |                   =====================                   |     
     |                         S. Grimme                         |     
     |          Mulliken Center for Theoretical Chemistry        |     
     |                    University of Bonn                     |     
      -----------------------------------------------------------      

   * xtb version 6.2.2 (9d81278992624c895f80dd42a50cac0aa55982e2) compiled by '@Darwin' on 04/03/2020

   xtb is free software: you can redistribute it and/or modify it under
   the terms of the GNU Lesser General Public License as published by
   the Free Software Foundation, either version 3 of the License, or
   (at your option) any later version.
   
   xtb is distributed in the hope that it will be useful,
   but WITHOUT ANY WARRANTY; without even the implied warranty of
   MERCHANTABILITY or FITNESS FOR A PARTICULAR PURPOSE.  See the
   GNU Lesser General Public License for more details.
   
   Cite this work as:
   * S. Grimme, C. Bannwarth, P. Shushkov, J. Chem. Theory Comput., 2017,
     13, 1989-2009. DOI: 10.1021/acs.jctc.7b00118
   * C. Bannwarth, S. Ehlert and S. Grimme., J. Chem. Theory Comput., 2019,
     15, 1652-1671. DOI: 10.1021/acs.jctc.8b01176
   * P. Pracht, E. Caldeweyher, S. Ehlert, S. Grimme, ChemRxiv, 2019, preprint.
     DOI: 10.26434/chemrxiv.8326202.v1
   
   for DFT-D4:
   * E. Caldeweyher, C. Bannwarth and S. Grimme, J. Chem. Phys., 2017,
     147, 034112. DOI: 10.1063/1.4993215
   * E. Caldeweyher, S. Ehlert, A. Hansen, H. Neugebauer, S. Spicher,
     C. Bannwarth and S. Grimme, J. Chem. Phys., 2019, 150, 154122.
     DOI: 10.1063/1.5090222
   
   for sTDA-xTB:
   * S. Grimme and C. Bannwarth, J. Chem. Phys., 2016, 145, 054103.
     DOI: 10.1063/1.4959605
   
   in the mass-spec context:
   * V. Asgeirsson, C. Bauer and S. Grimme, Chem. Sci., 2017, 8, 4879.
     DOI: 10.1039/c7sc00601b
   
   for metadynamics refer to:
   * S. Grimme, J. Chem. Theory Comput., 2019, 155, 2847-2862
     DOI: 10.1021/acs.jctc.9b00143
   
   with help from (in alphabetical order)
   C. Bannwarth, F. Bohle, G. Brandenburg, E. Caldeweyher, M. Checinski,
   S. Dohm, S. Ehlert, S. Ehrlich, F. März, H. Neugebauer, J. Pisarek,
   P. Pracht, P. Shushkov, and S. Spicher.
   
 * started run on 2020/05/12 at 11:45:16.162     

           -------------------------------------------------
          |                Calculation Setup                |
           -------------------------------------------------

          program call               : xtb --input H1O2_0_S_3.input H1O2_0_S_3.xyz --ohess --molden --namespace H1O2_0_S_3 output.out
          calculation namespace      : H1O2_0_S_3
          coordinate file            : H1O2_0_S_3.xyz
          number of atoms            :                     3
          number of electrons        :                    13
          charge                     :                     0
          spin                       :                   1.5
          first test random number   :      0.79661105690509

   ID    Z sym.   atoms
    1    8 O      1, 2
    2    1 H      3

           -------------------------------------------------
          |                 G F N 2 - x T B                 |
           -------------------------------------------------

        Reference                      10.1021/acs.jctc.8b01176
      * Hamiltonian:
        H0-scaling (s, p, d)           1.850000    2.230000    2.230000
        zeta-weighting                 0.500000
      * Dispersion:
        s8                             2.700000
        a1                             0.520000
        a2                             5.000000
        s9                             5.000000
      * Repulsion:
        kExp                           1.500000    1.000000
        rExp                           1.000000
      * Coulomb:
        alpha                          2.000000
        third order                    shell-resolved
        anisotropic                    true
        a3                             3.000000
        a5                             4.000000
        cn-shift                       1.200000
        cn-exp                         4.000000
        max-rad                        5.000000


          ...................................................
          :                      SETUP                      :
          :.................................................:
          :  # basis functions                   9          :
          :  # atomic orbitals                   9          :
          :  # shells                            5          :
          :  # electrons                        13          :
          :  max. iterations                   250          :
          :  Hamiltonian                  GFN2-xTB          :
          :  restarted?                      false          :
          :  GBSA solvation                  false          :
          :  PC potential                    false          :
          :  electronic temp.          300.0000000     K    :
          :  accuracy                    1.0000000          :
          :  -> integral cutoff          0.2500000E+02      :
          :  -> integral neglect         0.1000000E-07      :
          :  -> SCF convergence          0.1000000E-05 Eh   :
          :  -> wf. convergence          0.1000000E-03 e    :
          :  Broyden damping             0.4000000          :
          ...................................................

 iter      E             dE          RMSdq      gap      omega  full diag
   1     -8.0576278 -0.805763E+01  0.375E+00    3.55       0.0  T
   2     -8.0578810 -0.253214E-03  0.225E+00    3.45       1.0  T
   3     -8.0578984 -0.174015E-04  0.251E-01    3.36       1.0  T
   4     -8.0579869 -0.884941E-04  0.987E-02    3.36       1.0  T
   5     -8.0579912 -0.427764E-05  0.288E-02    3.38       2.0  T
   6     -8.0579911  0.687018E-07  0.212E-02    3.38       2.7  T
   7     -8.0579918 -0.656709E-06  0.337E-03    3.38      17.1  T
   8     -8.0579918 -0.663362E-08  0.300E-04    3.38     192.7  T
   9     -8.0579918 -0.427249E-10  0.172E-04    3.38     336.3  T

   *** convergence criteria satisfied after 9 iterations ***

         #    Occupation            Energy/Eh            Energy/eV
      -------------------------------------------------------------
         1        2.0000           -0.7767656             -21.1369
         2        2.0000           -0.7186528             -19.5555
         3        2.0000           -0.6507181             -17.7069
         4        2.0000           -0.6080455             -16.5458
         5        2.0000           -0.6021351             -16.3849
         6        1.0000           -0.4765509             -12.9676
         7        1.0000           -0.4396100             -11.9624
         8        1.0000           -0.0564512              -1.5361 (HOMO)
         9                          0.0676432               1.8407 (LUMO)
      -------------------------------------------------------------
                  HL-Gap            0.1240944 Eh            3.3768 eV
             Fermi-level           -0.2668735 Eh           -7.2620 eV

 SCC (total)                   0 d,  0 h,  0 min,  0.001 sec
 SCC setup                      ...        0 min,  0.000 sec (  6.032%)
 Dispersion                     ...        0 min,  0.000 sec (  0.785%)
 integral evaluation            ...        0 min,  0.000 sec ( 24.946%)
 zeroth order Hamiltonian       ...        0 min,  0.000 sec (  0.769%)
 iterations                     ...        0 min,  0.001 sec ( 42.540%)
 molecular gradient             ...        0 min,  0.000 sec ( 20.602%)
 printout                       ...        0 min,  0.000 sec (  3.659%)

         :::::::::::::::::::::::::::::::::::::::::::::::::::::
         ::                     SUMMARY                     ::
         :::::::::::::::::::::::::::::::::::::::::::::::::::::
         :: total energy              -8.042663339514 Eh    ::
         :: gradient norm              0.875973572291 Eh/a0 ::
         :: HOMO-LUMO gap              3.376779417113 eV    ::
         ::.................................................::
         :: SCC energy                -8.057991757080 Eh    ::
         :: -> isotropic ES            0.016471960605 Eh    ::
         :: -> anisotropic ES         -0.000860428443 Eh    ::
         :: -> anisotropic XC         -0.005992367093 Eh    ::
         :: -> dispersion             -0.000315543541 Eh    ::
         :: repulsion energy           0.015328417370 Eh    ::
         :: add. restraining           0.000000000000 Eh    ::
         :::::::::::::::::::::::::::::::::::::::::::::::::::::

      ----------------------------------------------------------- 
     |                   =====================                   |
     |                        A N C O P T                        |
     |                   =====================                   |
     |               Approximate Normal Coordinate               |
     |                Rational Function Optimizer                |
      ----------------------------------------------------------- 

          ...................................................
          :                      SETUP                      :
          :.................................................:
          :   optimization level            normal          :
          :   max. optcycles                   200          :
          :   ANC micro-cycles                  20          :
          :   degrees of freedom                 3          :
          :.................................................:
          :   RF solver                   davidson          :
          :   write xtbopt.log                true          :
          :   linear?                        false          :
          :   energy convergence         0.5000000E-05 Eh   :
          :   grad. convergence          0.1000000E-02 Eh/α :
          :   maximium RF displ.         1.0000000          :
          :   Hlow (freq-cutoff)         0.1000000E-01      :
          :   Hmax (freq-cutoff)         5.0000000          :
          :   S6 in model hess.         20.0000000          :
          ...................................................

generating ANC from model Hessian ...
Using Lindh-Hessian (1995)
 Shifting diagonal of input Hessian by    0.0000000000000000     
 Lowest  eigenvalues of input Hessian
   -0.000000   -0.000000   -0.000000    0.000000    0.000000    0.000000
    0.268482    1.156376    1.523988
 Highest eigenvalues
    0.000000    0.000000    0.000000    0.268482    1.156376    1.523988


........................................................................
.............................. CYCLE    1 ..............................
........................................................................
   1     -8.0579918 -0.805799E+01  0.197E-05    3.38       0.0  T
   2     -8.0579918 -0.976996E-13  0.127E-05    3.38    4554.6  T
   3     -8.0579918 -0.248690E-13  0.649E-06    3.38    8893.8  T
     SCC iter.                  ...        0 min,  0.000 sec
     gradient                   ...        0 min,  0.000 sec
 * total energy  :    -8.0426633 Eh     change       -0.4285461E-10 Eh
   gradient norm :     0.8759742 Eh/α   predicted     0.0000000E+00 (-100.00%)
   displ. norm   :     0.5098385 α      lambda       -0.4259629E+00
   maximum displ.:     0.4244107 α      in ANC's #3, #1, #2, ...

........................................................................
.............................. CYCLE    2 ..............................
........................................................................
   1     -8.2304945 -0.823049E+01  0.326E+00   11.16       0.0  T
   2     -8.1835855  0.469090E-01  0.492E+00   11.43       1.0  T
   3     -8.2488061 -0.652206E-01  0.139E+00   11.15       1.0  T
   4     -8.2485637  0.242362E-03  0.445E-01   11.06       1.0  T
   5     -8.2490768 -0.513079E-03  0.767E-02   11.07       1.0  T
   6     -8.2490839 -0.711428E-05  0.211E-02   11.08       2.7  T
   7     -8.2490841 -0.192347E-06  0.845E-03   11.08       6.8  T
   8     -8.2490842 -0.456022E-07  0.298E-03   11.08      19.4  T
   9     -8.2490842 -0.540359E-08  0.433E-04   11.08     133.2  T
  10     -8.2490842 -0.113985E-09  0.165E-04   11.08     349.9  T
     SCC iter.                  ...        0 min,  0.000 sec
     gradient                   ...        0 min,  0.000 sec
 * total energy  :    -8.2366872 Eh     change       -0.1940239E+00 Eh
   gradient norm :     0.1128826 Eh/α   predicted    -0.2683428E+00 (  38.30%)
   displ. norm   :     0.0719788 α      lambda       -0.8091101E-02
   maximum displ.:     0.0709904 α      in ANC's #3, #1, #2, ...

........................................................................
.............................. CYCLE    3 ..............................
........................................................................
   1     -8.2580595 -0.825806E+01  0.411E-01   12.74       0.0  T
   2     -8.2569221  0.113736E-02  0.749E-01   12.77       1.0  T
   3     -8.2583745 -0.145239E-02  0.169E-01   12.74       1.0  T
   4     -8.2583773 -0.273838E-05  0.239E-02   12.72       2.4  T
   5     -8.2583777 -0.478573E-06  0.912E-03   12.73       6.3  T
   6     -8.2583778 -0.498967E-07  0.315E-03   12.73      18.3  T
   7     -8.2583778 -0.771472E-08  0.895E-04   12.73      64.5  T
   8     -8.2583778 -0.646875E-09  0.223E-04   12.73     259.1  T
     SCC iter.                  ...        0 min,  0.000 sec
     gradient                   ...        0 min,  0.000 sec
 * total energy  :    -8.2430097 Eh     change       -0.6322544E-02 Eh
   gradient norm :     0.0671371 Eh/α   predicted    -0.4066511E-02 ( -35.68%)
   displ. norm   :     0.1028787 α      lambda       -0.6899843E-02
   maximum displ.:     0.1012916 α      in ANC's #3, #2, #1, ...

........................................................................
.............................. CYCLE    4 ..............................
........................................................................
   1     -8.2647244 -0.826472E+01  0.433E-01   14.22       0.0  T
   2     -8.2632376  0.148684E-02  0.842E-01   14.25       1.0  T
   3     -8.2649564 -0.171885E-02  0.235E-01   14.22       1.0  T
   4     -8.2649687 -0.122859E-04  0.182E-02   14.21       3.2  T
   5     -8.2649688 -0.142918E-06  0.872E-03   14.21       6.6  T
   6     -8.2649689 -0.217941E-07  0.270E-03   14.21      21.3  T
   7     -8.2649689 -0.768579E-08  0.742E-04   14.21      77.8  T
   8     -8.2649689 -0.431349E-09  0.127E-04   14.21     453.7  T
     SCC iter.                  ...        0 min,  0.000 sec
     gradient                   ...        0 min,  0.000 sec
 * total energy  :    -8.2473304 Eh     change       -0.4320689E-02 Eh
   gradient norm :     0.0256891 Eh/α   predicted    -0.3486436E-02 ( -19.31%)
   displ. norm   :     0.0511130 α      lambda       -0.1234688E-02
   maximum displ.:     0.0454438 α      in ANC's #3, #2, #1, ...

........................................................................
.............................. CYCLE    5 ..............................
........................................................................
   1     -8.2647389 -0.826474E+01  0.205E-01   14.21       0.0  T
   2     -8.2646593  0.795935E-04  0.180E-01   14.20       1.0  T
   3     -8.2645982  0.610505E-04  0.260E-01   14.22       1.0  T
   4     -8.2647496 -0.151417E-03  0.614E-03   14.21       9.4  T
   5     -8.2647497 -0.140822E-07  0.214E-03   14.21      26.9  T
   6     -8.2647497 -0.165012E-08  0.917E-04   14.21      62.9  T
   7     -8.2647497 -0.524480E-09  0.278E-04   14.21     207.6  T
     SCC iter.                  ...        0 min,  0.000 sec
     gradient                   ...        0 min,  0.000 sec
 * total energy  :    -8.2481319 Eh     change       -0.8015062E-03 Eh
   gradient norm :     0.0089724 Eh/α   predicted    -0.6189553E-03 ( -22.78%)
   displ. norm   :     0.0237472 α      lambda       -0.1910115E-03
   maximum displ.:     0.0199378 α      in ANC's #3, #2, #1, ...

........................................................................
.............................. CYCLE    6 ..............................
........................................................................
   1     -8.2641146 -0.826411E+01  0.119E-01   14.11       0.0  T
   2     -8.2639971  0.117520E-03  0.202E-01   14.10       1.0  T
   3     -8.2641069 -0.109784E-03  0.104E-01   14.11       1.0  T
   4     -8.2641279 -0.209920E-04  0.375E-03   14.11      15.4  T
   5     -8.2641279 -0.386865E-08  0.179E-03   14.11      32.3  T
   6     -8.2641279 -0.165516E-08  0.564E-04   14.11     102.4  T
   7     -8.2641279 -0.196611E-09  0.143E-04   14.11     404.3  T
     SCC iter.                  ...        0 min,  0.000 sec
     gradient                   ...        0 min,  0.000 sec
 * total energy  :    -8.2482375 Eh     change       -0.1055529E-03 Eh
   gradient norm :     0.0010982 Eh/α   predicted    -0.9555875E-04 (  -9.47%)
   displ. norm   :     0.0059831 α      lambda       -0.4065411E-05
   maximum displ.:     0.0041540 α      in ANC's #3, #1, #2, ...

........................................................................
.............................. CYCLE    7 ..............................
........................................................................
   1     -8.2639839 -0.826398E+01  0.342E-02   14.09       0.0  T
   2     -8.2639697  0.141423E-04  0.712E-02   14.09       1.0  T
   3     -8.2639846 -0.148850E-04  0.217E-02   14.09       2.7  T
   4     -8.2639854 -0.804109E-06  0.912E-04   14.09      63.3  T
   5     -8.2639854 -0.283523E-09  0.548E-04   14.09     105.4  T
     SCC iter.                  ...        0 min,  0.000 sec
     gradient                   ...        0 min,  0.000 sec
 * total energy  :    -8.2482404 Eh     change       -0.2921466E-05 Eh
   gradient norm :     0.0008350 Eh/α   predicted    -0.2032775E-05 ( -30.42%)
   displ. norm   :     0.0037145 α      lambda       -0.1476666E-05
   maximum displ.:     0.0037069 α      in ANC's #1, #3, #2, ...

   *** GEOMETRY OPTIMIZATION CONVERGED AFTER 7 ITERATIONS ***

------------------------------------------------------------------------
 total energy gain   :        -0.2055771 Eh     -129.0016 kcal/mol
 total RMSD          :         0.4272520 a0        0.2261 Å
 total power (kW/mol):       -77.1060753 (step)********** (real)
------------------------------------------------------------------------

 ANCopt (total)                0 d,  0 h,  0 min,  0.007 sec
 optimizer setup                ...        0 min,  0.000 sec (  1.033%)
 model hessian                  ...        0 min,  0.000 sec (  0.678%)
 ANC generation                 ...        0 min,  0.000 sec (  0.550%)
 coordinate transformation      ...        0 min,  0.000 sec (  0.240%)
 single point calculation       ...        0 min,  0.006 sec ( 89.879%)
 optimization log               ...        0 min,  0.000 sec (  2.005%)
 hessian update                 ...        0 min,  0.000 sec (  0.233%)
 rational function              ...        0 min,  0.000 sec (  1.843%)

================
 final structure:
================
3
 xtb: 6.2.2 (9d81278992624c895f80dd42a50cac0aa55982e2)
O        -0.37551409520035    0.53902135490817   -0.00000000000000
O         1.28656595561736   -0.27346846369580   -0.00000000000000
H        -0.91105286041701   -0.26555189121238    0.00000000000000

 Bond Distances (Angstroems)
 ---------------------------
O1-H3=0.9665         H3-O1=0.9665         
 O  H  Rav=0.9665 sigma=0.0000  Rmin=0.9665  Rmax=0.9665     1

 selected bond angles (degree)
 --------------------


 selected dihedral angles (degree)
 ---------------------------------

           -------------------------------------------------
          |                Final Singlepoint                |
           -------------------------------------------------

          ...................................................
          :                      SETUP                      :
          :.................................................:
          :  # basis functions                   9          :
          :  # atomic orbitals                   9          :
          :  # shells                            5          :
          :  # electrons                        13          :
          :  max. iterations                   250          :
          :  Hamiltonian                  GFN2-xTB          :
          :  restarted?                      false          :
          :  GBSA solvation                  false          :
          :  PC potential                    false          :
          :  electronic temp.          300.0000000     K    :
          :  accuracy                    1.0000000          :
          :  -> integral cutoff          0.2500000E+02      :
          :  -> integral neglect         0.1000000E-07      :
          :  -> SCF convergence          0.1000000E-05 Eh   :
          :  -> wf. convergence          0.1000000E-03 e    :
          :  Broyden damping             0.4000000          :
          ...................................................

 iter      E             dE          RMSdq      gap      omega  full diag
   1     -8.2639854 -0.826399E+01  0.147E-04   14.09       0.0  T
   2     -8.2639854  0.217966E-09  0.320E-04   14.09     180.4  T
   3     -8.2639854 -0.244745E-09  0.103E-04   14.09     560.3  T

   *** convergence criteria satisfied after 3 iterations ***

         #    Occupation            Energy/Eh            Energy/eV
      -------------------------------------------------------------
         1        2.0000           -0.7295154             -19.8511
         2        2.0000           -0.7045678             -19.1723
         3        2.0000           -0.6111871             -16.6312
         4        2.0000           -0.5850548             -15.9202
         5        2.0000           -0.5423307             -14.7576
         6        1.0000           -0.5180023             -14.0956
         7        1.0000           -0.5035340             -13.7019
         8        1.0000           -0.4158669             -11.3163 (HOMO)
         9                          0.1018742               2.7721 (LUMO)
      -------------------------------------------------------------
                  HL-Gap            0.5177411 Eh           14.0885 eV
             Fermi-level           -0.3435814 Eh           -9.3493 eV

 SCC (total)                   0 d,  0 h,  0 min,  0.001 sec
 SCC setup                      ...        0 min,  0.000 sec (  8.211%)
 Dispersion                     ...        0 min,  0.000 sec (  0.435%)
 integral evaluation            ...        0 min,  0.000 sec ( 38.227%)
 zeroth order Hamiltonian       ...        0 min,  0.000 sec (  0.571%)
 iterations                     ...        0 min,  0.000 sec ( 17.917%)
 molecular gradient             ...        0 min,  0.000 sec ( 29.092%)
 printout                       ...        0 min,  0.000 sec (  4.323%)

         :::::::::::::::::::::::::::::::::::::::::::::::::::::
         ::                     SUMMARY                     ::
         :::::::::::::::::::::::::::::::::::::::::::::::::::::
         :: total energy              -8.248240411383 Eh    ::
         :: gradient norm              0.000833824656 Eh/a0 ::
         :: HOMO-LUMO gap             14.088453087279 eV    ::
         ::.................................................::
         :: SCC energy                -8.263985401346 Eh    ::
         :: -> isotropic ES            0.013933684358 Eh    ::
         :: -> anisotropic ES         -0.001150524945 Eh    ::
         :: -> anisotropic XC         -0.001182908414 Eh    ::
         :: -> dispersion             -0.000323402615 Eh    ::
         :: repulsion energy           0.015744989172 Eh    ::
         :: add. restraining           0.000000000000 Eh    ::
         :::::::::::::::::::::::::::::::::::::::::::::::::::::

           ------------------------------------------------- 
          |                Numerical Hessian                |
           ------------------------------------------------- 
step length          :   0.00500
SCC accuracy         :   0.30000
Hessian scale factor :   1.00000
frozen atoms in %    :   0.00000    0
RMS gradient         :   0.00083
estimated CPU  time      0.00 min
estimated wall time      0.00 min
Molecule has the following symmetry elements: (sigma) 
It seems to be the Cs point group

writing file <hessian>.

 projected vibrational frequencies (cm-1)
eigval :       -0.00    -0.00     0.00     0.00     0.00     0.00
eigval :      473.91   658.38  3509.49
           -------------------------------------------------
          |                Property Printout                |
           -------------------------------------------------

    * Orbital Energies and Occupations

         #    Occupation            Energy/Eh            Energy/eV
      -------------------------------------------------------------
         1        2.0000           -0.7295157             -19.8511
         2        2.0000           -0.7045679             -19.1723
         3        2.0000           -0.6111872             -16.6313
         4        2.0000           -0.5850551             -15.9202
         5        2.0000           -0.5423309             -14.7576
         6        1.0000           -0.5180022             -14.0956
         7        1.0000           -0.5035343             -13.7019
         8        1.0000           -0.4158671             -11.3163 (HOMO)
         9                          0.1018745               2.7721 (LUMO)
      -------------------------------------------------------------
                  HL-Gap            0.5177416 Eh           14.0885 eV
             Fermi-level           -0.3435814 Eh           -9.3493 eV

     #   Z        covCN         q      C6AA      α(0)
     1   8 O      0.943    -0.245    18.775     5.811
     2   8 O      0.139    -0.108    17.115     5.452
     3   1 H      0.805     0.352     0.583     1.199

 Mol. C6AA /au·bohr⁶  :         84.995788
 Mol. C8AA /au·bohr⁸  :       1652.743448
 Mol. α(0) /au        :         12.461948


Wiberg/Mayer (AO) data.
largest (>0.10) Wiberg bond orders for each atom
          total WBO             WBO to atom ...
     1  O   1.390        H    3 0.856    O    2 0.533
     2  O   0.543        O    1 0.533
     3  H   0.866        O    1 0.856

MOs/occ written to file <molden.input>


molecular dipole:
                 x           y           z       tot (Debye)
 q only:       -0.695      -0.370       0.000
   full:       -0.778      -0.499       0.000       2.349
molecular quadrupole (traceless):
                xx          xy          yy          xz          yz          zz
 q only:        0.381       0.925      -0.336      -0.000      -0.000      -0.045
  q+dip:        0.740       1.437      -0.655      -0.000      -0.000      -0.085
   full:        0.536       1.655      -0.479      -0.000      -0.000      -0.057

           -------------------------------------------------
          |                Geometry Summary                 |
           -------------------------------------------------

      molecular mass/u    :       33.0067506
   center of mass at/Å    :        0.4137948       0.1206104      -0.0000017
  moments of inertia/u·Å² :        0.8616577E+00   0.2849845E+02   0.2936011E+02
rotational constants/cm⁻¹ :        0.1956419E+02   0.5915281E+00   0.5741680E+00

           -------------------------------------------------
          |               Frequency Printout                |
           -------------------------------------------------
 projected vibrational frequencies (cm-1)
eigval :       -0.00    -0.00     0.00     0.00     0.00     0.00
eigval :      473.91   658.38  3509.49
 reduced masses (amu)
   1:  1.01   2: 16.00   3: 15.95   4: 15.53   5: 15.95   6: 14.68   7:  2.17   8: 15.85
   9:  1.90
 IR intensities (amu)
   1:  0.44   2:  0.33   3:  0.16   4:  0.20   5:  0.11   6:  0.18   7:  0.40   8:  0.18
   9:  0.36
 Raman intensities (amu)
   1:  0.00   2:  0.00   3:  0.00   4:  0.00   5:  0.00   6:  0.00   7:  0.00   8:  0.00
   9:  0.00
 output can be read by thermo (or use thermo option).
 writing <g98.out> molden fake output.
 recommended (thermochemical) frequency scaling factor: 1.0
           -------------------------------------------------
          |             Thermodynamic Functions             |
           -------------------------------------------------

cs  symmetry found (for desy threshold:  0.10E+00) used in thermo

          ...................................................
          :                      SETUP                      :
          :.................................................:
          :  # frequencies                           3      :
          :  # imaginary freq.                       0      :
          :  linear?                             false      :
          :  only rotor calc.                    false      :
          :  symmetry                               cs      :
          :  rotational number                       1      :
          :  scaling factor                  1.0000000      :
          :  rotor cutoff                   50.0000000 cm⁻¹ :
          :  imag. cutoff                  -20.0000000 cm⁻¹ :
          :.................................................:

    mode    ω/cm⁻¹     T·S(HO)/kcal·mol⁻¹    T·S(FR)/kcal·mol⁻¹   T·S(vib)
   ------------------------------------------------------------------------
   ------------------------------------------------------------------------

   temp. (K)  partition function   enthalpy   heat capacity  entropy
                                   cal/mol     cal/K/mol   cal/K/mol   J/K/mol
 298.15  VIB   1.16                  235.122      2.219      1.086
         ROT  0.205E+04              888.752      2.981     18.136
         INT  0.238E+04             1123.875      5.200     19.222
         TR   0.183E+27             1481.254      4.968     36.397
         TOT                        2605.1287    10.1680    55.6197   232.7127

   temp. (K)  partition function   enthalpy   heat capacity  entropy
                                   cal/mol     cal/K/mol   cal/K/mol   J/K/mol
 120.00  VIB   1.00                    5.334      0.266      0.052
         ROT   524.                  357.707      2.981     15.423
         INT   526.                  363.041      3.247     15.475
         TR   0.468E+26              596.178      4.968     31.878
         TOT                         959.2186     8.2153    47.3532   198.1259

   temp. (K)  partition function   enthalpy   heat capacity  entropy
                                   cal/mol     cal/K/mol   cal/K/mol   J/K/mol
 100.00  VIB   1.00                    1.628      0.115      0.019
         ROT   398.                  298.089      2.981     14.880
         INT   399.                  299.717      3.096     14.898
         TR   0.356E+26              496.815      4.968     30.973
         TOT                         796.5319     8.0640    45.8710   191.9242

   temp. (K)  partition function   enthalpy   heat capacity  entropy
                                   cal/mol     cal/K/mol   cal/K/mol   J/K/mol
  80.00  VIB   1.00                    0.283      0.031      0.004
         ROT   285.                  238.471      2.981     14.214
         INT   285.                  238.754      3.012     14.218
         TR   0.255E+26              397.452      4.968     29.865
         TOT                         636.2062     7.9798    44.0831   184.4435

   temp. (K)  partition function   enthalpy   heat capacity  entropy
                                   cal/mol     cal/K/mol   cal/K/mol   J/K/mol
  60.00  VIB   1.00                    0.016      0.003      0.000
         ROT   185.                  178.853      2.981     13.357
         INT   185.                  178.869      2.984     13.357
         TR   0.166E+26              298.089      4.968     28.436
         TOT                         476.9584     7.9521    41.7933   174.8630

   temp. (K)  partition function   enthalpy   heat capacity  entropy
                                   cal/mol     cal/K/mol   cal/K/mol   J/K/mol
  40.00  VIB   1.00                    0.000      0.000     -0.000
         ROT   101.                  119.236      2.981     12.148
         INT   101.                  119.236      2.981     12.148
         TR   0.902E+25              198.726      4.968     26.423
         TOT                         317.9617     7.9491    38.5708   161.3804

   temp. (K)  partition function   enthalpy   heat capacity  entropy
                                   cal/mol     cal/K/mol   cal/K/mol   J/K/mol
  20.00  VIB   1.00                    0.000      0.000     -0.000
         ROT   35.6                   59.618      2.981     10.082
         INT   35.6                   59.618      2.981     10.082
         TR   0.319E+25               99.363      4.968     22.981
         TOT                         158.9808     7.9490    33.0626   138.3337

   temp. (K)  partition function   enthalpy   heat capacity  entropy
                                   cal/mol     cal/K/mol   cal/K/mol   J/K/mol
  10.00  VIB   1.00                    0.000      0.000     -0.000
         ROT   12.6                   29.809      2.981      8.016
         INT   12.6                   29.809      2.981      8.016
         TR   0.113E+25               49.681      4.968     19.539
         TOT                          79.4904     7.9490    27.5543   115.2871

       T/K    H(0)-H(T)+PV         H(T)/Eh          T*S/Eh         G(T)/Eh
   ------------------------------------------------------------------------
    298.15    0.415154E-02    0.147263E-01    0.264267E-01   -0.117004E-01
    120.00    0.152861E-02    0.121034E-01    0.905546E-02    0.304792E-02
    100.00    0.126935E-02    0.118441E-01    0.731001E-02    0.453412E-02
     80.00    0.101386E-02    0.115886E-01    0.562007E-02    0.596856E-02
     60.00    0.760082E-03    0.113349E-01    0.399611E-02    0.733874E-02
     40.00    0.506704E-03    0.110815E-01    0.245866E-02    0.862281E-02
     20.00    0.253352E-03    0.108281E-01    0.105377E-02    0.977435E-02
     10.00    0.126676E-03    0.107014E-01    0.439105E-03    0.102623E-01 (used)
   ------------------------------------------------------------------------

         :::::::::::::::::::::::::::::::::::::::::::::::::::::
         ::                  THERMODYNAMIC                  ::
         :::::::::::::::::::::::::::::::::::::::::::::::::::::
         :: total free energy          -8.237978069147 Eh   ::
         ::.................................................::
         :: total energy               -8.248240411357 Eh   ::
         :: zero point energy           0.010574771527 Eh   ::
         :: G(RRHO) w/o ZPVE           -0.000312429317 Eh   ::
         :: G(RRHO) contrib.            0.010262342210 Eh   ::
         :::::::::::::::::::::::::::::::::::::::::::::::::::::

optimized geometry written to: xtbopt.xyz


           -------------------------------------------------
          | TOTAL ENERGY               -8.248240411357 Eh   |
          | TOTAL ENTHALPY             -8.237538963814 Eh   |
          | TOTAL FREE ENERGY          -8.237978069147 Eh   |
          | GRADIENT NORM               0.000833953306 Eh/α |
          | HOMO-LUMO GAP              14.088465977561 eV   |
           -------------------------------------------------

------------------------------------------------------------------------
 * finished run on 2020/05/12 at 11:45:16.207     
------------------------------------------------------------------------
 total:
 * wall-time:     0 d,  0 h,  0 min,  0.044 sec
 *  cpu-time:     0 d,  0 h,  0 min,  0.044 sec
 * ratio c/w:     0.999 speedup
 SCF:
 * wall-time:     0 d,  0 h,  0 min,  0.002 sec
 *  cpu-time:     0 d,  0 h,  0 min,  0.002 sec
 * ratio c/w:     1.000 speedup
 ANC optimizer:
 * wall-time:     0 d,  0 h,  0 min,  0.009 sec
 *  cpu-time:     0 d,  0 h,  0 min,  0.009 sec
 * ratio c/w:     1.000 speedup
 numerical hessian:
 * wall-time:     0 d,  0 h,  0 min,  0.017 sec
 *  cpu-time:     0 d,  0 h,  0 min,  0.016 sec
 * ratio c/w:     0.998 speedup

