 Entering Gaussian System
 *********************************************
 Gaussian 98:
 frequency output generated by the xtb code
 *********************************************
                         Standard orientation:
 --------------------------------------------------------------------
  Center     Atomic     Atomic              Coordinates (Angstroms)
  Number     Number      Type              X           Y           Z
 --------------------------------------------------------------------
    1          8             0       -0.375511    0.539023    0.000000
    2          8             0        1.286565   -0.273475   -0.000004
    3          1             0       -0.911054   -0.265547    0.000004
 --------------------------------------------------------------------
     1 basis functions        1 primitive gaussians
     1 alpha electrons        1 beta electrons

 Harmonic frequencies (cm**-1), IR intensities (KM/Mole),
 Raman scattering activities (A**4/amu), Raman depolarization ratios,
 reduced masses (AMU), force constants (mDyne/A) and normal coordinates:
                      1                      2                      3
                        a                      a                      a 
 Frequencies --   473.9141               658.3804              3509.4937
 Red. masses --     2.1692                15.8464                 1.8954
 Frc consts  --     0.0000                 0.0000                 0.0000
 IR Inten    --     0.4003                 0.1750                 0.3639
 Raman Activ --     0.0000                 0.0000                 0.0000
 Depolar     --     0.0000                 0.0000                 0.0000
 Atom AN      X      Y      Z        X      Y      Z        X      Y      Z
   1   8     0.11  -0.22   0.00     0.62  -0.29  -0.00     0.14   0.20  -0.00
   2   8     0.10   0.09  -0.00    -0.65   0.30   0.00     0.00   0.00  -0.00
   3   1    -0.82   0.51   0.00     0.10  -0.03  -0.00    -0.54  -0.81   0.00
