$hessian                                                                        
        0.2399742242   0.1523509002  -0.0000011036  -0.1048767005   0.0511085840
        0.0000002769  -0.1350975237  -0.2034594842   0.0000008267
        0.1523509002   0.3347838613  -0.0000011161   0.0473457381  -0.0259778795
       -0.0000001199  -0.1996966383  -0.3088059818   0.0000012360
       -0.0000011036  -0.0000011161   0.0000000000   0.0000002835  -0.0000001331
       -0.0000000000   0.0000008201   0.0000012492  -0.0000000000
       -0.1048767005   0.0473457381   0.0000002835   0.1117904108  -0.0503375087
       -0.0000003024  -0.0069137103   0.0029917706   0.0000000189
        0.0511085840  -0.0259778795  -0.0000001331  -0.0503375087   0.0252235771
        0.0000001317  -0.0007710753   0.0007543023   0.0000000014
        0.0000002769  -0.0000001199  -0.0000000000  -0.0000003024   0.0000001317
        0.0000000000   0.0000000255  -0.0000000118  -0.0000000000
       -0.1350975237  -0.1996966383   0.0000008201  -0.0069137103  -0.0007710753
        0.0000000255   0.1420112340   0.2004677136  -0.0000008456
       -0.2034594842  -0.3088059818   0.0000012492   0.0029917706   0.0007543023
       -0.0000000118   0.2004677136   0.3080516795  -0.0000012374
        0.0000008267   0.0000012360  -0.0000000000   0.0000000189   0.0000000014
       -0.0000000000  -0.0000008456  -0.0000012374   0.0000000000
