[Molden Format]
[Title]
[Atoms] AU
O      1     8 -0.70961339662817E+00  0.10186063571348E+01  0.69923966802692E-06
O      2     8  0.24312543659114E+01 -0.51679318218478E+00 -0.75847361330806E-05
H      3     1 -0.17216428589993E+01 -0.50181128521416E+00  0.68854997632432E-05
[GTO]
           1 0
 s           4   1.0000000000000000     
   69.137961906196551      -0.20478756370077797     
   11.906129132707308      -0.24997023136827334     
  0.95670827744340703       0.40025880240639616     
  0.36462520496073686       0.15952206667693555     
 p           4   1.0000000000000000     
   8.2124193257781641        1.1321556799186829     
   2.1293576997098116        1.0476840782254817     
  0.75066448202360914       0.54956508217158984     
  0.29885246543283073        8.2908486592766617E-002

           2 0
 s           4   1.0000000000000000     
   69.137961906196551      -0.20478756370077797     
   11.906129132707308      -0.24997023136827334     
  0.95670827744340703       0.40025880240639616     
  0.36462520496073686       0.15952206667693555     
 p           4   1.0000000000000000     
   8.2124193257781641        1.1321556799186829     
   2.1293576997098116        1.0476840782254817     
  0.75066448202360914       0.54956508217158984     
  0.29885246543283073        8.2908486592766617E-002

           3 0
 s           3   1.0000000000000000     
   3.3702276975336001       0.27359110588908298     
  0.61389118221497996       0.26460540653860526     
  0.16614291148415999        8.2465947534082318E-002

[MO]
Sym=     1a
Ene=  -0.72951565155863374     
Spin= Alpha
Occup=     2.00000000
           1 -0.81260643874154626     
           2   3.1872330007601417E-002
           3  0.11054877633477220     
           4  -3.3085611505213602E-007
           5 -0.22776389142737827     
           6  0.11418327112339657     
           7  -2.7359489041555614E-002
           8  -3.4446932047970444E-007
           9 -0.21454010391888367     
Sym=     2a
Ene=  -0.70456792526312961     
Spin= Alpha
Occup=     2.00000000
           1  0.22942914170963075     
           2 -0.14957595824222214     
           3   2.2149457639749945E-002
           4   4.9308954750542517E-007
           5 -0.94850607168055445     
           6   2.1509553481130331E-002
           7   3.2856570929213770E-002
           8  -9.6224397392978844E-008
           9   7.5027695384045093E-002
Sym=     3a
Ene=  -0.61118720848834929     
Spin= Alpha
Occup=     2.00000000
           1  0.34464799312545463     
           2  0.52286635817363147     
           3  0.51013727367045725     
           4  -2.6462512271239999E-006
           5  -8.5183753889780459E-002
           6 -0.15894613972507721     
           7  0.26881965771193511     
           8   9.7079314955354306E-008
           9 -0.33878271483442501     
Sym=     4a
Ene=  -0.58505512620066447     
Spin= Alpha
Occup=     2.00000000
           1 -0.24724001873910498     
           2  0.39831574894377275     
           3 -0.53630217984759387     
           4  -4.9070946482694857E-007
           5 -0.16775628740116372     
           6 -0.59762274959215744     
           7  0.18074591239951679     
           8   1.7783854345171084E-006
           9   9.1698987695421494E-002
Sym=     5a
Ene=  -0.54233093325731974     
Spin= Alpha
Occup=     1.99999725
           1   2.2682136006641408E-008
           2  -2.3074725080287684E-006
           3  -1.1320564004136364E-006
           4 -0.65959112233863082     
           5  -2.0775500745898394E-008
           6  -2.4897409241180991E-006
           7  -1.1025855372067671E-006
           8 -0.73003343600308623     
           9   5.5692281578883145E-009
Sym=     6a
Ene=  -0.51800217646282287     
Spin= Alpha
Occup=     1.00000275
           1  -7.8491499947482932E-002
           2  -4.9113937947353858E-002
           3 -0.17912667477580219     
           4   6.9997366775136349E-007
           5   3.8996449538992346E-002
           6  0.42110067342971319     
           7  0.88453931048403134     
           8  -2.9832966079183425E-006
           9   8.9085052815904911E-002
Sym=     7a
Ene=  -0.50353429822122198     
Spin= Alpha
Occup=     1.00000000
           1   2.3810283903647154E-008
           2  -2.6215719747407648E-006
           3  -1.2974567909907819E-006
           4 -0.75235910442169529     
           5   2.8699458213931000E-008
           6   2.4531223305148327E-006
           7   1.3228443022540902E-006
           8  0.68421915567437941     
           9   3.9748274168189794E-009
Sym=     8a
Ene=  -0.41586709861898019     
Spin= Alpha
Occup=     1.00000000
           1 -0.17655856118589044     
           2 -0.65884219885177286     
           3  0.39158102897457736     
           4   1.6339140908835689E-006
           5  0.14736149254509445     
           6 -0.67039358304529140     
           7  0.34195383886271791     
           8   1.7573556846589214E-006
           9   2.7597153407900459E-002
Sym=     9a
Ene=   0.10187449930680627     
Spin= Alpha
Occup=     0.00000000
           1 -0.61479317330433669     
           2  0.46717334803388277     
           3  0.66517002807718595     
           4  -2.7854898301498723E-006
           5  -4.0877866316509248E-002
           6   5.0277704498737232E-002
           7  -1.7596668272389347E-002
           8  -1.4474340093404113E-007
           9   1.1796763136226001     
