3
 energy: -8.248240411383 gnorm: 0.000833824656 xtb: 6.2.2 (9d81278992624c895f80dd42a50cac0aa55982e2)
O        -0.37551127288699    0.53902332108717    0.00000037002173
O         1.28656452371603   -0.27347520013522   -0.00000401366988
H        -0.91105425082380   -0.26554712094671    0.00000364364990
