2
 energy: -5.894252578163 gnorm: 0.290055678310 xtb: 6.2.2 (9d81278992624c895f80dd42a50cac0aa55982e2)
O         0.69692200000000    0.00000000000000    0.00000000000000
C        -0.69692200000000    0.00000000000000    0.00000000000000
2
 energy: -5.941927735307 gnorm: 0.064273444938 xtb: 6.2.2 (9d81278992624c895f80dd42a50cac0aa55982e2)
O         0.60864230337031    0.00000000000000    0.00000000000000
C        -0.60864230337031    0.00000000000000    0.00000000000000
2
 energy: -5.941929443739 gnorm: 0.071846346335 xtb: 6.2.2 (9d81278992624c895f80dd42a50cac0aa55982e2)
O         0.58362405840093    0.00000000000000    0.00000000000000
C        -0.58362405840093    0.00000000000000    0.00000000000000
2
 energy: -5.943056989202 gnorm: 0.005594181097 xtb: 6.2.2 (9d81278992624c895f80dd42a50cac0aa55982e2)
O         0.59681270919414    0.00000000000000    0.00000000000000
C        -0.59681270919414    0.00000000000000    0.00000000000000
2
 energy: -5.943064693321 gnorm: 0.000445963167 xtb: 6.2.2 (9d81278992624c895f80dd42a50cac0aa55982e2)
O         0.59585998816062    0.00000000000000    0.00000000000000
C        -0.59585998816062    0.00000000000000    0.00000000000000
2
 energy: -5.943064729650 gnorm: 0.000227276057 xtb: 6.2.2 (9d81278992624c895f80dd42a50cac0aa55982e2)
O         0.59573619429575    0.00000000000000    0.00000000000000
C        -0.59573619429575    0.00000000000000    0.00000000000000
