      -----------------------------------------------------------      
     |                   =====================                   |     
     |                           x T B                           |     
     |                   =====================                   |     
     |                         S. Grimme                         |     
     |          Mulliken Center for Theoretical Chemistry        |     
     |                    University of Bonn                     |     
      -----------------------------------------------------------      

   * xtb version 6.2.2 (9d81278992624c895f80dd42a50cac0aa55982e2) compiled by '@Darwin' on 04/03/2020

   xtb is free software: you can redistribute it and/or modify it under
   the terms of the GNU Lesser General Public License as published by
   the Free Software Foundation, either version 3 of the License, or
   (at your option) any later version.
   
   xtb is distributed in the hope that it will be useful,
   but WITHOUT ANY WARRANTY; without even the implied warranty of
   MERCHANTABILITY or FITNESS FOR A PARTICULAR PURPOSE.  See the
   GNU Lesser General Public License for more details.
   
   Cite this work as:
   * S. Grimme, C. Bannwarth, P. Shushkov, J. Chem. Theory Comput., 2017,
     13, 1989-2009. DOI: 10.1021/acs.jctc.7b00118
   * C. Bannwarth, S. Ehlert and S. Grimme., J. Chem. Theory Comput., 2019,
     15, 1652-1671. DOI: 10.1021/acs.jctc.8b01176
   * P. Pracht, E. Caldeweyher, S. Ehlert, S. Grimme, ChemRxiv, 2019, preprint.
     DOI: 10.26434/chemrxiv.8326202.v1
   
   for DFT-D4:
   * E. Caldeweyher, C. Bannwarth and S. Grimme, J. Chem. Phys., 2017,
     147, 034112. DOI: 10.1063/1.4993215
   * E. Caldeweyher, S. Ehlert, A. Hansen, H. Neugebauer, S. Spicher,
     C. Bannwarth and S. Grimme, J. Chem. Phys., 2019, 150, 154122.
     DOI: 10.1063/1.5090222
   
   for sTDA-xTB:
   * S. Grimme and C. Bannwarth, J. Chem. Phys., 2016, 145, 054103.
     DOI: 10.1063/1.4959605
   
   in the mass-spec context:
   * V. Asgeirsson, C. Bauer and S. Grimme, Chem. Sci., 2017, 8, 4879.
     DOI: 10.1039/c7sc00601b
   
   for metadynamics refer to:
   * S. Grimme, J. Chem. Theory Comput., 2019, 155, 2847-2862
     DOI: 10.1021/acs.jctc.9b00143
   
   with help from (in alphabetical order)
   C. Bannwarth, F. Bohle, G. Brandenburg, E. Caldeweyher, M. Checinski,
   S. Dohm, S. Ehlert, S. Ehrlich, F. März, H. Neugebauer, J. Pisarek,
   P. Pracht, P. Shushkov, and S. Spicher.
   
 * started run on 2020/05/12 at 11:43:53.553     

           -------------------------------------------------
          |                Calculation Setup                |
           -------------------------------------------------

          program call               : xtb --input C1O1_0_S_2.input C1O1_0_S_2.xyz --ohess --molden --namespace C1O1_0_S_2 output.out
          calculation namespace      : C1O1_0_S_2
          coordinate file            : C1O1_0_S_2.xyz
          number of atoms            :                     2
          number of electrons        :                    10
          charge                     :                     0
          spin                       :                   1.0
          first test random number   :      0.80664611483822

   ID    Z sym.   atoms
    1    8 O      1
    2    6 C      2

           -------------------------------------------------
          |                 G F N 2 - x T B                 |
           -------------------------------------------------

        Reference                      10.1021/acs.jctc.8b01176
      * Hamiltonian:
        H0-scaling (s, p, d)           1.850000    2.230000    2.230000
        zeta-weighting                 0.500000
      * Dispersion:
        s8                             2.700000
        a1                             0.520000
        a2                             5.000000
        s9                             5.000000
      * Repulsion:
        kExp                           1.500000    1.000000
        rExp                           1.000000
      * Coulomb:
        alpha                          2.000000
        third order                    shell-resolved
        anisotropic                    true
        a3                             3.000000
        a5                             4.000000
        cn-shift                       1.200000
        cn-exp                         4.000000
        max-rad                        5.000000


          ...................................................
          :                      SETUP                      :
          :.................................................:
          :  # basis functions                   8          :
          :  # atomic orbitals                   8          :
          :  # shells                            4          :
          :  # electrons                        10          :
          :  max. iterations                   250          :
          :  Hamiltonian                  GFN2-xTB          :
          :  restarted?                      false          :
          :  GBSA solvation                  false          :
          :  PC potential                    false          :
          :  electronic temp.          300.0000000     K    :
          :  accuracy                    1.0000000          :
          :  -> integral cutoff          0.2500000E+02      :
          :  -> integral neglect         0.1000000E-07      :
          :  -> SCF convergence          0.1000000E-05 Eh   :
          :  -> wf. convergence          0.1000000E-03 e    :
          :  Broyden damping             0.4000000          :
          ...................................................

 iter      E             dE          RMSdq      gap      omega  full diag
   1     -5.8760541 -0.587605E+01  0.708E+00    0.00       0.0  T
   2     -5.8435842  0.324699E-01  0.504E+00    0.00       1.0  T
   3     -5.8710473 -0.274631E-01  0.459E+00    0.00       1.0  T
   4     -5.9024974 -0.314501E-01  0.186E-01    0.00       1.0  T
   5     -5.9024910  0.635580E-05  0.132E-01    0.00       1.0  T
   6     -5.9024910 -0.404353E-08  0.654E-02    0.00       1.1  T
   7     -5.9025001 -0.907395E-05  0.753E-03    0.00       9.4  T
   8     -5.9024996  0.503647E-06  0.154E-02    0.00       4.6  T
   9     -5.9025002 -0.642336E-06  0.285E-04    0.00     247.9  T
  10     -5.9025002  0.104735E-09  0.236E-04    0.00     299.9  T

   *** convergence criteria satisfied after 10 iterations ***

         #    Occupation            Energy/Eh            Energy/eV
      -------------------------------------------------------------
         1        2.0000           -0.7430494             -20.2194
         2        2.0000           -0.6288355             -17.1115
         3        2.0000           -0.5571517             -15.1609
         4        2.0000           -0.5571517             -15.1609
         5        1.0000           -0.5069978             -13.7961
         6        0.5000           -0.3741549             -10.1813 (HOMO)
         7        0.5000           -0.3741549             -10.1813 (LUMO)
         8                          0.0540964               1.4720
      -------------------------------------------------------------
                  HL-Gap            0.0000000 Eh            0.0000 eV
             Fermi-level           -0.4529565 Eh          -12.3256 eV

 transition dipole moment (au) for excitation:           5           6
     X       Y       Z   
  -0.0000   0.3345   0.1495  total (au/Debye):    0.366   0.931
 dE (eV)             :    3.615
 oscillator strength :  0.16810E-01

 SCC (total)                   0 d,  0 h,  0 min,  0.001 sec
 SCC setup                      ...        0 min,  0.000 sec (  6.368%)
 Dispersion                     ...        0 min,  0.000 sec (  0.550%)
 integral evaluation            ...        0 min,  0.000 sec ( 23.465%)
 zeroth order Hamiltonian       ...        0 min,  0.000 sec (  0.569%)
 iterations                     ...        0 min,  0.000 sec ( 34.041%)
 molecular gradient             ...        0 min,  0.000 sec ( 12.699%)
 printout                       ...        0 min,  0.000 sec ( 21.702%)

         :::::::::::::::::::::::::::::::::::::::::::::::::::::
         ::                     SUMMARY                     ::
         :::::::::::::::::::::::::::::::::::::::::::::::::::::
         :: total energy              -5.894252577788 Eh    ::
         :: gradient norm              0.290052855146 Eh/a0 ::
         :: HOMO-LUMO gap              0.000000000000 eV    ::
         ::.................................................::
         :: SCC energy                -5.902500227406 Eh    ::
         :: -> isotropic ES            0.010179115739 Eh    ::
         :: -> anisotropic ES          0.001350452738 Eh    ::
         :: -> anisotropic XC         -0.000468544964 Eh    ::
         :: -> dispersion             -0.000260613893 Eh    ::
         :: repulsion energy           0.008247649390 Eh    ::
         :: add. restraining           0.000000000000 Eh    ::
         :::::::::::::::::::::::::::::::::::::::::::::::::::::

      ----------------------------------------------------------- 
     |                   =====================                   |
     |                        A N C O P T                        |
     |                   =====================                   |
     |               Approximate Normal Coordinate               |
     |                Rational Function Optimizer                |
      ----------------------------------------------------------- 

          ...................................................
          :                      SETUP                      :
          :.................................................:
          :   optimization level            normal          :
          :   max. optcycles                   200          :
          :   ANC micro-cycles                  20          :
          :   degrees of freedom                 1          :
          :.................................................:
          :   RF solver                   davidson          :
          :   write xtbopt.log                true          :
          :   linear (good luck)              true          :
          :   energy convergence         0.5000000E-05 Eh   :
          :   grad. convergence          0.1000000E-02 Eh/α :
          :   maximium RF displ.         1.0000000          :
          :   Hlow (freq-cutoff)         0.1000000E-01      :
          :   Hmax (freq-cutoff)         5.0000000          :
          :   S6 in model hess.         20.0000000          :
          ...................................................

generating ANC from model Hessian ...
Using Lindh-Hessian (1995)
 Shifting diagonal of input Hessian by    9.9885601763318628E-003
 Lowest  eigenvalues of input Hessian
   -0.000000    0.000000    0.000000    0.010000    0.010000    1.161007
 Highest eigenvalues
   -0.000000    0.000000    0.000000    0.010000    0.010000    1.161007


........................................................................
.............................. CYCLE    1 ..............................
........................................................................
   1     -5.9025002 -0.590250E+01  0.962E-06    0.00       0.0  T
   2     -5.9025002  0.377476E-12  0.154E-05    0.00    4597.5  T
   3     -5.9025002 -0.637712E-12  0.130E-06    0.00   54490.8  T
     SCC iter.                  ...        0 min,  0.000 sec
     gradient                   ...        0 min,  0.000 sec
 * total energy  :    -5.8942526 Eh     change       -0.3758336E-09 Eh
   gradient norm :     0.2900557 Eh/α   predicted     0.0000000E+00 (-100.00%)
   displ. norm   :     0.2359254 α      lambda       -0.6843150E-01
   maximum displ.:     0.2359254 α      in ANC's #1, #1, #1, ...

........................................................................
.............................. CYCLE    2 ..............................
........................................................................
   1     -5.9727292 -0.597273E+01  0.212E+00    0.00       0.0  T
   2     -5.9736873 -0.958097E-03  0.164E+00    0.00       1.0  T
   3     -5.9761652 -0.247798E-02  0.852E-01    0.00       1.0  T
   4     -5.9762863 -0.121060E-03  0.122E-01    0.00       1.0  T
   5     -5.9762916 -0.530584E-05  0.713E-02    0.00       1.0  T
   6     -5.9763022 -0.106170E-04  0.509E-03    0.00      13.9  T
   7     -5.9763023 -0.493238E-07  0.231E-03    0.00      30.6  T
   8     -5.9763023 -0.119324E-07  0.422E-05    0.00    1677.2  T
   9     -5.9763023  0.162537E-12  0.151E-05    0.00    4668.2  T
     SCC iter.                  ...        0 min,  0.000 sec
     gradient                   ...        0 min,  0.000 sec
 * total energy  :    -5.9419277 Eh     change       -0.4767516E-01 Eh
   gradient norm :     0.0642734 Eh/α   predicted    -0.3612022E-01 ( -24.24%)
   displ. norm   :     0.0668607 α      lambda       -0.4297367E-02
   maximum displ.:     0.0668607 α      in ANC's #1, #1, #1, ...

........................................................................
.............................. CYCLE    3 ..............................
........................................................................
   1     -5.9924500 -0.599245E+01  0.620E-01    0.00       0.0  T
   2     -5.9926379 -0.187819E-03  0.450E-01    0.00       1.0  T
   3     -5.9927916 -0.153736E-03  0.232E-01    0.00       1.0  T
   4     -5.9927975 -0.589483E-05  0.198E-02    0.00       3.6  T
   5     -5.9927975 -0.355901E-07  0.801E-03    0.00       8.8  T
   6     -5.9927976 -0.993671E-07  0.743E-04    0.00      95.2  T
   7     -5.9927976 -0.180629E-10  0.467E-05    0.00    1514.7  T
     SCC iter.                  ...        0 min,  0.000 sec
     gradient                   ...        0 min,  0.000 sec
 * total energy  :    -5.9419294 Eh     change       -0.1708431E-05 Eh
   gradient norm :     0.0718463 Eh/α   predicted    -0.2158288E-02 (*******%)
   displ. norm   :     0.0352464 α      lambda       -0.2532325E-02
   maximum displ.:     0.0352464 α      in ANC's #1, #1, #1, ...

........................................................................
.............................. CYCLE    4 ..............................
........................................................................
   1     -5.9843478 -0.598435E+01  0.330E-01    0.00       0.0  T
   2     -5.9843971 -0.492776E-04  0.254E-01    0.00       1.0  T
   3     -5.9844573 -0.601921E-04  0.125E-01    0.00       1.0  T
   4     -5.9844589 -0.163357E-05  0.974E-03    0.00       7.3  T
   5     -5.9844589 -0.270124E-08  0.319E-03    0.00      22.1  T
   6     -5.9844589 -0.134613E-07  0.457E-04    0.00     154.7  T
   7     -5.9844589 -0.563114E-10  0.112E-05    0.00    6326.5  T
     SCC iter.                  ...        0 min,  0.000 sec
     gradient                   ...        0 min,  0.000 sec
 * total energy  :    -5.9430570 Eh     change       -0.1127545E-02 Eh
   gradient norm :     0.0055942 Eh/α   predicted    -0.1267734E-02 (  12.43%)
   displ. norm   :     0.0025461 α      lambda       -0.1424387E-04
   maximum displ.:     0.0025461 α      in ANC's #1, #1, #1, ...

........................................................................
.............................. CYCLE    5 ..............................
........................................................................
   1     -5.9850887 -0.598509E+01  0.237E-02    0.00       0.0  T
   2     -5.9850889 -0.245431E-06  0.181E-02    0.00       3.9  T
   3     -5.9850892 -0.296695E-06  0.899E-03    0.00       7.9  T
   4     -5.9850893 -0.890632E-08  0.727E-04    0.00      97.3  T
   5     -5.9850893 -0.827667E-10  0.668E-05    0.00    1059.3  T
     SCC iter.                  ...        0 min,  0.000 sec
     gradient                   ...        0 min,  0.000 sec
 * total energy  :    -5.9430647 Eh     change       -0.7704118E-05 Eh
   gradient norm :     0.0004460 Eh/α   predicted    -0.7121786E-05 (  -7.56%)
   displ. norm   :     0.0003308 α      lambda       -0.9899541E-07
   maximum displ.:     0.0003308 α      in ANC's #1, #1, #1, ...

........................................................................
.............................. CYCLE    6 ..............................
........................................................................
   1     -5.9851708 -0.598517E+01  0.307E-03    0.00       0.0  T
   2     -5.9851708 -0.414190E-08  0.235E-03    0.00      30.1  T
   3     -5.9851709 -0.497657E-08  0.117E-03    0.00      60.6  T
   4     -5.9851709 -0.147107E-09  0.946E-05    0.00     747.7  T
   5     -5.9851709 -0.138467E-11  0.724E-06    0.00    9764.8  T
     SCC iter.                  ...        0 min,  0.000 sec
     gradient                   ...        0 min,  0.000 sec
 * total energy  :    -5.9430647 Eh     change       -0.3632951E-07 Eh
   gradient norm :     0.0002273 Eh/α   predicted    -0.4918024E-07 (  35.37%)
   displ. norm   :     0.0001117 α      lambda       -0.1777578E-07
   maximum displ.:     0.0001117 α      in ANC's #1, #1, #1, ...

   *** GEOMETRY OPTIMIZATION CONVERGED AFTER 6 ITERATIONS ***

------------------------------------------------------------------------
 total energy gain   :        -0.0488122 Eh      -30.6301 kcal/mol
 total RMSD          :         0.1912134 a0        0.1012 Å
 total power (kW/mol):       -21.3593812 (step)********** (real)
------------------------------------------------------------------------

 ANCopt (total)                0 d,  0 h,  0 min,  0.004 sec
 optimizer setup                ...        0 min,  0.000 sec (  1.325%)
 model hessian                  ...        0 min,  0.000 sec (  0.365%)
 ANC generation                 ...        0 min,  0.000 sec (  0.494%)
 coordinate transformation      ...        0 min,  0.000 sec (  0.161%)
 single point calculation       ...        0 min,  0.004 sec ( 88.669%)
 optimization log               ...        0 min,  0.000 sec (  2.189%)
 hessian update                 ...        0 min,  0.000 sec (  0.204%)
 rational function              ...        0 min,  0.000 sec (  2.028%)

================
 final structure:
================
2
 xtb: 6.2.2 (9d81278992624c895f80dd42a50cac0aa55982e2)
O         0.59573619429575    0.00000000000000    0.00000000000000
C        -0.59573619429575    0.00000000000000    0.00000000000000

 Bond Distances (Angstroems)
 ---------------------------
O1-C2=1.1915         C2-O1=1.1915         
 O  C  Rav=1.1915 sigma=0.0000  Rmin=1.1915  Rmax=1.1915     1

 selected bond angles (degree)
 --------------------


 selected dihedral angles (degree)
 ---------------------------------

           -------------------------------------------------
          |                Final Singlepoint                |
           -------------------------------------------------

          ...................................................
          :                      SETUP                      :
          :.................................................:
          :  # basis functions                   8          :
          :  # atomic orbitals                   8          :
          :  # shells                            4          :
          :  # electrons                        10          :
          :  max. iterations                   250          :
          :  Hamiltonian                  GFN2-xTB          :
          :  restarted?                      false          :
          :  GBSA solvation                  false          :
          :  PC potential                    false          :
          :  electronic temp.          300.0000000     K    :
          :  accuracy                    1.0000000          :
          :  -> integral cutoff          0.2500000E+02      :
          :  -> integral neglect         0.1000000E-07      :
          :  -> SCF convergence          0.1000000E-05 Eh   :
          :  -> wf. convergence          0.1000000E-03 e    :
          :  Broyden damping             0.4000000          :
          ...................................................

 iter      E             dE          RMSdq      gap      omega  full diag
   1     -5.9851709 -0.598517E+01  0.800E-07    0.00       0.0  T
   2     -5.9851709 -0.621725E-14  0.496E-07    0.00  100000.0  T
   3     -5.9851709  0.444089E-14  0.187E-07    0.00  100000.0  T

   *** convergence criteria satisfied after 3 iterations ***

         #    Occupation            Energy/Eh            Energy/eV
      -------------------------------------------------------------
         1        2.0000           -0.7671350             -20.8748
         2        2.0000           -0.6335079             -17.2386
         3        2.0000           -0.5850346             -15.9196
         4        2.0000           -0.5850346             -15.9196
         5        1.0000           -0.4692546             -12.7691
         6        0.5000           -0.2991853              -8.1412 (HOMO)
         7        0.5000           -0.2991853              -8.1412 (LUMO)
         8                          0.5538475              15.0710
      -------------------------------------------------------------
                  HL-Gap            0.0000000 Eh            0.0000 eV
             Fermi-level           -0.4131650 Eh          -11.2428 eV

 transition dipole moment (au) for excitation:           5           6
     X       Y       Z   
  -0.0000   0.3572   0.0224  total (au/Debye):    0.358   0.910
 dE (eV)             :    4.628
 oscillator strength :  0.20544E-01

 SCC (total)                   0 d,  0 h,  0 min,  0.001 sec
 SCC setup                      ...        0 min,  0.000 sec (  4.226%)
 Dispersion                     ...        0 min,  0.000 sec (  0.536%)
 integral evaluation            ...        0 min,  0.000 sec ( 39.136%)
 zeroth order Hamiltonian       ...        0 min,  0.000 sec (  0.410%)
 iterations                     ...        0 min,  0.000 sec ( 11.511%)
 molecular gradient             ...        0 min,  0.000 sec ( 17.944%)
 printout                       ...        0 min,  0.000 sec ( 25.260%)

         :::::::::::::::::::::::::::::::::::::::::::::::::::::
         ::                     SUMMARY                     ::
         :::::::::::::::::::::::::::::::::::::::::::::::::::::
         :: total energy              -5.943064729652 Eh    ::
         :: gradient norm              0.000227238949 Eh/a0 ::
         :: HOMO-LUMO gap              0.000000000000 eV    ::
         ::.................................................::
         :: SCC energy                -5.985170851741 Eh    ::
         :: -> isotropic ES            0.006935142816 Eh    ::
         :: -> anisotropic ES          0.000552683944 Eh    ::
         :: -> anisotropic XC         -0.000285101133 Eh    ::
         :: -> dispersion             -0.000260623960 Eh    ::
         :: repulsion energy           0.042106122089 Eh    ::
         :: add. restraining           0.000000000000 Eh    ::
         :::::::::::::::::::::::::::::::::::::::::::::::::::::

           ------------------------------------------------- 
          |                Numerical Hessian                |
           ------------------------------------------------- 
step length          :   0.00500
SCC accuracy         :   0.30000
Hessian scale factor :   1.00000
frozen atoms in %    :   0.00000    0
RMS gradient         :   0.00023

writing file <hessian>.

 vibrational frequencies (cm-1)
eigval :        0.00     0.00     0.00     0.00     0.00  1981.29
           -------------------------------------------------
          |                Property Printout                |
           -------------------------------------------------

    * Orbital Energies and Occupations

         #    Occupation            Energy/Eh            Energy/eV
      -------------------------------------------------------------
         1        2.0000           -0.7671350             -20.8748
         2        2.0000           -0.6335079             -17.2386
         3        2.0000           -0.5850346             -15.9196
         4        2.0000           -0.5850346             -15.9196
         5        1.0000           -0.4692546             -12.7691
         6        0.5000           -0.2991853              -8.1412 (HOMO)
         7        0.5000           -0.2991853              -8.1412 (LUMO)
         8                          0.5538475              15.0710
      -------------------------------------------------------------
                  HL-Gap            0.0000000 Eh            0.0000 eV
Molecule has the following symmetry elements: (Cinf) (sigma) 
It seems to be the Cinfv point group
             Fermi-level           -0.4131650 Eh          -11.2428 eV

     #   Z        covCN         q      C6AA      α(0)
     1   8 O      0.856    -0.144    17.184     5.558
     2   6 C      0.856     0.144    31.101     9.306

 Mol. C6AA /au·bohr⁶  :         93.572535
 Mol. C8AA /au·bohr⁸  :       2340.378253
 Mol. α(0) /au        :         14.863393


Wiberg/Mayer (AO) data.
largest (>0.10) Wiberg bond orders for each atom
          total WBO             WBO to atom ...
     1  O   1.942        C    2 1.942
     2  C   1.942        O    1 1.942

MOs/occ written to file <molden.input>


molecular dipole:
                 x           y           z       tot (Debye)
 q only:       -0.325       0.000       0.000
   full:       -0.499       0.000       0.000       1.268
molecular quadrupole (traceless):
                xx          xy          yy          xz          yz          zz
 q only:        0.000      -0.000      -0.000      -0.000       0.000      -0.000
  q+dip:        0.390      -0.000      -0.195      -0.000       0.000      -0.195
   full:       -0.127       0.000       0.063       0.000       0.000       0.063

           -------------------------------------------------
          |                Geometry Summary                 |
           -------------------------------------------------

      molecular mass/u    :       28.0101408
   center of mass at/Å    :        0.0848334      -0.0000004      -0.0000003
  moments of inertia/u·Å² :        0.4255284E-15   0.9739264E+01   0.9739264E+01
rotational constants/cm⁻¹ :        0.3961576E+17   0.1730894E+01   0.1730894E+01

           -------------------------------------------------
          |               Frequency Printout                |
           -------------------------------------------------
 vibrational frequencies (cm-1)
eigval :        0.00     0.00     0.00     0.00     0.00  1981.29
 reduced masses (amu)
   1: 13.72   2: 13.72   3: 14.29   4: 14.29   5: 14.29   6: 13.72
 IR intensities (amu)
   1:  0.31   2:  0.31   3:  0.02   4:  0.02   5:  0.05   6:  0.69
 Raman intensities (amu)
   1:  0.00   2:  0.00   3:  0.00   4:  0.00   5:  0.00   6:  0.00
 output can be read by thermo (or use thermo option).
 writing <g98.out> molden fake output.
 recommended (thermochemical) frequency scaling factor: 1.0
           -------------------------------------------------
          |             Thermodynamic Functions             |
           -------------------------------------------------

cin symmetry found (for desy threshold:  0.10E+00) used in thermo

          ...................................................
          :                      SETUP                      :
          :.................................................:
          :  # frequencies                           1      :
          :  # imaginary freq.                       0      :
          :  linear?                              true      :
          :  only rotor calc.                    false      :
          :  symmetry                              cin      :
          :  rotational number                       1      :
          :  scaling factor                  1.0000000      :
          :  rotor cutoff                   50.0000000 cm⁻¹ :
          :  imag. cutoff                  -20.0000000 cm⁻¹ :
          :.................................................:

    mode    ω/cm⁻¹     T·S(HO)/kcal·mol⁻¹    T·S(FR)/kcal·mol⁻¹   T·S(vib)
   ------------------------------------------------------------------------
   ------------------------------------------------------------------------

   temp. (K)  partition function   enthalpy   heat capacity  entropy
                                   cal/mol     cal/K/mol   cal/K/mol   J/K/mol
 298.15  VIB   1.00                    0.399      0.013      0.001
         ROT   120.                  592.502      1.987     11.497
         INT   120.                  592.901      2.000     11.498
         TR   0.143E+27             1481.254      4.968     35.908
         TOT                        2074.1544     6.9682    47.4065   198.3486

   temp. (K)  partition function   enthalpy   heat capacity  entropy
                                   cal/mol     cal/K/mol   cal/K/mol   J/K/mol
 120.00  VIB   1.00                    0.000      0.000     -0.000
         ROT   48.2                  238.471      1.987      9.688
         INT   48.2                  238.471      1.987      9.688
         TR   0.366E+26              596.178      4.968     31.389
         TOT                         834.6492     6.9554    41.0770   171.8663

   temp. (K)  partition function   enthalpy   heat capacity  entropy
                                   cal/mol     cal/K/mol   cal/K/mol   J/K/mol
 100.00  VIB   1.00                    0.000      0.000     -0.000
         ROT   40.2                  198.726      1.987      9.326
         INT   40.2                  198.726      1.987      9.326
         TR   0.279E+26              496.815      4.968     30.484
         TOT                         695.5410     6.9554    39.8093   166.5623

   temp. (K)  partition function   enthalpy   heat capacity  entropy
                                   cal/mol     cal/K/mol   cal/K/mol   J/K/mol
  80.00  VIB   1.00                    0.000      0.000     -0.000
         ROT   32.1                  158.981      1.987      8.882
         INT   32.1                  158.981      1.987      8.882
         TR   0.199E+26              397.452      4.968     29.376
         TOT                         556.4328     6.9554    38.2578   160.0708

   temp. (K)  partition function   enthalpy   heat capacity  entropy
                                   cal/mol     cal/K/mol   cal/K/mol   J/K/mol
  60.00  VIB   1.00                    0.000      0.000     -0.000
         ROT   24.1                  119.236      1.987      8.311
         INT   24.1                  119.236      1.987      8.311
         TR   0.129E+26              298.089      4.968     27.947
         TOT                         417.3246     6.9554    36.2576   151.7017

   temp. (K)  partition function   enthalpy   heat capacity  entropy
                                   cal/mol     cal/K/mol   cal/K/mol   J/K/mol
  40.00  VIB   1.00                    0.000      0.000     -0.000
         ROT   16.1                   79.490      1.987      7.505
         INT   16.1                   79.490      1.987      7.505
         TR   0.705E+25              198.726      4.968     25.934
         TOT                         278.2164     6.9554    33.4384   139.9062

   temp. (K)  partition function   enthalpy   heat capacity  entropy
                                   cal/mol     cal/K/mol   cal/K/mol   J/K/mol
  20.00  VIB   1.00                    0.000      0.000     -0.000
         ROT   8.03                   39.745      1.987      6.127
         INT   8.03                   39.745      1.987      6.127
         TR   0.249E+25               99.363      4.968     22.492
         TOT                         139.1082     6.9554    28.6190   119.7417

   temp. (K)  partition function   enthalpy   heat capacity  entropy
                                   cal/mol     cal/K/mol   cal/K/mol   J/K/mol
  10.00  VIB   1.00                    0.000      0.000     -0.000
         ROT   4.02                   19.873      1.987      4.750
         INT   4.02                   19.873      1.987      4.750
         TR   0.881E+24               49.681      4.968     19.050
         TOT                          69.5541     6.9554    23.7995    99.5772

       T/K    H(0)-H(T)+PV         H(T)/Eh          T*S/Eh         G(T)/Eh
   ------------------------------------------------------------------------
    298.15    0.330538E-02    0.781908E-02    0.225243E-01   -0.147053E-01
    120.00    0.133010E-02    0.584380E-02    0.785525E-02   -0.201145E-02
    100.00    0.110842E-02    0.562212E-02    0.634402E-02   -0.721906E-03
     80.00    0.886732E-03    0.540043E-02    0.487742E-02    0.523016E-03
     60.00    0.665049E-03    0.517875E-02    0.346681E-02    0.171194E-02
     40.00    0.443366E-03    0.495707E-02    0.213150E-02    0.282557E-02
     20.00    0.221683E-03    0.473539E-02    0.912144E-03    0.382324E-02
     10.00    0.110842E-03    0.462454E-02    0.379269E-03    0.424527E-02 (used)
   ------------------------------------------------------------------------

         :::::::::::::::::::::::::::::::::::::::::::::::::::::
         ::                  THERMODYNAMIC                  ::
         :::::::::::::::::::::::::::::::::::::::::::::::::::::
         :: total free energy          -5.938819454735 Eh   ::
         ::.................................................::
         :: total energy               -5.943064729652 Eh   ::
         :: zero point energy           0.004513702786 Eh   ::
         :: G(RRHO) w/o ZPVE           -0.000268427869 Eh   ::
         :: G(RRHO) contrib.            0.004245274917 Eh   ::
         :::::::::::::::::::::::::::::::::::::::::::::::::::::

optimized geometry written to: xtbopt.xyz


           -------------------------------------------------
          | TOTAL ENERGY               -5.943064729652 Eh   |
          | TOTAL ENTHALPY             -5.938440185352 Eh   |
          | TOTAL FREE ENERGY          -5.938819454735 Eh   |
          | GRADIENT NORM               0.000227236756 Eh/α |
          | HOMO-LUMO GAP               0.000000000210 eV   |
           -------------------------------------------------

------------------------------------------------------------------------
 * finished run on 2020/05/12 at 11:43:53.584     
------------------------------------------------------------------------
 total:
 * wall-time:     0 d,  0 h,  0 min,  0.030 sec
 *  cpu-time:     0 d,  0 h,  0 min,  0.030 sec
 * ratio c/w:     0.996 speedup
 SCF:
 * wall-time:     0 d,  0 h,  0 min,  0.001 sec
 *  cpu-time:     0 d,  0 h,  0 min,  0.001 sec
 * ratio c/w:     0.999 speedup
 ANC optimizer:
 * wall-time:     0 d,  0 h,  0 min,  0.006 sec
 *  cpu-time:     0 d,  0 h,  0 min,  0.006 sec
 * ratio c/w:     1.000 speedup
 numerical hessian:
 * wall-time:     0 d,  0 h,  0 min,  0.009 sec
 *  cpu-time:     0 d,  0 h,  0 min,  0.009 sec
 * ratio c/w:     0.995 speedup

