2
 energy: -5.943064729652 gnorm: 0.000227238949 xtb: 6.2.2 (9d81278992624c895f80dd42a50cac0aa55982e2)
O         0.59573619428395   -0.00000311926742   -0.00000207951161
C        -0.59573619428395    0.00000311926742    0.00000207951161
