[Molden Format]
[Title]
[Atoms] AU
O      1     8  0.11257781452740E+01 -0.58945605846615E-05 -0.39297070564749E-05
C      2     6 -0.11257781452740E+01  0.58945605846615E-05  0.39297070564749E-05
[GTO]
           1 0
 s           4   1.0000000000000000     
   69.137961906196551      -0.20478756370077797     
   11.906129132707308      -0.24997023136827334     
  0.95670827744340703       0.40025880240639616     
  0.36462520496073686       0.15952206667693555     
 p           4   1.0000000000000000     
   8.2124193257781641        1.1321556799186829     
   2.1293576997098116        1.0476840782254817     
  0.75066448202360914       0.54956508217158984     
  0.29885246543283073        8.2908486592766617E-002

           2 0
 s           4   1.0000000000000000     
   51.049363095579913      -0.16312063210127389     
   8.7911227406887544      -0.19911024581000730     
  0.70640422258929825       0.31882047753655751     
  0.26922813413411617       0.12706504184240380     
 p           4   1.0000000000000000     
   5.8263656140800002       0.73716451545209605     
   1.5106896018720002       0.68216371614850257     
  0.53256483288000001       0.35783053929253711     
  0.21202323690600003        5.3983030275847881E-002

[MO]
Sym=     1a
Ene=  -0.76713495225688699     
Spin= Alpha
Occup=     2.00000000
           1  0.67792714185815217     
           2 -0.22384091315089980     
           3   1.1725904417942901E-006
           4   7.8172696123245224E-007
           5  0.31836765346477974     
           6  0.22744858554475081     
           7  -1.1903365406731731E-006
           8  -7.9355769374753449E-007
Sym=     2a
Ene=  -0.63350792625175389     
Spin= Alpha
Occup=     2.00000000
           1 -0.59001338054103403     
           2 -0.63065015562692150     
           3   3.3005929554388784E-006
           4   2.2003953041227025E-006
           5  0.44952462594382747     
           6  -2.7928967786782409E-002
           7   1.4595254737649414E-007
           8   9.7301698315754569E-008
Sym=     3a
Ene=  -0.58503464891109569     
Spin= Alpha
Occup=     2.00000000
           1  -2.0719903073247572E-009
           2   4.8343773199913346E-006
           3  0.55404046053016609     
           4  0.55399892207055923     
           5   9.6910343800441552E-010
           6   2.8955482776467721E-006
           7  0.33181092723815531     
           8  0.33178605014743301     
Sym=     4a
Ene=  -0.58503464890268830     
Spin= Alpha
Occup=     2.00000000
           1   4.1431738163849371E-010
           2  -9.6668698368071686E-007
           3 -0.55399892210247881     
           4  0.55404046057052780     
           5  -1.9378309645601692E-010
           6  -5.7899676525413106E-007
           7 -0.33178605012326645     
           8  0.33181092721903377     
Sym=     5a
Ene=  -0.46925455633315161     
Spin= Alpha
Occup=     1.00000000
           1  0.16560181340388369     
           2  0.38700391747167667     
           3  -2.0265057663332430E-006
           4  -1.3510038439444122E-006
           5  0.66653686232578158     
           6 -0.65162247964161157     
           7   3.4118286201864656E-006
           8   2.2745524132470501E-006
Sym=     6a
Ene=  -0.29918530518733022     
Spin= Alpha
Occup=     0.50000000
           1  -5.2709731324453577E-012
           2  -8.1905052621372814E-007
           3 -0.46901426799004037     
           4  0.46884634941278869     
           5  -2.8820284212355680E-011
           6   1.1277635331551762E-006
           7  0.64567209481518661     
           8 -0.64544092841595968     
Sym=     7a
Ene=  -0.29918530517961650     
Spin= Alpha
Occup=     0.50000000
           1  -2.6330174758252668E-011
           2  -4.0914432369804890E-006
           3 -0.46884634943678005     
           4 -0.46901426802115326     
           5  -1.4396647171430358E-010
           6   5.6335724505134650E-006
           7  0.64544092838890577     
           8  0.64567209479797949     
Sym=     8a
Ene=   0.55384751238657781     
Spin= Alpha
Occup=     0.00000000
           1  0.81296285791741885     
           2 -0.92271326152696864     
           3   4.8314782418541899E-006
           4   3.2209854945573590E-006
           5 -0.81074801827789733     
           6  -1.0309660051649572     
           7   5.3984867942732285E-006
           8   3.5989911961769973E-006
