$hessian                                                                        
        1.0191642132  -0.0000038634  -0.0000025757  -1.0191642132   0.0000038634
        0.0000025757
       -0.0000038634  -0.0000791224  -0.0000000002   0.0000038634   0.0000791224
        0.0000000002
       -0.0000025757  -0.0000000002  -0.0000791117   0.0000025757   0.0000000002
        0.0000791117
       -1.0191642132   0.0000038634   0.0000025757   1.0191642132  -0.0000038634
       -0.0000025757
        0.0000038634   0.0000791224   0.0000000002  -0.0000038634  -0.0000791224
       -0.0000000002
        0.0000025757   0.0000000002   0.0000791117  -0.0000025757  -0.0000000002
       -0.0000791117
