      -----------------------------------------------------------      
     |                   =====================                   |     
     |                           x T B                           |     
     |                   =====================                   |     
     |                         S. Grimme                         |     
     |          Mulliken Center for Theoretical Chemistry        |     
     |                    University of Bonn                     |     
      -----------------------------------------------------------      

   * xtb version 6.2.2 (9d81278992624c895f80dd42a50cac0aa55982e2) compiled by '@Darwin' on 04/03/2020

   xtb is free software: you can redistribute it and/or modify it under
   the terms of the GNU Lesser General Public License as published by
   the Free Software Foundation, either version 3 of the License, or
   (at your option) any later version.
   
   xtb is distributed in the hope that it will be useful,
   but WITHOUT ANY WARRANTY; without even the implied warranty of
   MERCHANTABILITY or FITNESS FOR A PARTICULAR PURPOSE.  See the
   GNU Lesser General Public License for more details.
   
   Cite this work as:
   * S. Grimme, C. Bannwarth, P. Shushkov, J. Chem. Theory Comput., 2017,
     13, 1989-2009. DOI: 10.1021/acs.jctc.7b00118
   * C. Bannwarth, S. Ehlert and S. Grimme., J. Chem. Theory Comput., 2019,
     15, 1652-1671. DOI: 10.1021/acs.jctc.8b01176
   * P. Pracht, E. Caldeweyher, S. Ehlert, S. Grimme, ChemRxiv, 2019, preprint.
     DOI: 10.26434/chemrxiv.8326202.v1
   
   for DFT-D4:
   * E. Caldeweyher, C. Bannwarth and S. Grimme, J. Chem. Phys., 2017,
     147, 034112. DOI: 10.1063/1.4993215
   * E. Caldeweyher, S. Ehlert, A. Hansen, H. Neugebauer, S. Spicher,
     C. Bannwarth and S. Grimme, J. Chem. Phys., 2019, 150, 154122.
     DOI: 10.1063/1.5090222
   
   for sTDA-xTB:
   * S. Grimme and C. Bannwarth, J. Chem. Phys., 2016, 145, 054103.
     DOI: 10.1063/1.4959605
   
   in the mass-spec context:
   * V. Asgeirsson, C. Bauer and S. Grimme, Chem. Sci., 2017, 8, 4879.
     DOI: 10.1039/c7sc00601b
   
   for metadynamics refer to:
   * S. Grimme, J. Chem. Theory Comput., 2019, 155, 2847-2862
     DOI: 10.1021/acs.jctc.9b00143
   
   with help from (in alphabetical order)
   C. Bannwarth, F. Bohle, G. Brandenburg, E. Caldeweyher, M. Checinski,
   S. Dohm, S. Ehlert, S. Ehrlich, F. März, H. Neugebauer, J. Pisarek,
   P. Pracht, P. Shushkov, and S. Spicher.
   
 * started run on 2020/05/12 at 11:45:02.376     

           -------------------------------------------------
          |                Calculation Setup                |
           -------------------------------------------------

          program call               : xtb --input H1C3N1_31_S_2.input H1C3N1_31_S_2.xyz --ohess --molden --namespace H1C3N1_31_S_2 output.out
          calculation namespace      : H1C3N1_31_S_2
          coordinate file            : H1C3N1_31_S_2.xyz
          number of atoms            :                     5
          number of electrons        :                    18
          charge                     :                     0
          spin                       :                   1.0
          first test random number   :      0.47750316326416

   ID    Z sym.   atoms
    1    7 N      1
    2    6 C      2-4
    3    1 H      5

           -------------------------------------------------
          |                 G F N 2 - x T B                 |
           -------------------------------------------------

        Reference                      10.1021/acs.jctc.8b01176
      * Hamiltonian:
        H0-scaling (s, p, d)           1.850000    2.230000    2.230000
        zeta-weighting                 0.500000
      * Dispersion:
        s8                             2.700000
        a1                             0.520000
        a2                             5.000000
        s9                             5.000000
      * Repulsion:
        kExp                           1.500000    1.000000
        rExp                           1.000000
      * Coulomb:
        alpha                          2.000000
        third order                    shell-resolved
        anisotropic                    true
        a3                             3.000000
        a5                             4.000000
        cn-shift                       1.200000
        cn-exp                         4.000000
        max-rad                        5.000000


          ...................................................
          :                      SETUP                      :
          :.................................................:
          :  # basis functions                  17          :
          :  # atomic orbitals                  17          :
          :  # shells                            9          :
          :  # electrons                        18          :
          :  max. iterations                   250          :
          :  Hamiltonian                  GFN2-xTB          :
          :  restarted?                      false          :
          :  GBSA solvation                  false          :
          :  PC potential                    false          :
          :  electronic temp.          300.0000000     K    :
          :  accuracy                    1.0000000          :
          :  -> integral cutoff          0.2500000E+02      :
          :  -> integral neglect         0.1000000E-07      :
          :  -> SCF convergence          0.1000000E-05 Eh   :
          :  -> wf. convergence          0.1000000E-03 e    :
          :  Broyden damping             0.4000000          :
          ...................................................

 iter      E             dE          RMSdq      gap      omega  full diag
   1     -9.4044970 -0.940450E+01  0.745E+00    0.98       0.0  T
   2     -9.2169462  0.187551E+00  0.813E+00    0.13       1.0  T
   3     -9.4936914 -0.276745E+00  0.421E+00    0.40       1.0  T
   4     -9.4633426  0.303488E-01  0.353E+00    0.50       1.0  T
   5     -9.5099651 -0.466225E-01  0.192E+00    0.34       1.0  T
   6     -9.5236621 -0.136970E-01  0.901E-01    0.23       1.0  T
   7     -9.5244360 -0.773954E-03  0.708E-01    0.23       1.0  T
   8     -9.5253586 -0.922590E-03  0.225E-01    0.23       1.0  T
   9     -9.5254345 -0.758654E-04  0.108E-01    0.23       1.0  T
  10     -9.5254507 -0.162622E-04  0.782E-02    0.23       1.0  T
  11     -9.5254622 -0.114251E-04  0.216E-02    0.23       2.1  T
  12     -9.5254628 -0.626820E-06  0.406E-03    0.23      11.0  T
  13     -9.5254628 -0.410017E-07  0.121E-03    0.23      37.0  T
  14     -9.5254628 -0.669747E-08  0.155E-04    0.23     288.4  T
  15     -9.5254628 -0.580744E-10  0.532E-05    0.23     840.8  T

   *** convergence criteria satisfied after 15 iterations ***

         #    Occupation            Energy/Eh            Energy/eV
      -------------------------------------------------------------
         1        2.0000           -0.7172834             -19.5183
       ...           ...                  ...                  ...
         4        2.0000           -0.5766934             -15.6926
         5        2.0000           -0.5151517             -14.0180
         6        2.0000           -0.5060229             -13.7696
         7        2.0000           -0.4940362             -13.4434
         8        1.9998           -0.4258412             -11.5877
         9        1.0002           -0.4096339             -11.1467
        10        0.9878           -0.3680747             -10.0158 (HOMO)
        11        0.0122           -0.3597291              -9.7887 (LUMO)
        12                         -0.2208489              -6.0096
        13                         -0.0031972              -0.0870
        14                          0.0284178               0.7733
        15                          0.1253390               3.4106
       ...                                ...                  ...
        17                          0.2415772               6.5736
      -------------------------------------------------------------
                  HL-Gap            0.0083456 Eh            0.2271 eV
             Fermi-level           -0.3908197 Eh          -10.6347 eV

 transition dipole moment (au) for excitation:           9          10
     X       Y       Z   
  -0.0043   0.3277   0.0509  total (au/Debye):    0.332   0.843
 dE (eV)             :    1.131
 oscillator strength :  0.43101E-02

 SCC (total)                   0 d,  0 h,  0 min,  0.004 sec
 SCC setup                      ...        0 min,  0.000 sec (  1.926%)
 Dispersion                     ...        0 min,  0.000 sec (  0.363%)
 integral evaluation            ...        0 min,  0.001 sec ( 22.504%)
 zeroth order Hamiltonian       ...        0 min,  0.000 sec (  0.421%)
 iterations                     ...        0 min,  0.001 sec ( 32.574%)
 molecular gradient             ...        0 min,  0.001 sec ( 23.144%)
 printout                       ...        0 min,  0.001 sec ( 18.882%)

         :::::::::::::::::::::::::::::::::::::::::::::::::::::
         ::                     SUMMARY                     ::
         :::::::::::::::::::::::::::::::::::::::::::::::::::::
         :: total energy              -9.440276722323 Eh    ::
         :: gradient norm              0.220402375117 Eh/a0 ::
         :: HOMO-LUMO gap              0.227094277348 eV    ::
         ::.................................................::
         :: SCC energy                -9.525462846051 Eh    ::
         :: -> isotropic ES           -0.000199972775 Eh    ::
         :: -> anisotropic ES          0.002019533846 Eh    ::
         :: -> anisotropic XC          0.008079597113 Eh    ::
         :: -> dispersion             -0.002066408009 Eh    ::
         :: repulsion energy           0.085186097453 Eh    ::
         :: add. restraining           0.000000000000 Eh    ::
         :::::::::::::::::::::::::::::::::::::::::::::::::::::

      ----------------------------------------------------------- 
     |                   =====================                   |
     |                        A N C O P T                        |
     |                   =====================                   |
     |               Approximate Normal Coordinate               |
     |                Rational Function Optimizer                |
      ----------------------------------------------------------- 

          ...................................................
          :                      SETUP                      :
          :.................................................:
          :   optimization level            normal          :
          :   max. optcycles                   200          :
          :   ANC micro-cycles                  20          :
          :   degrees of freedom                 9          :
          :.................................................:
          :   RF solver                   davidson          :
          :   write xtbopt.log                true          :
          :   linear?                        false          :
          :   energy convergence         0.5000000E-05 Eh   :
          :   grad. convergence          0.1000000E-02 Eh/α :
          :   maximium RF displ.         1.0000000          :
          :   Hlow (freq-cutoff)         0.1000000E-01      :
          :   Hmax (freq-cutoff)         5.0000000          :
          :   S6 in model hess.         20.0000000          :
          ...................................................

generating ANC from model Hessian ...
Using Lindh-Hessian (1995)
 Shifting diagonal of input Hessian by    0.0000000000000000     
 Lowest  eigenvalues of input Hessian
   -0.000000   -0.000000    0.000000    0.000000    0.000000    0.000000
    0.042333    0.070365    0.143791    0.615142    0.664918    0.840560
    0.930134    1.336436    1.476037
 Highest eigenvalues
    0.615142    0.664918    0.840560    0.930134    1.336436    1.476037


........................................................................
.............................. CYCLE    1 ..............................
........................................................................
   1     -9.5254628 -0.952546E+01  0.156E-05    0.23       0.0  T
   2     -9.5254628  0.202682E-11  0.198E-05    0.23    2255.8  T
   3     -9.5254628 -0.216716E-11  0.966E-06    0.23    4629.0  T
     SCC iter.                  ...        0 min,  0.001 sec
     gradient                   ...        0 min,  0.001 sec
 * total energy  :    -9.4402767 Eh     change        0.1516316E-09 Eh
   gradient norm :     0.2204023 Eh/α   predicted     0.0000000E+00 (-100.00%)
   displ. norm   :     0.3469598 α      lambda       -0.6670495E-01
   maximum displ.:     0.2726085 α      in ANC's #4, #1, #6, ...

........................................................................
.............................. CYCLE    2 ..............................
........................................................................
   1     -9.5937376 -0.959374E+01  0.250E+00    1.33       0.0  T
   2     -9.5940615 -0.323888E-03  0.136E+00    1.36       1.0  T
   3     -9.5935915  0.470048E-03  0.340E-01    1.33       1.0  T
   4     -9.5942120 -0.620562E-03  0.985E-02    1.36       1.0  T
   5     -9.5942387 -0.266668E-04  0.489E-02    1.36       1.0  T
   6     -9.5942433 -0.464296E-05  0.687E-03    1.36       6.5  T
   7     -9.5942435 -0.131989E-06  0.254E-03    1.36      17.6  T
   8     -9.5942435 -0.196926E-08  0.631E-04    1.36      70.9  T
   9     -9.5942435 -0.662652E-10  0.533E-04    1.36      84.0  T
     SCC iter.                  ...        0 min,  0.001 sec
     gradient                   ...        0 min,  0.001 sec
 * total energy  :    -9.4946336 Eh     change       -0.5435685E-01 Eh
   gradient norm :     0.1403363 Eh/α   predicted    -0.3736748E-01 ( -31.26%)
   displ. norm   :     0.4697215 α      lambda       -0.6343169E-01
   maximum displ.:     0.4289656 α      in ANC's #4, #6, #3, ...

........................................................................
.............................. CYCLE    3 ..............................
........................................................................
   1     -9.6518217 -0.965182E+01  0.308E+00    2.69       0.0  T
   2     -9.6537414 -0.191973E-02  0.185E+00    2.18       1.0  T
   3     -9.6510461  0.269534E-02  0.130E+00    2.59       1.0  T
   4     -9.6581733 -0.712728E-02  0.252E-01    2.42       1.0  T
   5     -9.6583572 -0.183897E-03  0.517E-02    2.40       1.0  T
   6     -9.6583577 -0.423273E-06  0.817E-03    2.40       5.5  T
   7     -9.6583575  0.132540E-06  0.587E-03    2.40       7.6  T
   8     -9.6583577 -0.224680E-06  0.219E-03    2.40      20.5  T
   9     -9.6583578 -0.235893E-07  0.338E-04    2.40     132.2  T
  10     -9.6583578 -0.646647E-10  0.256E-05    2.40    1746.9  T
     SCC iter.                  ...        0 min,  0.001 sec
     gradient                   ...        0 min,  0.001 sec
 * total energy  :    -9.5111416 Eh     change       -0.1650799E-01 Eh
   gradient norm :     0.1497811 Eh/α   predicted    -0.3871357E-01 ( 134.51%)
   displ. norm   :     0.4215531 α      lambda       -0.3249944E-01
   maximum displ.:     0.4048371 α      in ANC's #1, #3, #9, ...

........................................................................
.............................. CYCLE    4 ..............................
........................................................................
   1     -9.6372135 -0.963721E+01  0.201E+00    2.01       0.0  T
   2     -9.6354544  0.175910E-02  0.137E+00    1.98       1.0  T
   3     -9.6386835 -0.322905E-02  0.973E-01    2.00       1.0  T
   4     -9.6421027 -0.341928E-02  0.132E-01    2.00       1.0  T
   5     -9.6421348 -0.320118E-04  0.621E-02    2.00       1.0  T
   6     -9.6421376 -0.283392E-05  0.123E-02    2.00       3.6  T
   7     -9.6421381 -0.486286E-06  0.349E-03    2.00      12.8  T
   8     -9.6421380  0.126739E-06  0.439E-03    2.00      10.2  T
   9     -9.6421381 -0.145170E-06  0.351E-04    2.00     127.4  T
  10     -9.6421381 -0.454001E-10  0.411E-05    2.00    1088.8  T
     SCC iter.                  ...        0 min,  0.001 sec
     gradient                   ...        0 min,  0.001 sec
 * total energy  :    -9.5264684 Eh     change       -0.1532685E-01 Eh
   gradient norm :     0.0447124 Eh/α   predicted    -0.1913741E-01 (  24.86%)
   displ. norm   :     0.0974386 α      lambda       -0.2999333E-02
   maximum displ.:     0.0571169 α      in ANC's #3, #4, #1, ...

........................................................................
.............................. CYCLE    5 ..............................
........................................................................
   1     -9.6451454 -0.964515E+01  0.290E-01    2.05       0.0  T
   2     -9.6451738 -0.283769E-04  0.164E-01    2.05       1.0  T
   3     -9.6451729  0.918148E-06  0.821E-02    2.05       1.0  T
   4     -9.6451803 -0.736136E-05  0.129E-02    2.06       3.5  T
   5     -9.6451806 -0.359870E-06  0.781E-03    2.06       5.7  T
   6     -9.6451808 -0.174988E-06  0.116E-03    2.06      38.6  T
   7     -9.6451808  0.121655E-07  0.144E-03    2.06      31.1  T
   8     -9.6451808 -0.152020E-07  0.177E-04    2.06     253.0  T
   9     -9.6451808 -0.602753E-10  0.552E-05    2.06     810.7  T
     SCC iter.                  ...        0 min,  0.001 sec
     gradient                   ...        0 min,  0.001 sec
 * total energy  :    -9.5290197 Eh     change       -0.2551338E-02 Eh
   gradient norm :     0.0332363 Eh/α   predicted    -0.1513905E-02 ( -40.66%)
   displ. norm   :     0.3200826 α      lambda       -0.6751769E-02
   maximum displ.:     0.2143742 α      in ANC's #1, #4, #3, ...

........................................................................
.............................. CYCLE    6 ..............................
........................................................................
   1     -9.6470451 -0.964705E+01  0.817E-01    2.05       0.0  T
   2     -9.6470083  0.367883E-04  0.540E-01    2.05       1.0  T
   3     -9.6468434  0.164937E-03  0.411E-01    2.06       1.0  T
   4     -9.6474410 -0.597570E-03  0.652E-02    2.06       1.0  T
   5     -9.6474553 -0.143536E-04  0.227E-02    2.06       2.0  T
   6     -9.6474554 -0.302647E-07  0.316E-03    2.06      14.2  T
   7     -9.6474553  0.689563E-07  0.395E-03    2.06      11.3  T
   8     -9.6474554 -0.116869E-06  0.793E-04    2.06      56.4  T
   9     -9.6474554 -0.753145E-09  0.147E-04    2.06     304.2  T
     SCC iter.                  ...        0 min,  0.001 sec
     gradient                   ...        0 min,  0.001 sec
 * total energy  :    -9.5337142 Eh     change       -0.4694439E-02 Eh
   gradient norm :     0.0326002 Eh/α   predicted    -0.3721749E-02 ( -20.72%)
   displ. norm   :     0.2287459 α      lambda       -0.3743951E-02
   maximum displ.:     0.1362735 α      in ANC's #6, #1, #4, ...

........................................................................
.............................. CYCLE    7 ..............................
........................................................................
   1     -9.6518420 -0.965184E+01  0.596E-01    2.20       0.0  T
   2     -9.6517808  0.612179E-04  0.403E-01    2.20       1.0  T
   3     -9.6517388  0.419674E-04  0.309E-01    2.21       1.0  T
   4     -9.6520600 -0.321170E-03  0.202E-02    2.21       2.2  T
   5     -9.6520600 -0.575574E-07  0.311E-03    2.21      14.4  T
   6     -9.6520600  0.466954E-07  0.285E-03    2.21      15.7  T
   7     -9.6520600 -0.494645E-07  0.122E-03    2.21      36.8  T
   8     -9.6520600 -0.657263E-08  0.184E-04    2.21     242.7  T
   9     -9.6520600 -0.413181E-11  0.410E-05    2.21    1089.6  T
     SCC iter.                  ...        0 min,  0.001 sec
     gradient                   ...        0 min,  0.001 sec
 * total energy  :    -9.5364112 Eh     change       -0.2697010E-02 Eh
   gradient norm :     0.0305721 Eh/α   predicted    -0.1969928E-02 ( -26.96%)
   displ. norm   :     0.2654212 α      lambda       -0.2626524E-02
   maximum displ.:     0.1805332 α      in ANC's #1, #6, #4, ...

........................................................................
.............................. CYCLE    8 ..............................
........................................................................
   1     -9.6505899 -0.965059E+01  0.757E-01    2.28       0.0  T
   2     -9.6505629  0.270084E-04  0.441E-01    2.28       1.0  T
   3     -9.6504822  0.807148E-04  0.394E-01    2.28       1.0  T
   4     -9.6509914 -0.509251E-03  0.469E-02    2.29       1.0  T
   5     -9.6509956 -0.416999E-05  0.186E-02    2.29       2.4  T
   6     -9.6509957 -0.699378E-07  0.249E-03    2.29      18.0  T
   7     -9.6509957 -0.111375E-08  0.633E-04    2.29      70.7  T
   8     -9.6509957  0.193914E-08  0.580E-04    2.29      77.1  T
     SCC iter.                  ...        0 min,  0.001 sec
     gradient                   ...        0 min,  0.001 sec
 * total energy  :    -9.5374241 Eh     change       -0.1012921E-02 Eh
   gradient norm :     0.0354461 Eh/α   predicted    -0.1405776E-02 (  38.78%)
   displ. norm   :     0.1277771 α      lambda       -0.3254214E-02
   maximum displ.:     0.1019473 α      in ANC's #6, #3, #1, ...

........................................................................
.............................. CYCLE    9 ..............................
........................................................................
   1     -9.6677126 -0.966771E+01  0.431E-01    2.57       0.0  T
   2     -9.6677786 -0.660583E-04  0.254E-01    2.56       1.0  T
   3     -9.6677690  0.965185E-05  0.104E-01    2.56       1.0  T
   4     -9.6677860 -0.170784E-04  0.443E-02    2.56       1.0  T
   5     -9.6677935 -0.745684E-05  0.173E-02    2.56       2.6  T
   6     -9.6677938 -0.257465E-06  0.312E-03    2.56      14.3  T
   7     -9.6677937  0.496151E-07  0.285E-03    2.56      15.7  T
   8     -9.6677938 -0.601551E-07  0.447E-04    2.56     100.1  T
   9     -9.6677938 -0.428168E-09  0.184E-04    2.56     242.9  T
     SCC iter.                  ...        0 min,  0.001 sec
     gradient                   ...        0 min,  0.001 sec
 * total energy  :    -9.5380542 Eh     change       -0.6300929E-03 Eh
   gradient norm :     0.0204597 Eh/α   predicted    -0.1653675E-02 ( 162.45%)
   displ. norm   :     0.0539682 α      lambda       -0.1033321E-02
   maximum displ.:     0.0404156 α      in ANC's #1, #3, #6, ...

........................................................................
.............................. CYCLE   10 ..............................
........................................................................
   1     -9.6615991 -0.966160E+01  0.134E-01    2.47       0.0  T
   2     -9.6616021 -0.297089E-05  0.781E-02    2.47       1.0  T
   3     -9.6616007  0.137957E-05  0.229E-02    2.47       2.0  T
   4     -9.6616025 -0.186436E-05  0.141E-02    2.47       3.2  T
   5     -9.6616030 -0.444415E-06  0.491E-03    2.47       9.1  T
   6     -9.6616030 -0.564194E-07  0.110E-03    2.47      40.7  T
   7     -9.6616030  0.635425E-08  0.945E-04    2.47      47.3  T
   8     -9.6616030 -0.674030E-08  0.198E-04    2.47     226.0  T
     SCC iter.                  ...        0 min,  0.001 sec
     gradient                   ...        0 min,  0.001 sec
 * total energy  :    -9.5385515 Eh     change       -0.4972668E-03 Eh
   gradient norm :     0.0082017 Eh/α   predicted    -0.5181674E-03 (   4.20%)
   displ. norm   :     0.0206937 α      lambda       -0.6945431E-04
   maximum displ.:     0.0150153 α      in ANC's #6, #4, #3, ...

........................................................................
.............................. CYCLE   11 ..............................
........................................................................
   1     -9.6618873 -0.966189E+01  0.742E-02    2.42       0.0  T
   2     -9.6618869  0.382329E-06  0.463E-02    2.42       1.0  T
   3     -9.6618837  0.321735E-05  0.385E-02    2.42       1.2  T
   4     -9.6618895 -0.583137E-05  0.257E-03    2.42      17.4  T
   5     -9.6618895  0.258000E-08  0.905E-04    2.42      49.4  T
   6     -9.6618895 -0.688431E-09  0.723E-04    2.42      61.9  T
     SCC iter.                  ...        0 min,  0.000 sec
     gradient                   ...        0 min,  0.001 sec
 * total energy  :    -9.5385965 Eh     change       -0.4505736E-04 Eh
   gradient norm :     0.0042512 Eh/α   predicted    -0.3474244E-04 ( -22.89%)
   displ. norm   :     0.0117340 α      lambda       -0.3066157E-04
   maximum displ.:     0.0079155 α      in ANC's #1, #8, #9, ...

........................................................................
.............................. CYCLE   12 ..............................
........................................................................
   1     -9.6625307 -0.966253E+01  0.542E-02    2.40       0.0  T
   2     -9.6625318 -0.105515E-05  0.303E-02    2.40       1.5  T
   3     -9.6625312  0.534586E-06  0.159E-02    2.40       2.8  T
   4     -9.6625320 -0.734483E-06  0.692E-03    2.40       6.5  T
   5     -9.6625322 -0.204503E-06  0.179E-03    2.40      25.0  T
   6     -9.6625322  0.298193E-08  0.939E-04    2.40      47.6  T
   7     -9.6625322 -0.562107E-08  0.369E-04    2.40     121.1  T
     SCC iter.                  ...        0 min,  0.001 sec
     gradient                   ...        0 min,  0.003 sec
 * total energy  :    -9.5386146 Eh     change       -0.1806556E-04 Eh
   gradient norm :     0.0009352 Eh/α   predicted    -0.1533264E-04 ( -15.13%)
   displ. norm   :     0.0101383 α      lambda       -0.2880017E-05
   maximum displ.:     0.0063092 α      in ANC's #1, #4, #6, ...

........................................................................
.............................. CYCLE   13 ..............................
........................................................................
   1     -9.6626208 -0.966262E+01  0.296E-02    2.40       0.0  T
   2     -9.6626210 -0.184452E-06  0.156E-02    2.40       2.9  T
   3     -9.6626210  0.629522E-08  0.440E-03    2.40      10.2  T
   4     -9.6626210 -0.116462E-07  0.252E-03    2.40      17.7  T
   5     -9.6626210 -0.224157E-07  0.158E-03    2.40      28.3  T
   6     -9.6626210 -0.133982E-07  0.329E-04    2.40     135.8  T
   7     -9.6626210 -0.482219E-09  0.173E-04    2.40     258.8  T
     SCC iter.                  ...        0 min,  0.001 sec
     gradient                   ...        0 min,  0.001 sec
 * total energy  :    -9.5386166 Eh     change       -0.1961061E-05 Eh
   gradient norm :     0.0005535 Eh/α   predicted    -0.1440758E-05 ( -26.53%)
   displ. norm   :     0.0012414 α      lambda       -0.3650537E-06
   maximum displ.:     0.0008795 α      in ANC's #4, #9, #1, ...

   *** GEOMETRY OPTIMIZATION CONVERGED AFTER 13 ITERATIONS ***

------------------------------------------------------------------------
 total energy gain   :        -0.0983398 Eh      -61.7092 kcal/mol
 total RMSD          :         0.7488820 a0        0.3963 Å
 total power (kW/mol):       -19.8608625 (step)-6218.9246 (real)
------------------------------------------------------------------------

 ANCopt (total)                0 d,  0 h,  0 min,  0.042 sec
 optimizer setup                ...        0 min,  0.000 sec (  0.152%)
 model hessian                  ...        0 min,  0.000 sec (  0.219%)
 ANC generation                 ...        0 min,  0.000 sec (  0.127%)
 coordinate transformation      ...        0 min,  0.000 sec (  0.076%)
 single point calculation       ...        0 min,  0.040 sec ( 96.493%)
 optimization log               ...        0 min,  0.000 sec (  0.897%)
 hessian update                 ...        0 min,  0.000 sec (  0.082%)
 rational function              ...        0 min,  0.000 sec (  0.798%)

================
 final structure:
================
5
 xtb: 6.2.2 (9d81278992624c895f80dd42a50cac0aa55982e2)
N        -1.44087162671875   -0.05464250800477    0.23046616644203
C        -0.47183477108103    0.87159917094972   -0.01857478747197
C         0.65140363776262    0.01046847983190   -0.01239554174009
C        -0.44943371234745   -0.83676649075918   -0.28366195192156
H         1.71073647238461    0.00934134798233    0.08416711469159

 Bond Distances (Angstroems)
 ---------------------------
N1-C2=1.3634         N1-C4=1.3634         C2-N1=1.3634         C2-C3=1.4154         C2-C4=1.7290         C3-C2=1.4154         
C3-C4=1.4154         C3-H5=1.0637         C4-N1=1.3634         C4-C2=1.7290         C4-C3=1.4154         H5-C3=1.0637         
 C  H  Rav=1.0637 sigma=0.0000  Rmin=1.0637  Rmax=1.0637     1
 C  C  Rav=1.5199 sigma=0.1478  Rmin=1.4154  Rmax=1.7290     3
 N  C  Rav=1.3634 sigma=0.0000  Rmin=1.3634  Rmax=1.3634     2

 selected bond angles (degree)
 --------------------
C4-N1-C2= 78.70                C3-C2-N1= 98.62                C4-C2-N1= 50.65                C4-C2-C3= 52.35                
C4-C3-C2= 75.29                H5-C3-C2=142.31                H5-C3-C4=142.31                C2-C4-N1= 50.65                
C3-C4-N1= 98.62                C3-C4-C2= 52.35                

 selected dihedral angles (degree)
 ---------------------------------
C3-C2-N1-C4=337.40            C4-C3-C2-N1= 22.05            H5-C3-C2-N1=198.90            H5-C3-C2-C4=176.85            
C3-C4-N1-C2= 22.60            N1-C4-C2-C3=151.32            C3-C4-C2-N1=208.68            N1-C4-C3-C2=337.95            
N1-C4-C3-H5=161.10            C2-C4-C3-H5=183.15            
           -------------------------------------------------
          |                Final Singlepoint                |
           -------------------------------------------------

          ...................................................
          :                      SETUP                      :
          :.................................................:
          :  # basis functions                  17          :
          :  # atomic orbitals                  17          :
          :  # shells                            9          :
          :  # electrons                        18          :
          :  max. iterations                   250          :
          :  Hamiltonian                  GFN2-xTB          :
          :  restarted?                      false          :
          :  GBSA solvation                  false          :
          :  PC potential                    false          :
          :  electronic temp.          300.0000000     K    :
          :  accuracy                    1.0000000          :
          :  -> integral cutoff          0.2500000E+02      :
          :  -> integral neglect         0.1000000E-07      :
          :  -> SCF convergence          0.1000000E-05 Eh   :
          :  -> wf. convergence          0.1000000E-03 e    :
          :  Broyden damping             0.4000000          :
          ...................................................

 iter      E             dE          RMSdq      gap      omega  full diag
   1     -9.6626210 -0.966262E+01  0.566E-05    2.40       0.0  T
   2     -9.6626210 -0.440536E-12  0.256E-05    2.40    1744.3  T
   3     -9.6626210  0.105160E-11  0.193E-05    2.40    2314.4  T

   *** convergence criteria satisfied after 3 iterations ***

         #    Occupation            Energy/Eh            Energy/eV
      -------------------------------------------------------------
         1        2.0000           -0.7268967             -19.7799
       ...           ...                  ...                  ...
         4        2.0000           -0.5625483             -15.3077
         5        2.0000           -0.5465998             -14.8737
         6        2.0000           -0.5367422             -14.6055
         7        2.0000           -0.4484286             -12.2024
         8        2.0000           -0.4452921             -12.1170
         9        1.0000           -0.3967938             -10.7973
        10        1.0000           -0.3723066             -10.1310 (HOMO)
        11                         -0.2841820              -7.7330 (LUMO)
        12                         -0.2267817              -6.1710
        13                          0.0915992               2.4925
        14                          0.1279927               3.4829
        15                          0.1578916               4.2964
       ...                                ...                  ...
        17                          0.5982276              16.2786
      -------------------------------------------------------------
                  HL-Gap            0.0881246 Eh            2.3980 eV
             Fermi-level           -0.3746351 Eh          -10.1943 eV

 transition dipole moment (au) for excitation:           9          10
     X       Y       Z   
  -0.0028   0.2101   0.0326  total (au/Debye):    0.213   0.540
 dE (eV)             :    0.666
 oscillator strength :  0.10437E-02

 SCC (total)                   0 d,  0 h,  0 min,  0.003 sec
 SCC setup                      ...        0 min,  0.000 sec (  1.383%)
 Dispersion                     ...        0 min,  0.000 sec (  0.423%)
 integral evaluation            ...        0 min,  0.001 sec ( 30.226%)
 zeroth order Hamiltonian       ...        0 min,  0.000 sec (  0.480%)
 iterations                     ...        0 min,  0.000 sec ( 10.460%)
 molecular gradient             ...        0 min,  0.001 sec ( 31.043%)
 printout                       ...        0 min,  0.001 sec ( 25.699%)

         :::::::::::::::::::::::::::::::::::::::::::::::::::::
         ::                     SUMMARY                     ::
         :::::::::::::::::::::::::::::::::::::::::::::::::::::
         :: total energy              -9.538616562350 Eh    ::
         :: gradient norm              0.000556028233 Eh/a0 ::
         :: HOMO-LUMO gap              2.397992551792 eV    ::
         ::.................................................::
         :: SCC energy                -9.662621022632 Eh    ::
         :: -> isotropic ES            0.000080202734 Eh    ::
         :: -> anisotropic ES          0.001069366066 Eh    ::
         :: -> anisotropic XC          0.009890404747 Eh    ::
         :: -> dispersion             -0.002073687793 Eh    ::
         :: repulsion energy           0.124004451404 Eh    ::
         :: add. restraining           0.000000000000 Eh    ::
         :::::::::::::::::::::::::::::::::::::::::::::::::::::

           ------------------------------------------------- 
          |                Numerical Hessian                |
           ------------------------------------------------- 
step length          :   0.00500
SCC accuracy         :   0.30000
Hessian scale factor :   1.00000
frozen atoms in %    :   0.00000    0
RMS gradient         :   0.00056
estimated CPU  time      0.00 min
estimated wall time      0.00 min

writing file <hessian>.

 projected vibrational frequencies (cm-1)
eigval :       -0.00    -0.00     0.00     0.00     0.00     0.00
eigval :      545.58   593.28   783.20   847.43   956.51  1085.75
eigval :     1292.21  1427.41  3221.30
           -------------------------------------------------
          |                Property Printout                |
           -------------------------------------------------

    * Orbital Energies and Occupations

         #    Occupation            Energy/Eh            Energy/eV
      -------------------------------------------------------------
         1        2.0000           -0.7268967             -19.7799
         2        2.0000           -0.6390934             -17.3906
         3        2.0000           -0.6060125             -16.4904
         4        2.0000           -0.5625483             -15.3077
         5        2.0000           -0.5465998             -14.8737
         6        2.0000           -0.5367422             -14.6055
         7        2.0000           -0.4484286             -12.2024
         8        2.0000           -0.4452922             -12.1170
         9        1.0000           -0.3967938             -10.7973
        10        1.0000           -0.3723066             -10.1310 (HOMO)
        11                         -0.2841820              -7.7330 (LUMO)
        12                         -0.2267817              -6.1710
        13                          0.0915992               2.4925
        14                          0.1279927               3.4829
        15                          0.1578915               4.2964
        16                          0.2050670               5.5802
        17                          0.5982277              16.2786
      -------------------------------------------------------------
                  HL-Gap            0.0881246 Eh            2.3980 eV
             Fermi-level           -0.3746351 Eh          -10.1943 eV
Molecule has the following symmetry elements: (sigma) 
It seems to be the Cs point group

     #   Z        covCN         q      C6AA      α(0)
     1   7 N      1.993    -0.117    24.273     7.307
     2   6 C      2.797     0.001    27.991     8.667
     3   6 C      3.060     0.029    27.290     8.567
     4   6 C      2.797     0.001    27.991     8.667
     5   1 H      0.927     0.086     1.920     2.167

 Mol. C6AA /au·bohr⁶  :        488.456856
 Mol. C8AA /au·bohr⁸  :      12741.893393
 Mol. α(0) /au        :         35.374246


Wiberg/Mayer (AO) data.
largest (>0.10) Wiberg bond orders for each atom
          total WBO             WBO to atom ...
     1  N   2.526        C    2 1.212    C    4 1.212
     2  C   2.940        N    1 1.212    C    3 1.185    C    4 0.539
     3  C   3.416        C    4 1.185    C    2 1.185    H    5 0.959
     4  C   2.940        N    1 1.212    C    3 1.185    C    2 0.539
     5  H   0.983        C    3 0.959

MOs/occ written to file <molden.input>


molecular dipole:
                 x           y           z       tot (Debye)
 q only:        0.630       0.014      -0.039
   full:        1.023       0.022      -0.055       2.606
molecular quadrupole (traceless):
                xx          xy          yy          xz          yz          zz
 q only:        0.083      -0.041      -0.024       0.274       0.009      -0.059
  q+dip:        1.052      -0.122      -1.425       0.996      -0.272       0.373
   full:       -0.363      -0.163      -1.455       1.151      -0.505       1.818

           -------------------------------------------------
          |                Geometry Summary                 |
           -------------------------------------------------

      molecular mass/u    :       51.0468517
   center of mass at/Å    :       -0.4250765      -0.0041478      -0.0091285
  moments of inertia/u·Å² :        0.1896637E+02   0.3434602E+02   0.5128317E+02
rotational constants/cm⁻¹ :        0.8888169E+00   0.4908177E+00   0.3287166E+00

 * 5 selected distances

     #   Z        #   Z                                     value/Å
     1   7 N      2   6 C                                 1.3634432
     2   6 C      3   6 C                                 1.4153617 (max)
     1   7 N      4   6 C                                 1.3634496
     3   6 C      4   6 C                                 1.4153570
     3   6 C      5   1 H                                 1.0637254 (min)

 * 3 distinct bonds (by element types)

   Z      Z             #   av. dist./Å        max./Å        min./Å
   1 H    6 C           1     1.0637254     1.0637254     1.0637254
   6 C    6 C           2     1.4153594     1.4153617     1.4153570
   6 C    7 N           2     1.3634464     1.3634496     1.3634432

           -------------------------------------------------
          |               Frequency Printout                |
           -------------------------------------------------
 projected vibrational frequencies (cm-1)
eigval :       -0.00    -0.00     0.00     0.00     0.00     0.00
eigval :      545.58   593.28   783.20   847.43   956.51  1085.75
eigval :     1292.21  1427.41  3221.30
 reduced masses (amu)
   1: 10.89   2: 11.58   3: 12.46   4: 12.47   5: 12.15   6: 12.51   7:  4.33   8: 11.11
   9:  8.31  10: 12.06  11:  6.62  12: 12.17  13: 12.35  14: 12.16  15:  1.98
 IR intensities (amu)
   1:  0.17   2:  0.09   3:  0.06   4:  0.06   5:  0.06   6:  0.12   7:  0.15   8:  0.40
   9:  1.46  10:  0.39  11:  1.08  12:  0.06  13:  0.55  14:  0.34  15:  0.04
 Raman intensities (amu)
   1:  0.00   2:  0.00   3:  0.00   4:  0.00   5:  0.00   6:  0.00   7:  0.00   8:  0.00
   9:  0.00  10:  0.00  11:  0.00  12:  0.00  13:  0.00  14:  0.00  15:  0.00
 output can be read by thermo (or use thermo option).
 writing <g98.out> molden fake output.
 recommended (thermochemical) frequency scaling factor: 1.0
           -------------------------------------------------
          |             Thermodynamic Functions             |
           -------------------------------------------------

cs  symmetry found (for desy threshold:  0.10E+00) used in thermo

          ...................................................
          :                      SETUP                      :
          :.................................................:
          :  # frequencies                           9      :
          :  # imaginary freq.                       0      :
          :  linear?                             false      :
          :  only rotor calc.                    false      :
          :  symmetry                               cs      :
          :  rotational number                       1      :
          :  scaling factor                  1.0000000      :
          :  rotor cutoff                   50.0000000 cm⁻¹ :
          :  imag. cutoff                  -20.0000000 cm⁻¹ :
          :.................................................:

    mode    ω/cm⁻¹     T·S(HO)/kcal·mol⁻¹    T·S(FR)/kcal·mol⁻¹   T·S(vib)
   ------------------------------------------------------------------------
   ------------------------------------------------------------------------

   temp. (K)  partition function   enthalpy   heat capacity  entropy
                                   cal/mol     cal/K/mol   cal/K/mol   J/K/mol
 298.15  VIB   1.21                  372.426      4.418      1.630
         ROT  0.140E+05              888.752      2.981     21.948
         INT  0.169E+05             1261.178      7.399     23.578
         TR   0.353E+27             1481.254      4.968     37.697
         TOT                        2742.4319    12.3672    61.2741   256.3707

   temp. (K)  partition function   enthalpy   heat capacity  entropy
                                   cal/mol     cal/K/mol   cal/K/mol   J/K/mol
 120.00  VIB   1.00                    3.953      0.231      0.038
         ROT  0.357E+04              357.707      2.981     19.235
         INT  0.357E+04              361.659      3.212     19.272
         TR   0.901E+26              596.178      4.968     33.177
         TOT                         957.8374     8.1802    52.4495   219.4488

   temp. (K)  partition function   enthalpy   heat capacity  entropy
                                   cal/mol     cal/K/mol   cal/K/mol   J/K/mol
 100.00  VIB   1.00                    0.986      0.081      0.011
         ROT  0.271E+04              298.089      2.981     18.691
         INT  0.271E+04              299.075      3.062     18.702
         TR   0.685E+26              496.815      4.968     32.272
         TOT                         795.8897     8.0304    50.9740   213.2753

   temp. (K)  partition function   enthalpy   heat capacity  entropy
                                   cal/mol     cal/K/mol   cal/K/mol   J/K/mol
  80.00  VIB   1.00                    0.127      0.016      0.002
         ROT  0.194E+04              238.471      2.981     18.026
         INT  0.194E+04              238.598      2.997     18.028
         TR   0.490E+26              397.452      4.968     31.164
         TOT                         636.0505     7.9652    49.1914   205.8170

   temp. (K)  partition function   enthalpy   heat capacity  entropy
                                   cal/mol     cal/K/mol   cal/K/mol   J/K/mol
  60.00  VIB   1.00                    0.004      0.001     -0.000
         ROT  0.126E+04              178.853      2.981     17.168
         INT  0.126E+04              178.858      2.982     17.168
         TR   0.319E+26              298.089      4.968     29.735
         TOT                         476.9468     7.9500    46.9036   196.2448

   temp. (K)  partition function   enthalpy   heat capacity  entropy
                                   cal/mol     cal/K/mol   cal/K/mol   J/K/mol
  40.00  VIB   1.00                    0.000      0.000     -0.000
         ROT   686.                  119.236      2.981     15.960
         INT   686.                  119.236      2.981     15.960
         TR   0.173E+26              198.726      4.968     27.722
         TOT                         317.9616     7.9490    43.6814   182.7630

   temp. (K)  partition function   enthalpy   heat capacity  entropy
                                   cal/mol     cal/K/mol   cal/K/mol   J/K/mol
  20.00  VIB   1.00                    0.000      0.000     -0.000
         ROT   243.                   59.618      2.981     13.894
         INT   243.                   59.618      2.981     13.893
         TR   0.613E+25               99.363      4.968     24.280
         TOT                         158.9808     7.9490    38.1731   159.7164

   temp. (K)  partition function   enthalpy   heat capacity  entropy
                                   cal/mol     cal/K/mol   cal/K/mol   J/K/mol
  10.00  VIB   1.00                    0.000      0.000     -0.000
         ROT   85.8                   29.809      2.981     11.827
         INT   85.8                   29.809      2.981     11.827
         TR   0.217E+25               49.681      4.968     20.838
         TOT                          79.4904     7.9490    32.6648   136.6697

       T/K    H(0)-H(T)+PV         H(T)/Eh          T*S/Eh         G(T)/Eh
   ------------------------------------------------------------------------
    298.15    0.437034E-02    0.288667E-01    0.291133E-01   -0.246560E-03
    120.00    0.152641E-02    0.260228E-01    0.100300E-01    0.159928E-01
    100.00    0.126833E-02    0.257647E-01    0.812323E-02    0.176415E-01
     80.00    0.101361E-02    0.255100E-01    0.627132E-02    0.192387E-01
     60.00    0.760063E-03    0.252565E-01    0.448474E-02    0.207717E-01
     40.00    0.506704E-03    0.250031E-01    0.278443E-02    0.222187E-01
     20.00    0.253352E-03    0.247497E-01    0.121665E-02    0.235331E-01
     10.00    0.126676E-03    0.246231E-01    0.520547E-03    0.241025E-01 (used)
   ------------------------------------------------------------------------

         :::::::::::::::::::::::::::::::::::::::::::::::::::::
         ::                  THERMODYNAMIC                  ::
         :::::::::::::::::::::::::::::::::::::::::::::::::::::
         :: total free energy          -9.514514045122 Eh   ::
         ::.................................................::
         :: total energy               -9.538616562255 Eh   ::
         :: zero point energy           0.024496388481 Eh   ::
         :: G(RRHO) w/o ZPVE           -0.000393871348 Eh   ::
         :: G(RRHO) contrib.            0.024102517133 Eh   ::
         :::::::::::::::::::::::::::::::::::::::::::::::::::::

optimized geometry written to: xtbopt.xyz


           -------------------------------------------------
          | TOTAL ENERGY               -9.538616562255 Eh   |
          | TOTAL ENTHALPY             -9.513993497758 Eh   |
          | TOTAL FREE ENERGY          -9.514514045122 Eh   |
          | GRADIENT NORM               0.000556010810 Eh/α |
          | HOMO-LUMO GAP               2.397992622325 eV   |
           -------------------------------------------------

------------------------------------------------------------------------
 * finished run on 2020/05/12 at 11:45:02.529     
------------------------------------------------------------------------
 total:
 * wall-time:     0 d,  0 h,  0 min,  0.152 sec
 *  cpu-time:     0 d,  0 h,  0 min,  0.151 sec
 * ratio c/w:     0.991 speedup
 SCF:
 * wall-time:     0 d,  0 h,  0 min,  0.005 sec
 *  cpu-time:     0 d,  0 h,  0 min,  0.005 sec
 * ratio c/w:     1.000 speedup
 ANC optimizer:
 * wall-time:     0 d,  0 h,  0 min,  0.046 sec
 *  cpu-time:     0 d,  0 h,  0 min,  0.045 sec
 * ratio c/w:     0.980 speedup
 numerical hessian:
 * wall-time:     0 d,  0 h,  0 min,  0.083 sec
 *  cpu-time:     0 d,  0 h,  0 min,  0.083 sec
 * ratio c/w:     0.996 speedup

