5
 energy: -9.538616562350 gnorm: 0.000556028233 xtb: 6.2.2 (9d81278992624c895f80dd42a50cac0aa55982e2)
N        -1.44087110831660   -0.05463456138262    0.23047129140024
C        -0.47183027223282    0.87160160903875   -0.01857466168530
C         0.65140364929378    0.01046504745620   -0.01239783383859
C        -0.44943908380215   -0.83676463259534   -0.28365892266676
H         1.71073681506129    0.00933253748476    0.08416112679041
