 Entering Gaussian System
 *********************************************
 Gaussian 98:
 frequency output generated by the xtb code
 *********************************************
                         Standard orientation:
 --------------------------------------------------------------------
  Center     Atomic     Atomic              Coordinates (Angstroms)
  Number     Number      Type              X           Y           Z
 --------------------------------------------------------------------
    1          6             0       -0.493254    0.938248    0.146931
    2          6             0        0.645975   -0.014200    0.032963
    3          6             0       -0.535171   -0.910625    0.171916
    4          7             0        1.837850   -0.043384   -0.127044
    5          6             0       -1.455400    0.029960   -0.224767
 --------------------------------------------------------------------
     1 basis functions        1 primitive gaussians
     1 alpha electrons        1 beta electrons

 Harmonic frequencies (cm**-1), IR intensities (KM/Mole),
 Raman scattering activities (A**4/amu), Raman depolarization ratios,
 reduced masses (AMU), force constants (mDyne/A) and normal coordinates:
                      1                      2                      3
                        a                      a                      a 
 Frequencies --   244.9493               369.5002               499.6428
 Red. masses --    12.4042                12.6650                12.0317
 Frc consts  --     0.0000                 0.0000                 0.0000
 IR Inten    --     0.3132                 0.1447                 0.6714
 Raman Activ --     0.0000                 0.0000                 0.0000
 Depolar     --     0.0000                 0.0000                 0.0000
 Atom AN      X      Y      Z        X      Y      Z        X      Y      Z
   1   6     0.05   0.02  -0.32     0.23  -0.13  -0.11     0.51  -0.30  -0.05
   2   6     0.04  -0.01  -0.39    -0.01  -0.66   0.01     0.01   0.54   0.01
   3   6     0.05  -0.03  -0.33    -0.23  -0.12   0.11    -0.52  -0.28   0.03
   4   7     0.14   0.00   0.42     0.01   0.57  -0.01     0.00   0.10  -0.01
   5   6    -0.29   0.01   0.59     0.01   0.28  -0.00    -0.00  -0.07   0.01
                      4                      5                      6
                        a                      a                      a 
 Frequencies --   513.0435               628.0489               835.9127
 Red. masses --    12.1388                12.3640                12.0199
 Frc consts  --     0.0000                 0.0000                 0.0000
 IR Inten    --     0.2621                 0.0766                 2.6324
 Raman Activ --     0.0000                 0.0000                 0.0000
 Depolar     --     0.0000                 0.0000                 0.0000
 Atom AN      X      Y      Z        X      Y      Z        X      Y      Z
   1   6     0.01   0.18  -0.37     0.17   0.39  -0.01    -0.30  -0.39  -0.13
   2   6     0.07  -0.00   0.73    -0.40   0.01  -0.21     0.00   0.21  -0.01
   3   6     0.03  -0.18  -0.36     0.15  -0.40   0.00     0.29  -0.40   0.15
   4   7    -0.10  -0.01  -0.23    -0.40   0.01   0.12    -0.00  -0.07   0.00
   5   6     0.00   0.01   0.25     0.50  -0.01   0.08     0.02   0.65  -0.01
                      7                      8                      9
                        a                      a                      a 
 Frequencies --   956.8282              1470.7934              1855.9441
 Red. masses --    12.3579                12.0453                12.8036
 Frc consts  --     0.0000                 0.0000                 0.0000
 IR Inten    --     0.0992                 0.2952                 0.7478
 Raman Activ --     0.0000                 0.0000                 0.0000
 Depolar     --     0.0000                 0.0000                 0.0000
 Atom AN      X      Y      Z        X      Y      Z        X      Y      Z
   1   6    -0.42   0.43   0.06    -0.31  -0.36  -0.12    -0.01  -0.08  -0.04
   2   6     0.27  -0.01  -0.10     0.09  -0.00  -0.04    -0.75   0.02   0.11
   3   6    -0.43  -0.41   0.07    -0.29   0.37  -0.13    -0.01   0.08  -0.04
   4   7     0.42  -0.01  -0.04    -0.13   0.00   0.02     0.62  -0.02  -0.08
   5   6     0.13  -0.00   0.01     0.66  -0.01   0.26     0.10  -0.00   0.06
