5
 energy: -10.902933806409 gnorm: 0.262284655217 xtb: 6.2.2 (9d81278992624c895f80dd42a50cac0aa55982e2)
C        -0.39982100000000    1.08062900000000    0.08364600000000
C         0.56280100000000   -0.00576200000000    0.51767200000000
C        -0.44831400000000   -1.05875400000000    0.11255200000000
N         1.69560300000000   -0.04371600000000   -0.39096800000000
C        -1.41026900000000    0.02760300000000   -0.32290200000000
5
 energy: -10.967280028015 gnorm: 0.185047231783 xtb: 6.2.2 (9d81278992624c895f80dd42a50cac0aa55982e2)
C        -0.40428492402619    1.04755218491086    0.02690794139149
C         0.56905162539978   -0.00728009008370    0.41581171494621
C        -0.45130954699615   -1.02705310652352    0.05493877282880
N         1.68029768821946   -0.04199040426670   -0.28893342656645
C        -1.39375484259690    0.02877141596306   -0.20872500260004
5
 energy: -10.924049453455 gnorm: 0.733468343189 xtb: 6.2.2 (9d81278992624c895f80dd42a50cac0aa55982e2)
C        -0.47409658252889    0.93597622064713    0.07037283871788
C         0.68507766727584   -0.01226994865343    0.24116255960639
C        -0.51596795390648   -0.91129597113768    0.09533212276470
N         1.62275151497371   -0.03935171113691   -0.19017621271363
C        -1.31776464581419    0.02694141028089   -0.21669130837533
5
 energy: -11.008088196113 gnorm: 0.117584867827 xtb: 6.2.2 (9d81278992624c895f80dd42a50cac0aa55982e2)
C        -0.48136954292090    0.97262865987237    0.07461288481059
C         0.62264301089389   -0.01078002972251    0.24669548647276
C        -0.52489136589583   -0.94745344088989    0.10055595281275
N         1.77248832299550   -0.04313608855240   -0.21907043788282
C        -1.38887042507265    0.02874089929243   -0.20279388621328
5
 energy: -11.020587955347 gnorm: 0.074496758850 xtb: 6.2.2 (9d81278992624c895f80dd42a50cac0aa55982e2)
C        -0.51406702927095    0.96157052494085    0.12204678764047
C         0.65850165362502   -0.01307812117819    0.13677281398109
C        -0.55702530698688   -0.93364843765396    0.14765391586178
N         1.84927661981720   -0.04434898007826   -0.18002223055142
C        -1.43668593718438    0.02950501396956   -0.22645128693191
5
 energy: -11.021503251670 gnorm: 0.071540722162 xtb: 6.2.2 (9d81278992624c895f80dd42a50cac0aa55982e2)
C        -0.50474363358994    0.96428557915518    0.18821600679261
C         0.66211696489183   -0.01343154803549    0.11667253608320
C        -0.54779373866801   -0.93499515815562    0.21387787458138
N         1.81521777390546   -0.04391534452725   -0.20505167502798
C        -1.42479736653934    0.02805647156317   -0.31371474242920
5
 energy: -11.024993929005 gnorm: 0.023100170865 xtb: 6.2.2 (9d81278992624c895f80dd42a50cac0aa55982e2)
C        -0.50239990680267    0.93847759221479    0.14964920841157
C         0.66309093788054   -0.01381217094487    0.09012719704442
C        -0.54430653420822   -0.91037001788998    0.17462925048046
N         1.84267297962765   -0.04397026325203   -0.16302732518619
C        -1.45905747649729    0.02967485987209   -0.25137833075026
5
 energy: -11.025635534471 gnorm: 0.018013384762 xtb: 6.2.2 (9d81278992624c895f80dd42a50cac0aa55982e2)
C        -0.50464974820215    0.93521711092043    0.15709154844623
C         0.65469013345876   -0.01398856843883    0.06299325326323
C        -0.54640211190120   -0.90681139375977    0.18197970846895
N         1.84407548098387   -0.04387140953791   -0.15338040271309
C        -1.44771375433929    0.02945426081609   -0.24868410746531
5
 energy: -11.026001465443 gnorm: 0.007942629704 xtb: 6.2.2 (9d81278992624c895f80dd42a50cac0aa55982e2)
C        -0.49304492644538    0.93376493572314    0.15171374176356
C         0.64424698272382   -0.01395466217745    0.04792755808636
C        -0.53474578992821   -0.90602314301973    0.17656721678173
N         1.83322539239094   -0.04344586347090   -0.13981892017975
C        -1.44968165874117    0.02965873294495   -0.23638959645189
5
 energy: -11.026062848777 gnorm: 0.004609331313 xtb: 6.2.2 (9d81278992624c895f80dd42a50cac0aa55982e2)
C        -0.49350893564933    0.93625129977671    0.15282034614325
C         0.64406016039677   -0.01407309968104    0.03890030740206
C        -0.53532247838904   -0.90845738758050    0.17774185517095
N         1.83626473276072   -0.04344897885112   -0.13506675878659
C        -1.45149347911912    0.02972816633596   -0.23439574992966
5
 energy: -11.026075751352 gnorm: 0.002576225121 xtb: 6.2.2 (9d81278992624c895f80dd42a50cac0aa55982e2)
C        -0.49336360113084    0.93771008609109    0.15141337888196
C         0.64448290439800   -0.01411883185894    0.03625910800375
C        -0.53524472979463   -0.90996232212944    0.17637682783225
N         1.83662454311523   -0.04341913328212   -0.13237191766487
C        -1.45249911658776    0.02979020117941   -0.23167739705309
5
 energy: -11.026082766148 gnorm: 0.001127864705 xtb: 6.2.2 (9d81278992624c895f80dd42a50cac0aa55982e2)
C        -0.49324933337522    0.93835618597347    0.14881647471880
C         0.64536701500467   -0.01417144042865    0.03385027082158
C        -0.53516096787283   -0.91068643052169    0.17379993745605
N         1.83739022982672   -0.04338927533829   -0.12894947574598
C        -1.45434694358333    0.02989096031515   -0.22751720725045
5
 energy: -11.026083984541 gnorm: 0.000347440118 xtb: 6.2.2 (9d81278992624c895f80dd42a50cac0aa55982e2)
C        -0.49325977427747    0.93824546616875    0.14693122198507
C         0.64597541207914   -0.01419692207356    0.03296572855088
C        -0.53516694356971   -0.91062765311727    0.17191272142612
N         1.83785111430681   -0.04337383984504   -0.12703735061692
C        -1.45539980853876    0.02995294886712   -0.22477232134515
