[Molden Format]
[Title]
[Atoms] AU
C      1     6 -0.93211554242446E+00  0.17730321694044E+01  0.27765990216231E+00
C      2     6  0.12207165757726E+01 -0.26834574972558E-01  0.62291978399380E-01
C      3     6 -0.10113267367132E+01 -0.17208308439684E+01  0.32487446428619E+00
N      4     7  0.34730336744263E+01 -0.81983274432456E-01 -0.24007775811255E+00
C      5     6 -0.27503079710612E+01  0.56616523968997E-01 -0.42474858673533E+00
[GTO]
           1 0
 s           4   1.0000000000000000     
   51.049363095579913      -0.16312063210127389     
   8.7911227406887544      -0.19911024581000730     
  0.70640422258929825       0.31882047753655751     
  0.26922813413411617       0.12706504184240380     
 p           4   1.0000000000000000     
   5.8263656140800002       0.73716451545209605     
   1.5106896018720002       0.68216371614850257     
  0.53256483288000001       0.35783053929253711     
  0.21202323690600003        5.3983030275847881E-002

           2 0
 s           4   1.0000000000000000     
   51.049363095579913      -0.16312063210127389     
   8.7911227406887544      -0.19911024581000730     
  0.70640422258929825       0.31882047753655751     
  0.26922813413411617       0.12706504184240380     
 p           4   1.0000000000000000     
   5.8263656140800002       0.73716451545209605     
   1.5106896018720002       0.68216371614850257     
  0.53256483288000001       0.35783053929253711     
  0.21202323690600003        5.3983030275847881E-002

           3 0
 s           4   1.0000000000000000     
   51.049363095579913      -0.16312063210127389     
   8.7911227406887544      -0.19911024581000730     
  0.70640422258929825       0.31882047753655751     
  0.26922813413411617       0.12706504184240380     
 p           4   1.0000000000000000     
   5.8263656140800002       0.73716451545209605     
   1.5106896018720002       0.68216371614850257     
  0.53256483288000001       0.35783053929253711     
  0.21202323690600003        5.3983030275847881E-002

           4 0
 s           4   1.0000000000000000     
   63.594024466941008      -0.19234388414721629     
   10.951417231523665      -0.23478107924953728     
  0.87999310257376984       0.37593753901700888     
  0.33538715296521110       0.14982889271862770     
 p           4   1.0000000000000000     
   7.2965040481495080       0.97658666315667420     
   1.8918745450712575       0.90372226730345739     
  0.66694432110824120       0.47404958461536373     
  0.26552202674130870        7.1516067715011844E-002

           5 0
 s           4   1.0000000000000000     
   51.049363095579913      -0.16312063210127389     
   8.7911227406887544      -0.19911024581000730     
  0.70640422258929825       0.31882047753655751     
  0.26922813413411617       0.12706504184240380     
 p           4   1.0000000000000000     
   5.8263656140800002       0.73716451545209605     
   1.5106896018720002       0.68216371614850257     
  0.53256483288000001       0.35783053929253711     
  0.21202323690600003        5.3983030275847881E-002

[MO]
Sym=     1a
Ene=  -0.73817044020263600     
Spin= Alpha
Occup=     2.00000000
           1 -0.32070833574335517     
           2  -1.4948976041201764E-003
           3  0.14789503116382557     
           4   2.4296808913960046E-002
           5 -0.30938173966251264     
           6  0.12882349462557252     
           7  -2.9513174356588625E-003
           8  -2.2357540660606244E-003
           9 -0.32070610721403731     
          10  -8.1799863618951651E-003
          11 -0.14696437887746372     
          12   2.8281065431573028E-002
          13  -6.2618473497763560E-002
          14   6.0135607731549051E-002
          15  -1.4356929683230321E-003
          16  -5.3443625604574982E-003
          17 -0.30887846388781115     
          18 -0.15465934977372392     
          19   2.8476256287317549E-003
          20  -4.8717800923994893E-002
Sym=     2a
Ene=  -0.70034083044922057     
Spin= Alpha
Occup=     2.00000000
           1   6.8973553780769553E-002
           2  -9.6904025268342409E-002
           3  -2.3641789345896010E-002
           4  -5.2869633121987837E-003
           5 -0.39711786285301764     
           6 -0.27645785750156315     
           7   6.6334108192510439E-003
           8   2.7076267751418585E-002
           9   6.8972738904621064E-002
          10  -9.5735510079365566E-002
          11   2.7856814605821227E-002
          12  -5.9827662170434887E-003
          13 -0.49956778732055362     
          14  0.21804670717975067     
          15  -5.3688725879299766E-003
          16  -3.1472128964793379E-002
          17  0.16823338163331919     
          18   3.5556396529630267E-002
          19  -4.6803847266893014E-004
          20   2.4990081912083160E-002
Sym=     3a
Ene=  -0.63044637937140857     
Spin= Alpha
Occup=     2.00000000
           1 -0.47533081198983279     
           2  -1.3094684585548168E-002
           3  -6.3732054565586296E-002
           4   4.1747797341008280E-002
           5   2.7057376266445439E-006
           6  -7.9896884437607191E-003
           7 -0.35227956029724117     
           8   4.7615162389998958E-003
           9  0.47533171669853841     
          10   1.0172859435851681E-002
          11  -6.5361851511473626E-002
          12  -4.0002015142240117E-002
          13  -3.1263589515082576E-006
          14  -3.6070328487913484E-003
          15 -0.15909692667385558     
          16   2.1502514753665605E-003
          17  -3.4623781007800367E-006
          18  -7.1633387833039720E-003
          19 -0.31597612109391282     
          20   4.2698645152614966E-003
Sym=     4a
Ene=  -0.62031059214530593     
Spin= Alpha
Occup=     2.00000000
           1  -3.8504684073735786E-002
           2 -0.30637689351467706     
           3   9.6905700485232556E-003
           4  -6.3335994172999788E-002
           5 -0.24664701086166732     
           6  0.28664507220491470     
           7  -7.9411284662803394E-003
           8 -0.10636186158413269     
           9  -3.8497056572750689E-002
          10 -0.30653507312893763     
          11   2.4934289112326863E-003
          12  -6.3238574120302871E-002
          13  0.33880351829501509     
          14   1.8935019075915029E-002
          15  -8.9577028681301133E-004
          16  -3.4330649864719717E-002
          17  0.48956940422572287     
          18  -5.8439466719119752E-002
          19   1.6263101042421585E-003
          20   2.2374382208538653E-002
Sym=     5a
Ene=  -0.56741975317586768     
Spin= Alpha
Occup=     2.00000000
           1   6.7922337815770603E-002
           2  -6.8190111635410264E-002
           3  -1.4268979797603163E-002
           4  0.30604567853481135     
           5  -3.9884340748311868E-002
           6   9.5817583166881826E-002
           7   4.4920471446771339E-003
           8  0.49526189048396924     
           9   6.7907199514421368E-002
          10  -6.7242393671346851E-002
          11   2.5606489257972671E-002
          12  0.30550956667403650     
          13   7.7944311726725363E-002
          14   7.2895045486935525E-002
          15   3.3558858979051815E-003
          16  0.37243582039728423     
          17  -4.6368640021614602E-004
          18  -8.1009723694888666E-002
          19   5.7992977145684913E-003
          20  0.29131281775139617     
Sym=     6a
Ene=  -0.56689194391261466     
Spin= Alpha
Occup=     2.00000000
           1  0.10676995635140978     
           2 -0.32012698624553915     
           3   2.6459446264605384E-002
           4  -4.2701752529407520E-002
           5   4.8092655064324813E-006
           6  -9.5623289893067669E-003
           7 -0.42145049295239662     
           8   5.6625040787055322E-003
           9 -0.10677817267525773     
          10  0.32103514981657938     
          11   1.3065141388579837E-002
          12   4.2126879257626329E-002
          13  -7.4173222119156218E-006
          14  -8.2366827834782341E-003
          15 -0.36304870760805125     
          16   4.8813941130371472E-003
          17  -3.1733589381481066E-006
          18   8.7900762720685664E-003
          19  0.38744574286449412     
          20  -5.2554370950376444E-003
Sym=     7a
Ene=  -0.50405010561977925     
Spin= Alpha
Occup=     2.00000000
           1 -0.17706639284376091     
           2   5.3457163020954272E-003
           3  -4.9336065517037689E-002
           4 -0.18847585119748739     
           5  0.16265046179413914     
           6   9.1737447477386658E-002
           7   9.6409493793409430E-004
           8  0.22520966862984437     
           9 -0.17706575664775187     
          10   7.4601011709063301E-003
          11   4.3934226730375767E-002
          12 -0.18973317308501816     
          13 -0.40879825938787195     
          14 -0.31620738091430506     
          15   1.3462524680368026E-002
          16  0.46569991605178079     
          17  0.31246752767863034     
          18 -0.15015316417760774     
          19  -1.1849254642983665E-003
          20 -0.33960660519206348     
Sym=     8a
Ene=  -0.49153156581627316     
Spin= Alpha
Occup=     2.00000000
           1  -5.1278205263279045E-002
           2  -9.1769319566509036E-002
           3  -2.3911724539724451E-002
           4  0.20271528477388207     
           5  0.14049967796788815     
           6  0.10484091726926534     
           7  -4.9975370603859261E-003
           8 -0.19395453811727367     
           9  -5.1279093201232064E-002
          10  -9.0467129429544324E-002
          11   3.3511829087716924E-002
          12  0.20193572783310418     
          13 -0.45428969849906942     
          14 -0.53227249043668212     
          15   7.6615015662312956E-003
          16 -0.32605692339707654     
          17   6.6061784371140797E-002
          18 -0.19852842254814204     
          19   9.1248304742089798E-003
          20  0.34219804741232662     
Sym=     9a
Ene=  -0.46833854548992515     
Spin= Alpha
Occup=     1.99997137
           1 -0.44918497652692835     
           2   1.6016097536489596E-002
           3 -0.50966246359080802     
           4   5.0056242009097363E-002
           5   3.4143011904687083E-002
           6  -9.6194108470355102E-002
           7   2.1923826883186183E-003
           8   8.3560706136282849E-004
           9 -0.44918635779605992     
          10   3.9126469057799360E-002
          11  0.50957541020557717     
          12   3.6283531943136951E-002
          13  0.11593724296955411     
          14  0.14334282071065649     
          15  -4.3248277359687580E-003
          16  -7.9617498933509626E-002
          17   2.4710558058441873E-002
          18   3.6819549843503781E-002
          19   2.0720474161566911E-004
          20   7.6982058235546047E-002
Sym=    10a
Ene=  -0.44846178492766114     
Spin= Alpha
Occup=     1.00002863
           1  0.26486145263678879     
           2  0.25423600416852482     
           3  0.18114243169155345     
           4  0.15675939791556456     
           5  -7.8547070492712565E-008
           6   8.5946030419281721E-006
           7   3.8633205169793009E-004
           8  -5.3464000168404983E-006
           9 -0.26486382039599576     
          10 -0.24586223550040429     
          11  0.18817835690606607     
          12 -0.16175049611562581     
          13   5.4800069233406615E-007
          14  -1.6895621456537894E-002
          15 -0.74527878401578895     
          16   1.0071315869712959E-002
          17   1.9604967861355660E-006
          18  -5.9578326150971812E-003
          19 -0.26273792448448841     
          20   3.5495640990595694E-003
Sym=    11a
Ene=  -0.42594016894746428     
Spin= Alpha
Occup=     1.00000000
           1   8.6104942547318084E-003
           2  0.20327197418551357     
           3   5.7199990445085482E-002
           4  0.11195347991598256     
           5  0.15225489247112675     
           6 -0.21651624742576964     
           7   5.7693792116030006E-003
           8   6.3727403539375796E-002
           9   8.6106499553081119E-003
          10  0.20054179202691280     
          11  -6.3306153009609054E-002
          12  0.11358021716135641     
          13  0.14143890306515539     
          14  0.23540297870388568     
          15  -8.6902539940166747E-003
          16 -0.24829805426932181     
          17  0.43651042281067465     
          18 -0.70557979052485320     
          19   1.3896437288136427E-002
          20 -0.15547421195516789     
Sym=    12a
Ene=  -0.38346811954516241     
Spin= Alpha
Occup=     1.00000000
           1 -0.11642146860711565     
           2  0.17600344994245506     
           3 -0.18440866858280849     
           4 -0.60977772733898428     
           5  -6.4725418622861045E-008
           6   3.9008533536348125E-003
           7  0.17205413094111821     
           8  -2.3239638508964905E-003
           9  0.11642256305718086     
          10 -0.18380502995419340     
          11 -0.15970831790773538     
          12  0.61443120861410405     
          13   7.5119243662980676E-008
          14  -8.1449153601513766E-003
          15 -0.35925227956182371     
          16   4.8524073923893558E-003
          17   4.5918388447455383E-007
          18   2.5093776458275747E-003
          19  0.11076434019847173     
          20  -1.4951690645658873E-003
Sym=    13a
Ene=  -0.31930809169388791     
Spin= Alpha
Occup=     0.00000000
           1  -2.8642693529132162E-002
           2   5.9109217452433561E-002
           3   3.0346124053079130E-002
           4 -0.24805333958401912     
           5   9.8976108252573122E-002
           6 -0.14892505711933324     
           7  -3.1748051693866524E-003
           8 -0.48486126110790900     
           9  -2.8641975700879521E-002
          10   5.7520897988559354E-002
          11  -3.9684374726826753E-002
          12 -0.24710683436221176     
          13   9.9532565349367275E-003
          14  0.15874861424243225     
          15   3.7937406862905377E-003
          16  0.54714378340417968     
          17  -3.4340450394341776E-002
          18 -0.31128772802766558     
          19   1.5762450717672221E-002
          20  0.64411012359933772     
Sym=    14a
Ene=  -0.31112377287671705     
Spin= Alpha
Occup=     0.00000000
           1  -6.5076662314693390E-002
           2   1.3875646613493737E-002
           3 -0.60115352112220721     
           4  0.34272000275202930     
           5  -4.6157111211673928E-007
           6   6.9520678578205439E-003
           7  0.30662752890201467     
           8  -4.1429894232813411E-003
           9   6.5077887042150215E-002
          10  -4.1310284274008173E-002
          11 -0.60894544326124633     
          12 -0.32636670375897164     
          13  -1.4995806296189722E-008
          14  -6.6835340757229762E-003
          15 -0.29479104263526784     
          16   3.9829034002966356E-003
          17   3.9867203241613646E-007
          18   6.3045221534263479E-003
          19  0.27807245665708091     
          20  -3.7604181061290033E-003
Sym=    15a
Ene=  -0.19919396284081467     
Spin= Alpha
Occup=     0.00000000
           1   5.6908673875837486E-002
           2  -2.8451704268600581E-002
           3  -5.3807620220283583E-002
           4  0.49891325270836179     
           5  -6.5627376778356603E-002
           6  -6.0663528509948231E-002
           7  -8.2863808656505871E-003
           8 -0.71495603570088184     
           9   5.6908596001139254E-002
          10  -2.5678735097598208E-002
          11   6.8496848725591378E-002
          12  0.49726135974900876     
          13   1.3177652499442654E-002
          14   1.0004030978894570E-002
          15   6.1366352506996161E-003
          16  0.47088566511011604     
          17   2.9739402818081892E-002
          18   5.2227110754136191E-002
          19  -7.7964853304520196E-003
          20 -0.48933428477943558     
Sym=    16a
Ene=    6.9615380781256314E-002
Spin= Alpha
Occup=     0.00000000
           1  0.47512437922259759     
           2  0.42360122663997585     
           3 -0.40365223579541143     
           4  -6.4072453574523416E-002
           5  -6.3205958707532560E-006
           6  -2.1183797110828462E-002
           7 -0.93452403325974887     
           8   1.2628205960938284E-002
           9 -0.47512261059613270     
          10 -0.44140731480555284     
          11 -0.38216512744521020     
          12   7.4691736222282104E-002
          13   4.6537624944509586E-007
          14   8.3627333793874145E-003
          15  0.36895185430381677     
          16  -4.9855379179102478E-003
          17   3.3926444519957147E-006
          18  -1.8011188258961904E-003
          19  -7.9477625901266336E-002
          20   1.0756661562671545E-003
Sym=    17a
Ene=   0.10010428010428771     
Spin= Alpha
Occup=     0.00000000
           1 -0.19401319820395563     
           2 -0.63123965879291632     
           3  0.19059594904986080     
           4   2.0560455368122510E-002
           5  0.99011687140301086     
           6 -0.38621370430512092     
           7   9.4361594789094134E-003
           8   5.0916732891624052E-002
           9 -0.19401282894606281     
          10 -0.63923089482070083     
          11 -0.16117237276812943     
          12   2.5311807482416002E-002
          13 -0.13401929766010415     
          14  0.34650962972329857     
          15  -8.4788008759369322E-003
          16  -4.6316142058940572E-002
          17 -0.31610284294287488     
          18  -6.1749547640358109E-002
          19  -6.8372605952444598E-004
          20 -0.15476598178724574     
Sym=    18a
Ene=   0.19966134182116416     
Spin= Alpha
Occup=     0.00000000
           1 -0.43805290894098264     
           2  0.59146039429620900     
           3  0.32258770091319827     
           4  0.18578707980020437     
           5  -1.3037584789770125E-005
           6  -4.6169952629636114E-003
           7 -0.20375026886950601     
           8   2.7536363661222986E-003
           9  0.43806440210105485     
          10 -0.57634421034509631     
          11  0.34393428449436092     
          12 -0.19479811650165357     
          13   3.6590325117152460E-006
          14   1.1896882636405616E-003
          15   5.2756846017371808E-002
          16  -7.1225447115065132E-004
          17  -4.1677124568335696E-006
          18   2.2728741969248796E-002
          19   1.0027887281219070     
          20  -1.3552402223468478E-002
Sym=    19a
Ene=   0.42379102228976739     
Spin= Alpha
Occup=     0.00000000
           1 -0.44074300363345431     
           2  0.34826567414735582     
           3  0.39994826957132079     
           4  0.18091755656327826     
           5  0.47562231787739429     
           6  0.31522944408744191     
           7  -8.4255754383033114E-003
           8  -9.4582756137165866E-002
           9 -0.44073047085152256     
          10  0.32988481055301161     
          11 -0.41027712982530401     
          12  0.19186208927245504     
          13 -0.37451949129626244     
          14  0.46033219678076459     
          15  -1.1076562351916432E-002
          16  -4.7387581007492692E-002
          17  0.85151786674523922     
          18  0.76040046535344241     
          19  -1.3336068655015014E-002
          20  0.28810046263815425     
Sym=    20a
Ene=   0.82261777097470934     
Spin= Alpha
Occup=     0.00000000
           1 -0.42505175609696705     
           2  -2.2366544463304276E-002
           3  0.37574746340041704     
           4   7.4877614966567391E-002
           5 -0.34588391794901263     
           6  -1.2413742044644784     
           7   3.0118422451719171E-002
           8  0.14616454335247153     
           9 -0.42504939630588828     
          10  -3.9325930494055979E-002
          11 -0.37218716791976736     
          12   8.4984056406386635E-002
          13  0.79799095645121831     
          14 -0.80599189307045327     
          15   1.9804323455726400E-002
          16  0.11333662870001911     
          17  0.35702339217137519     
          18  0.33352684426084694     
          19  -5.7259657757969592E-003
          20  0.13572131309515267     
