      -----------------------------------------------------------      
     |                   =====================                   |     
     |                           x T B                           |     
     |                   =====================                   |     
     |                         S. Grimme                         |     
     |          Mulliken Center for Theoretical Chemistry        |     
     |                    University of Bonn                     |     
      -----------------------------------------------------------      

   * xtb version 6.2.2 (9d81278992624c895f80dd42a50cac0aa55982e2) compiled by '@Darwin' on 04/03/2020

   xtb is free software: you can redistribute it and/or modify it under
   the terms of the GNU Lesser General Public License as published by
   the Free Software Foundation, either version 3 of the License, or
   (at your option) any later version.
   
   xtb is distributed in the hope that it will be useful,
   but WITHOUT ANY WARRANTY; without even the implied warranty of
   MERCHANTABILITY or FITNESS FOR A PARTICULAR PURPOSE.  See the
   GNU Lesser General Public License for more details.
   
   Cite this work as:
   * S. Grimme, C. Bannwarth, P. Shushkov, J. Chem. Theory Comput., 2017,
     13, 1989-2009. DOI: 10.1021/acs.jctc.7b00118
   * C. Bannwarth, S. Ehlert and S. Grimme., J. Chem. Theory Comput., 2019,
     15, 1652-1671. DOI: 10.1021/acs.jctc.8b01176
   * P. Pracht, E. Caldeweyher, S. Ehlert, S. Grimme, ChemRxiv, 2019, preprint.
     DOI: 10.26434/chemrxiv.8326202.v1
   
   for DFT-D4:
   * E. Caldeweyher, C. Bannwarth and S. Grimme, J. Chem. Phys., 2017,
     147, 034112. DOI: 10.1063/1.4993215
   * E. Caldeweyher, S. Ehlert, A. Hansen, H. Neugebauer, S. Spicher,
     C. Bannwarth and S. Grimme, J. Chem. Phys., 2019, 150, 154122.
     DOI: 10.1063/1.5090222
   
   for sTDA-xTB:
   * S. Grimme and C. Bannwarth, J. Chem. Phys., 2016, 145, 054103.
     DOI: 10.1063/1.4959605
   
   in the mass-spec context:
   * V. Asgeirsson, C. Bauer and S. Grimme, Chem. Sci., 2017, 8, 4879.
     DOI: 10.1039/c7sc00601b
   
   for metadynamics refer to:
   * S. Grimme, J. Chem. Theory Comput., 2019, 155, 2847-2862
     DOI: 10.1021/acs.jctc.9b00143
   
   with help from (in alphabetical order)
   C. Bannwarth, F. Bohle, G. Brandenburg, E. Caldeweyher, M. Checinski,
   S. Dohm, S. Ehlert, S. Ehrlich, F. März, H. Neugebauer, J. Pisarek,
   P. Pracht, P. Shushkov, and S. Spicher.
   
 * started run on 2020/05/12 at 11:44:40.948     

           -------------------------------------------------
          |                Calculation Setup                |
           -------------------------------------------------

          program call               : xtb --input C1N1O1_0_S_3.input C1N1O1_0_S_3.xyz --ohess --molden --namespace C1N1O1_0_S_3 output.out
          calculation namespace      : C1N1O1_0_S_3
          coordinate file            : C1N1O1_0_S_3.xyz
          number of atoms            :                     3
          number of electrons        :                    15
          charge                     :                     0
          spin                       :                   1.5
          first test random number   :      0.20214719884897

   ID    Z sym.   atoms
    1    6 C      1
    2    8 O      2
    3    7 N      3

           -------------------------------------------------
          |                 G F N 2 - x T B                 |
           -------------------------------------------------

        Reference                      10.1021/acs.jctc.8b01176
      * Hamiltonian:
        H0-scaling (s, p, d)           1.850000    2.230000    2.230000
        zeta-weighting                 0.500000
      * Dispersion:
        s8                             2.700000
        a1                             0.520000
        a2                             5.000000
        s9                             5.000000
      * Repulsion:
        kExp                           1.500000    1.000000
        rExp                           1.000000
      * Coulomb:
        alpha                          2.000000
        third order                    shell-resolved
        anisotropic                    true
        a3                             3.000000
        a5                             4.000000
        cn-shift                       1.200000
        cn-exp                         4.000000
        max-rad                        5.000000


          ...................................................
          :                      SETUP                      :
          :.................................................:
          :  # basis functions                  12          :
          :  # atomic orbitals                  12          :
          :  # shells                            6          :
          :  # electrons                        15          :
          :  max. iterations                   250          :
          :  Hamiltonian                  GFN2-xTB          :
          :  restarted?                      false          :
          :  GBSA solvation                  false          :
          :  PC potential                    false          :
          :  electronic temp.          300.0000000     K    :
          :  accuracy                    1.0000000          :
          :  -> integral cutoff          0.2500000E+02      :
          :  -> integral neglect         0.1000000E-07      :
          :  -> SCF convergence          0.1000000E-05 Eh   :
          :  -> wf. convergence          0.1000000E-03 e    :
          :  Broyden damping             0.4000000          :
          ...................................................

 iter      E             dE          RMSdq      gap      omega  full diag
   1     -8.6890163 -0.868902E+01  0.945E+00    1.69       0.0  T
   2     -8.5237640  0.165252E+00  0.879E+00    2.31       1.0  T
   3     -8.7556576 -0.231894E+00  0.577E+00    1.95       1.0  T
   4     -8.7695803 -0.139227E-01  0.323E+00    1.82       1.0  T
   5     -8.8041009 -0.345206E-01  0.571E-01    1.99       1.0  T
   6     -8.8047697 -0.668888E-03  0.214E-01    2.04       1.0  T
   7     -8.8048500 -0.802203E-04  0.850E-02    2.03       1.0  T
   8     -8.8048745 -0.244962E-04  0.181E-02    2.03       3.2  T
   9     -8.8048755 -0.997110E-06  0.383E-03    2.03      15.1  T
  10     -8.8048755 -0.268999E-07  0.247E-03    2.03      23.4  T
  11     -8.8048755 -0.193397E-07  0.268E-04    2.03     215.2  T
  12     -8.8048755 -0.105175E-09  0.167E-04    2.03     344.9  T

   *** convergence criteria satisfied after 12 iterations ***

         #    Occupation            Energy/Eh            Energy/eV
      -------------------------------------------------------------
         1        2.0000           -0.7583488             -20.6357
       ...           ...                  ...                  ...
         3        2.0000           -0.6284425             -17.1008
         4        2.0000           -0.5809538             -15.8086
         5        2.0000           -0.5675150             -15.4429
         6        2.0000           -0.5451737             -14.8349
         7        1.0000           -0.5005805             -13.6215
         8        1.0000           -0.4763482             -12.9621
         9        1.0000           -0.4217771             -11.4771 (HOMO)
        10                         -0.3471999              -9.4478 (LUMO)
        11                          0.0222165               0.6045
        12                          0.0608626               1.6562
      -------------------------------------------------------------
                  HL-Gap            0.0745772 Eh            2.0293 eV
             Fermi-level           -0.4536828 Eh          -12.3453 eV

 SCC (total)                   0 d,  0 h,  0 min,  0.002 sec
 SCC setup                      ...        0 min,  0.000 sec (  3.750%)
 Dispersion                     ...        0 min,  0.000 sec (  0.410%)
 integral evaluation            ...        0 min,  0.001 sec ( 28.337%)
 zeroth order Hamiltonian       ...        0 min,  0.000 sec (  0.584%)
 iterations                     ...        0 min,  0.001 sec ( 39.426%)
 molecular gradient             ...        0 min,  0.000 sec ( 24.525%)
 printout                       ...        0 min,  0.000 sec (  2.508%)

         :::::::::::::::::::::::::::::::::::::::::::::::::::::
         ::                     SUMMARY                     ::
         :::::::::::::::::::::::::::::::::::::::::::::::::::::
         :: total energy              -8.785393357070 Eh    ::
         :: gradient norm              0.248237020000 Eh/a0 ::
         :: HOMO-LUMO gap              2.029349053457 eV    ::
         ::.................................................::
         :: SCC energy                -8.804875507245 Eh    ::
         :: -> isotropic ES            0.010187740810 Eh    ::
         :: -> anisotropic ES         -0.000780849873 Eh    ::
         :: -> anisotropic XC          0.008915054142 Eh    ::
         :: -> dispersion             -0.000749302850 Eh    ::
         :: repulsion energy           0.019482149357 Eh    ::
         :: add. restraining           0.000000000000 Eh    ::
         :::::::::::::::::::::::::::::::::::::::::::::::::::::

      ----------------------------------------------------------- 
     |                   =====================                   |
     |                        A N C O P T                        |
     |                   =====================                   |
     |               Approximate Normal Coordinate               |
     |                Rational Function Optimizer                |
      ----------------------------------------------------------- 

          ...................................................
          :                      SETUP                      :
          :.................................................:
          :   optimization level            normal          :
          :   max. optcycles                   200          :
          :   ANC micro-cycles                  20          :
          :   degrees of freedom                 3          :
          :.................................................:
          :   RF solver                   davidson          :
          :   write xtbopt.log                true          :
          :   linear?                        false          :
          :   energy convergence         0.5000000E-05 Eh   :
          :   grad. convergence          0.1000000E-02 Eh/α :
          :   maximium RF displ.         1.0000000          :
          :   Hlow (freq-cutoff)         0.1000000E-01      :
          :   Hmax (freq-cutoff)         5.0000000          :
          :   S6 in model hess.         20.0000000          :
          ...................................................

generating ANC from model Hessian ...
Using Lindh-Hessian (1995)
 Shifting diagonal of input Hessian by    0.0000000000000000     
 Lowest  eigenvalues of input Hessian
   -0.000000   -0.000000    0.000000    0.000000    0.000000    0.000000
    0.136233    0.917373    1.265155
 Highest eigenvalues
    0.000000    0.000000    0.000000    0.136233    0.917373    1.265155


........................................................................
.............................. CYCLE    1 ..............................
........................................................................
   1     -8.8048755 -0.880488E+01  0.394E-05    2.03       0.0  T
   2     -8.8048755  0.811085E-11  0.589E-05    2.03     979.7  T
   3     -8.8048755 -0.128129E-10  0.811E-06    2.03    7121.7  T
     SCC iter.                  ...        0 min,  0.000 sec
     gradient                   ...        0 min,  0.000 sec
 * total energy  :    -8.7853934 Eh     change       -0.7045919E-10 Eh
   gradient norm :     0.2482360 Eh/α   predicted     0.0000000E+00 (-100.00%)
   displ. norm   :     0.2434944 α      lambda       -0.5964561E-01
   maximum displ.:     0.2245248 α      in ANC's #2, #3, #1, ...

........................................................................
.............................. CYCLE    2 ..............................
........................................................................
   1     -8.8734928 -0.887349E+01  0.176E+00    2.35       0.0  T
   2     -8.8733156  0.177211E-03  0.124E+00    2.31       1.0  T
   3     -8.8745516 -0.123596E-02  0.824E-01    2.30       1.0  T
   4     -8.8754393 -0.887667E-03  0.862E-02    2.27       1.0  T
   5     -8.8754396 -0.338571E-06  0.219E-02    2.27       2.6  T
   6     -8.8754394  0.186841E-06  0.156E-02    2.27       3.7  T
   7     -8.8754401 -0.688648E-06  0.608E-03    2.27       9.5  T
   8     -8.8754401 -0.674369E-08  0.164E-03    2.27      35.1  T
   9     -8.8754401 -0.563860E-08  0.146E-04    2.27     394.7  T
  10     -8.8754401 -0.137064E-10  0.412E-05    2.27    1401.8  T
     SCC iter.                  ...        0 min,  0.001 sec
     gradient                   ...        0 min,  0.000 sec
 * total energy  :    -8.8280507 Eh     change       -0.4265730E-01 Eh
   gradient norm :     0.0866181 Eh/α   predicted    -0.3159098E-01 ( -25.94%)
   displ. norm   :     0.1224327 α      lambda       -0.1050926E-01
   maximum displ.:     0.1070296 α      in ANC's #2, #3, #1, ...

........................................................................
.............................. CYCLE    3 ..............................
........................................................................
   1     -8.9029207 -0.890292E+01  0.933E-01    2.45       0.0  T
   2     -8.9030950 -0.174312E-03  0.613E-01    2.43       1.0  T
   3     -8.9032579 -0.162926E-03  0.379E-01    2.43       1.0  T
   4     -8.9034143 -0.156372E-03  0.416E-02    2.42       1.4  T
   5     -8.9034145 -0.148817E-06  0.183E-02    2.41       3.2  T
   6     -8.9034146 -0.174960E-06  0.526E-03    2.41      11.0  T
   7     -8.9034146 -0.591974E-08  0.189E-03    2.41      30.6  T
   8     -8.9034147 -0.782006E-08  0.635E-04    2.41      90.9  T
   9     -8.9034147 -0.160931E-09  0.412E-05    2.41    1400.1  T
     SCC iter.                  ...        0 min,  0.000 sec
     gradient                   ...        0 min,  0.000 sec
 * total energy  :    -8.8298590 Eh     change       -0.1808348E-02 Eh
   gradient norm :     0.0681812 Eh/α   predicted    -0.5333399E-02 ( 194.93%)
   displ. norm   :     0.0660932 α      lambda       -0.3822091E-02
   maximum displ.:     0.0436697 α      in ANC's #2, #1, #3, ...

........................................................................
.............................. CYCLE    4 ..............................
........................................................................
   1     -8.8915796 -0.889158E+01  0.366E-01    2.26       0.0  T
   2     -8.8916076 -0.280679E-04  0.280E-01    2.27       1.0  T
   3     -8.8917120 -0.104367E-03  0.146E-01    2.27       1.0  T
   4     -8.8917247 -0.126616E-04  0.310E-02    2.27       1.9  T
   5     -8.8917264 -0.174358E-05  0.130E-02    2.27       4.4  T
   6     -8.8917265 -0.338707E-07  0.253E-03    2.27      22.8  T
   7     -8.8917265  0.288400E-09  0.114E-03    2.27      50.7  T
   8     -8.8917265 -0.112511E-08  0.269E-04    2.27     214.4  T
   9     -8.8917265 -0.212772E-10  0.218E-05    2.27    2642.7  T
     SCC iter.                  ...        0 min,  0.000 sec
     gradient                   ...        0 min,  0.000 sec
 * total energy  :    -8.8314593 Eh     change       -0.1600254E-02 Eh
   gradient norm :     0.0097919 Eh/α   predicted    -0.1919392E-02 (  19.94%)
   displ. norm   :     0.0094427 α      lambda       -0.6712120E-04
   maximum displ.:     0.0076559 α      in ANC's #1, #3, #2, ...

........................................................................
.............................. CYCLE    5 ..............................
........................................................................
   1     -8.8929093 -0.889291E+01  0.562E-02    2.29       0.0  T
   2     -8.8929101 -0.830022E-06  0.397E-02    2.29       1.5  T
   3     -8.8929107 -0.551455E-06  0.218E-02    2.29       2.6  T
   4     -8.8929112 -0.568443E-06  0.604E-03    2.29       9.6  T
   5     -8.8929113 -0.701609E-07  0.190E-03    2.29      30.4  T
   6     -8.8929113 -0.753154E-09  0.481E-04    2.29     120.0  T
   7     -8.8929113 -0.554294E-10  0.939E-05    2.29     614.6  T
     SCC iter.                  ...        0 min,  0.000 sec
     gradient                   ...        0 min,  0.000 sec
 * total energy  :    -8.8314969 Eh     change       -0.3763010E-04 Eh
   gradient norm :     0.0015495 Eh/α   predicted    -0.3356490E-04 ( -10.80%)
   displ. norm   :     0.0022896 α      lambda       -0.2037933E-05
   maximum displ.:     0.0019542 α      in ANC's #3, #1, #2, ...

........................................................................
.............................. CYCLE    6 ..............................
........................................................................
   1     -8.8930836 -0.889308E+01  0.178E-02    2.29       0.0  T
   2     -8.8930836 -0.130530E-07  0.111E-02    2.29       5.2  T
   3     -8.8930835  0.103402E-06  0.623E-03    2.29       9.3  T
   4     -8.8930836 -0.127493E-06  0.779E-04    2.29      74.1  T
   5     -8.8930836 -0.345690E-09  0.433E-04    2.29     133.3  T
     SCC iter.                  ...        0 min,  0.000 sec
     gradient                   ...        0 min,  0.001 sec
 * total energy  :    -8.8314979 Eh     change       -0.9578519E-06 Eh
   gradient norm :     0.0007197 Eh/α   predicted    -0.1018735E-05 (   6.36%)
   displ. norm   :     0.0005778 α      lambda       -0.2664921E-06
   maximum displ.:     0.0004574 α      in ANC's #3, #2, #1, ...

   *** GEOMETRY OPTIMIZATION CONVERGED AFTER 6 ITERATIONS ***

------------------------------------------------------------------------
 total energy gain   :        -0.0461045 Eh      -28.9310 kcal/mol
 total RMSD          :         0.1834475 a0        0.0971 Å
 total power (kW/mol):       -20.1745550 (step)********** (real)
------------------------------------------------------------------------

 ANCopt (total)                0 d,  0 h,  0 min,  0.010 sec
 optimizer setup                ...        0 min,  0.000 sec (  0.920%)
 model hessian                  ...        0 min,  0.000 sec (  0.688%)
 ANC generation                 ...        0 min,  0.000 sec (  0.409%)
 coordinate transformation      ...        0 min,  0.000 sec (  0.117%)
 single point calculation       ...        0 min,  0.009 sec ( 92.447%)
 optimization log               ...        0 min,  0.000 sec (  1.335%)
 hessian update                 ...        0 min,  0.000 sec (  0.145%)
 rational function              ...        0 min,  0.000 sec (  1.277%)

================
 final structure:
================
3
 xtb: 6.2.2 (9d81278992624c895f80dd42a50cac0aa55982e2)
C        -0.04450794533794    0.43814653174490   -0.00000000000000
O        -1.06941284387871   -0.21501689117226    0.00000000000000
N         1.11392078921665   -0.22313064057264    0.00000000000000

 Bond Distances (Angstroems)
 ---------------------------
C1-O2=1.2153         C1-N3=1.3339         O2-C1=1.2153         N3-C1=1.3339         
 N  C  Rav=1.3339 sigma=0.0000  Rmin=1.3339  Rmax=1.3339     1
 O  C  Rav=1.2153 sigma=0.0000  Rmin=1.2153  Rmax=1.2153     1

 selected bond angles (degree)
 --------------------
N3-C1-O2=117.77                

 selected dihedral angles (degree)
 ---------------------------------

           -------------------------------------------------
          |                Final Singlepoint                |
           -------------------------------------------------

          ...................................................
          :                      SETUP                      :
          :.................................................:
          :  # basis functions                  12          :
          :  # atomic orbitals                  12          :
          :  # shells                            6          :
          :  # electrons                        15          :
          :  max. iterations                   250          :
          :  Hamiltonian                  GFN2-xTB          :
          :  restarted?                      false          :
          :  GBSA solvation                  false          :
          :  PC potential                    false          :
          :  electronic temp.          300.0000000     K    :
          :  accuracy                    1.0000000          :
          :  -> integral cutoff          0.2500000E+02      :
          :  -> integral neglect         0.1000000E-07      :
          :  -> SCF convergence          0.1000000E-05 Eh   :
          :  -> wf. convergence          0.1000000E-03 e    :
          :  Broyden damping             0.4000000          :
          ...................................................

 iter      E             dE          RMSdq      gap      omega  full diag
   1     -8.8930836 -0.889308E+01  0.786E-05    2.29       0.0  T
   2     -8.8930836 -0.564881E-12  0.453E-05    2.29    1273.6  T
   3     -8.8930836 -0.213163E-13  0.146E-05    2.29    3955.7  T

   *** convergence criteria satisfied after 3 iterations ***

         #    Occupation            Energy/Eh            Energy/eV
      -------------------------------------------------------------
         1        2.0000           -0.7842262             -21.3399
       ...           ...                  ...                  ...
         3        2.0000           -0.6375344             -17.3482
         4        2.0000           -0.6114470             -16.6383
         5        2.0000           -0.5878722             -15.9968
         6        2.0000           -0.5305813             -14.4379
         7        1.0000           -0.4957988             -13.4914
         8        1.0000           -0.4676626             -12.7257
         9        1.0000           -0.3605446              -9.8109 (HOMO)
        10                         -0.2762595              -7.5174 (LUMO)
        11                          0.2565928               6.9822
        12                          0.4886897              13.2979
      -------------------------------------------------------------
                  HL-Gap            0.0842851 Eh            2.2935 eV
             Fermi-level           -0.4157960 Eh          -11.3144 eV

 SCC (total)                   0 d,  0 h,  0 min,  0.002 sec
 SCC setup                      ...        0 min,  0.000 sec (  5.891%)
 Dispersion                     ...        0 min,  0.000 sec (  0.402%)
 integral evaluation            ...        0 min,  0.001 sec ( 48.129%)
 zeroth order Hamiltonian       ...        0 min,  0.000 sec (  0.510%)
 iterations                     ...        0 min,  0.000 sec ( 12.121%)
 molecular gradient             ...        0 min,  0.000 sec ( 29.515%)
 printout                       ...        0 min,  0.000 sec (  2.659%)

         :::::::::::::::::::::::::::::::::::::::::::::::::::::
         ::                     SUMMARY                     ::
         :::::::::::::::::::::::::::::::::::::::::::::::::::::
         :: total energy              -8.831497850047 Eh    ::
         :: gradient norm              0.000716106892 Eh/a0 ::
         :: HOMO-LUMO gap              2.293513712594 eV    ::
         ::.................................................::
         :: SCC energy                -8.893083629101 Eh    ::
         :: -> isotropic ES            0.009042168210 Eh    ::
         :: -> anisotropic ES          0.000023957912 Eh    ::
         :: -> anisotropic XC          0.008838346525 Eh    ::
         :: -> dispersion             -0.000751399332 Eh    ::
         :: repulsion energy           0.061585779085 Eh    ::
         :: add. restraining           0.000000000000 Eh    ::
         :::::::::::::::::::::::::::::::::::::::::::::::::::::

           ------------------------------------------------- 
          |                Numerical Hessian                |
           ------------------------------------------------- 
step length          :   0.00500
SCC accuracy         :   0.30000
Hessian scale factor :   1.00000
frozen atoms in %    :   0.00000    0
RMS gradient         :   0.00072
estimated CPU  time      0.00 min
estimated wall time      0.00 min

writing file <hessian>.

 projected vibrational frequencies (cm-1)
eigval :       -0.00    -0.00    -0.00    -0.00     0.00     0.00
eigval :      519.61  1271.62  1626.61
Molecule has the following symmetry elements: (sigma) 
It seems to be the Cs point group
           -------------------------------------------------
          |                Property Printout                |
           -------------------------------------------------

    * Orbital Energies and Occupations

         #    Occupation            Energy/Eh            Energy/eV
      -------------------------------------------------------------
         1        2.0000           -0.7842262             -21.3399
         2        2.0000           -0.7053009             -19.1922
         3        2.0000           -0.6375344             -17.3482
         4        2.0000           -0.6114470             -16.6383
         5        2.0000           -0.5878722             -15.9968
         6        2.0000           -0.5305813             -14.4379
         7        1.0000           -0.4957988             -13.4914
         8        1.0000           -0.4676626             -12.7257
         9        1.0000           -0.3605446              -9.8109 (HOMO)
        10                         -0.2762596              -7.5174 (LUMO)
        11                          0.2565928               6.9822
        12                          0.4886897              13.2979
      -------------------------------------------------------------
                  HL-Gap            0.0842851 Eh            2.2935 eV
             Fermi-level           -0.4157961 Eh          -11.3144 eV

     #   Z        covCN         q      C6AA      α(0)
     1   6 C      1.766     0.192    26.666     8.349
     2   8 O      0.864    -0.139    17.099     5.544
     3   7 N      0.919    -0.053    22.237     6.816

 Mol. C6AA /au·bohr⁶  :        195.269556
 Mol. C8AA /au·bohr⁸  :       4664.130392
 Mol. α(0) /au        :         20.709337


Wiberg/Mayer (AO) data.
largest (>0.10) Wiberg bond orders for each atom
          total WBO             WBO to atom ...
     1  C   3.000        O    2 1.740    N    3 1.260
     2  O   1.833        C    1 1.740
     3  N   1.354        C    1 1.260

MOs/occ written to file <molden.input>


molecular dipole:
                 x           y           z       tot (Debye)
 q only:        0.152       0.238      -0.000
   full:        0.018       0.254      -0.000       0.647
molecular quadrupole (traceless):
                xx          xy          yy          xz          yz          zz
 q only:       -0.852      -0.120       0.500       0.000       0.000       0.351
  q+dip:       -1.539       0.027       0.590       0.000       0.000       0.949
   full:       -2.209       0.129       0.123       0.000       0.000       2.086

           -------------------------------------------------
          |                Geometry Summary                 |
           -------------------------------------------------

      molecular mass/u    :       42.0168440
   center of mass at/Å    :       -0.0486041      -0.0310112       0.0000002
  moments of inertia/u·Å² :        0.3702053E+01   0.3560226E+02   0.3930431E+02
rotational constants/cm⁻¹ :        0.4553591E+01   0.4734989E+00   0.4289003E+00

           -------------------------------------------------
          |               Frequency Printout                |
           -------------------------------------------------
 projected vibrational frequencies (cm-1)
eigval :       -0.00    -0.00    -0.00    -0.00     0.00     0.00
eigval :      519.61  1271.62  1626.61
 reduced masses (amu)
   1: 15.23   2: 14.29   3: 14.49   4: 12.01   5: 15.13   6: 14.01   7: 14.16   8: 12.86
   9: 13.88
 IR intensities (amu)
   1:  0.09   2:  0.07   3:  0.03   4:  0.21   5:  0.08   6:  0.09   7:  0.34   8:  0.25
   9:  0.63
 Raman intensities (amu)
   1:  0.00   2:  0.00   3:  0.00   4:  0.00   5:  0.00   6:  0.00   7:  0.00   8:  0.00
   9:  0.00
 output can be read by thermo (or use thermo option).
 writing <g98.out> molden fake output.
 recommended (thermochemical) frequency scaling factor: 1.0
           -------------------------------------------------
          |             Thermodynamic Functions             |
           -------------------------------------------------

cs  symmetry found (for desy threshold:  0.10E+00) used in thermo

          ...................................................
          :                      SETUP                      :
          :.................................................:
          :  # frequencies                           3      :
          :  # imaginary freq.                       0      :
          :  linear?                             false      :
          :  only rotor calc.                    false      :
          :  symmetry                               cs      :
          :  rotational number                       1      :
          :  scaling factor                  1.0000000      :
          :  rotor cutoff                   50.0000000 cm⁻¹ :
          :  imag. cutoff                  -20.0000000 cm⁻¹ :
          :.................................................:

    mode    ω/cm⁻¹     T·S(HO)/kcal·mol⁻¹    T·S(FR)/kcal·mol⁻¹   T·S(vib)
   ------------------------------------------------------------------------
   ------------------------------------------------------------------------

   temp. (K)  partition function   enthalpy   heat capacity  entropy
                                   cal/mol     cal/K/mol   cal/K/mol   J/K/mol
 298.15  VIB   1.09                  141.476      1.417      0.649
         ROT  0.550E+04              888.752      2.981     20.096
         INT  0.600E+04             1030.229      4.398     20.744
         TR   0.264E+27             1481.254      4.968     37.117
         TOT                        2511.4824     9.3660    57.8606   242.0887

   temp. (K)  partition function   enthalpy   heat capacity  entropy
                                   cal/mol     cal/K/mol   cal/K/mol   J/K/mol
 120.00  VIB   1.00                    2.933      0.153      0.028
         ROT  0.140E+04              357.707      2.981     17.383
         INT  0.141E+04              360.639      3.134     17.411
         TR   0.673E+26              596.178      4.968     32.597
         TOT                         956.8174     8.1017    50.0082   209.2342

   temp. (K)  partition function   enthalpy   heat capacity  entropy
                                   cal/mol     cal/K/mol   cal/K/mol   J/K/mol
 100.00  VIB   1.00                    0.842      0.063      0.010
         ROT  0.107E+04              298.089      2.981     16.839
         INT  0.107E+04              298.931      3.044     16.849
         TR   0.512E+26              496.815      4.968     31.692
         TOT                         795.7462     8.0120    48.5405   203.0935

   temp. (K)  partition function   enthalpy   heat capacity  entropy
                                   cal/mol     cal/K/mol   cal/K/mol   J/K/mol
  80.00  VIB   1.00                    0.130      0.015      0.002
         ROT   764.                  238.471      2.981     16.174
         INT   764.                  238.601      2.996     16.176
         TR   0.366E+26              397.452      4.968     30.584
         TOT                         636.0531     7.9642    46.7595   195.6418

   temp. (K)  partition function   enthalpy   heat capacity  entropy
                                   cal/mol     cal/K/mol   cal/K/mol   J/K/mol
  60.00  VIB   1.00                    0.006      0.001      0.000
         ROT   496.                  178.853      2.981     15.316
         INT   496.                  178.859      2.982     15.316
         TR   0.238E+26              298.089      4.968     29.155
         TOT                         476.9482     7.9502    44.4717   186.0695

   temp. (K)  partition function   enthalpy   heat capacity  entropy
                                   cal/mol     cal/K/mol   cal/K/mol   J/K/mol
  40.00  VIB   1.00                    0.000      0.000     -0.000
         ROT   270.                  119.236      2.981     14.108
         INT   270.                  119.236      2.981     14.108
         TR   0.129E+26              198.726      4.968     27.142
         TOT                         317.9616     7.9490    41.2495   172.5878

   temp. (K)  partition function   enthalpy   heat capacity  entropy
                                   cal/mol     cal/K/mol   cal/K/mol   J/K/mol
  20.00  VIB   1.00                    0.000      0.000     -0.000
         ROT   95.5                   59.618      2.981     12.042
         INT   95.5                   59.618      2.981     12.041
         TR   0.458E+25               99.363      4.968     23.700
         TOT                         158.9808     7.9490    35.7412   149.5414

   temp. (K)  partition function   enthalpy   heat capacity  entropy
                                   cal/mol     cal/K/mol   cal/K/mol   J/K/mol
  10.00  VIB   1.00                    0.000      0.000     -0.000
         ROT   33.8                   29.809      2.981      9.975
         INT   33.8                   29.809      2.981      9.975
         TR   0.162E+25               49.681      4.968     20.258
         TOT                          79.4904     7.9490    30.2330   126.4949

       T/K    H(0)-H(T)+PV         H(T)/Eh          T*S/Eh         G(T)/Eh
   ------------------------------------------------------------------------
    298.15    0.400230E-02    0.117887E-01    0.274914E-01   -0.157027E-01
    120.00    0.152479E-02    0.931119E-02    0.956317E-02   -0.251981E-03
    100.00    0.126810E-02    0.905451E-02    0.773542E-02    0.131908E-02
     80.00    0.101362E-02    0.880002E-02    0.596128E-02    0.283874E-02
     60.00    0.760065E-03    0.854647E-02    0.425221E-02    0.429426E-02
     40.00    0.506704E-03    0.829311E-02    0.262941E-02    0.566370E-02
     20.00    0.253352E-03    0.803976E-02    0.113915E-02    0.690061E-02
     10.00    0.126676E-03    0.791308E-02    0.481794E-03    0.743129E-02 (used)
   ------------------------------------------------------------------------

         :::::::::::::::::::::::::::::::::::::::::::::::::::::
         ::                  THERMODYNAMIC                  ::
         :::::::::::::::::::::::::::::::::::::::::::::::::::::
         :: total free energy          -8.824066562453 Eh   ::
         ::.................................................::
         :: total energy               -8.831497850056 Eh   ::
         :: zero point energy           0.007786405227 Eh   ::
         :: G(RRHO) w/o ZPVE           -0.000355117625 Eh   ::
         :: G(RRHO) contrib.            0.007431287603 Eh   ::
         :::::::::::::::::::::::::::::::::::::::::::::::::::::

optimized geometry written to: xtbopt.xyz


           -------------------------------------------------
          | TOTAL ENERGY               -8.831497850056 Eh   |
          | TOTAL ENTHALPY             -8.823584768813 Eh   |
          | TOTAL FREE ENERGY          -8.824066562453 Eh   |
          | GRADIENT NORM               0.000716001141 Eh/α |
          | HOMO-LUMO GAP               2.293513268573 eV   |
           -------------------------------------------------

------------------------------------------------------------------------
 * finished run on 2020/05/12 at 11:44:41.003     
------------------------------------------------------------------------
 total:
 * wall-time:     0 d,  0 h,  0 min,  0.055 sec
 *  cpu-time:     0 d,  0 h,  0 min,  0.054 sec
 * ratio c/w:     0.983 speedup
 SCF:
 * wall-time:     0 d,  0 h,  0 min,  0.002 sec
 *  cpu-time:     0 d,  0 h,  0 min,  0.002 sec
 * ratio c/w:     1.000 speedup
 ANC optimizer:
 * wall-time:     0 d,  0 h,  0 min,  0.013 sec
 *  cpu-time:     0 d,  0 h,  0 min,  0.012 sec
 * ratio c/w:     0.952 speedup
 numerical hessian:
 * wall-time:     0 d,  0 h,  0 min,  0.025 sec
 *  cpu-time:     0 d,  0 h,  0 min,  0.025 sec
 * ratio c/w:     0.998 speedup

