[Molden Format]
[Title]
[Atoms] AU
C      1     6 -0.84103483981628E-01  0.82797731100781E+00 -0.11515005777470E-05
O      2     8 -0.20208993290491E+01 -0.40631241738623E+00  0.77634294179631E-05
N      3     7  0.21050028130208E+01 -0.42166678334753E+00 -0.66119255419930E-05
[GTO]
           1 0
 s           4   1.0000000000000000     
   51.049363095579913      -0.16312063210127389     
   8.7911227406887544      -0.19911024581000730     
  0.70640422258929825       0.31882047753655751     
  0.26922813413411617       0.12706504184240380     
 p           4   1.0000000000000000     
   5.8263656140800002       0.73716451545209605     
   1.5106896018720002       0.68216371614850257     
  0.53256483288000001       0.35783053929253711     
  0.21202323690600003        5.3983030275847881E-002

           2 0
 s           4   1.0000000000000000     
   69.137961906196551      -0.20478756370077797     
   11.906129132707308      -0.24997023136827334     
  0.95670827744340703       0.40025880240639616     
  0.36462520496073686       0.15952206667693555     
 p           4   1.0000000000000000     
   8.2124193257781641        1.1321556799186829     
   2.1293576997098116        1.0476840782254817     
  0.75066448202360914       0.54956508217158984     
  0.29885246543283073        8.2908486592766617E-002

           3 0
 s           4   1.0000000000000000     
   63.594024466941008      -0.19234388414721629     
   10.951417231523665      -0.23478107924953728     
  0.87999310257376984       0.37593753901700888     
  0.33538715296521110       0.14982889271862770     
 p           4   1.0000000000000000     
   7.2965040481495080       0.97658666315667420     
   1.8918745450712575       0.90372226730345739     
  0.66694432110824120       0.47404958461536373     
  0.26552202674130870        7.1516067715011844E-002

[MO]
Sym=     1a
Ene=  -0.78422615253158778     
Spin= Alpha
Occup=     2.00000000
           1 -0.32948851852105759     
           2  0.16443844995708851     
           3  0.13428495747608959     
           4  -8.1031053020489862E-007
           5 -0.65945590249463981     
           6 -0.19641110919043386     
           7 -0.11563483044643885     
           8   9.0927551648223411E-007
           9  -7.2283766642614863E-002
          10   8.1513681932075158E-002
          11  -6.5508647898787371E-003
          12  -2.7524118905676661E-007
Sym=     2a
Ene=  -0.70530087613982295     
Spin= Alpha
Occup=     2.00000000
           1  0.31052682427416228     
           2  0.29021296538427882     
           3 -0.10780468744126305     
           4  -8.1561139806629232E-007
           5 -0.37140399855200928     
           6  0.24217006525242704     
           7  -2.7817138279216742E-002
           8  -7.6867289049066275E-007
           9  0.50924489447373011     
          10 -0.19588286215413903     
          11  0.10552360847397298     
          12   5.0961016354842459E-007
Sym=     3a
Ene=  -0.63753441716718828     
Spin= Alpha
Occup=     2.00000000
           1 -0.27660541033385971     
           2  0.22964384479211403     
           3 -0.17352177744142538     
           4  -5.7436161240968012E-007
           5  0.48139598117568888     
           6 -0.34251070700352099     
           7 -0.54973107262974041     
           8   2.0193301281882072E-006
           9  0.31449815174464379     
          10   5.5165548896739854E-003
          11  -1.9239898897614956E-002
          12  -1.4596836541191292E-008
Sym=     4a
Ene=  -0.61144699567825900     
Spin= Alpha
Occup=     2.00000000
           1   6.8304447320975890E-008
           2  -1.7059142675592927E-006
           3  -7.8779083897481847E-007
           4 -0.48610810104881502     
           5  -8.5578668189097328E-008
           6  -2.4003948573022275E-006
           7  -1.1023205661577193E-006
           8 -0.69685084074949566     
           9  -3.2298243112578981E-008
          10  -9.6671405069040907E-007
          11  -4.4730021008451944E-007
          12 -0.27783059492509132     
Sym=     5a
Ene=  -0.58787219041261451     
Spin= Alpha
Occup=     2.00000000
           1 -0.17629587441072841     
           2  -8.3757675680910859E-002
           3 -0.36278750414138505     
           4   8.9034805492588908E-007
           5 -0.17990037255631830     
           6  0.54667218741332047     
           7 -0.41694364414184970     
           8  -1.2215492722091073E-006
           9 -0.34210033261495287     
          10 -0.19804009763230859     
          11 -0.24713603573720133     
          12   1.0982941890752736E-006
Sym=     6a
Ene=  -0.53058131686144361     
Spin= Alpha
Occup=     1.99999999
           1  0.26310388133818202     
           2  0.24938636582255086     
           3  0.17077475502887871     
           4  -1.1591799680094665E-006
           5  0.10299121080799671     
           6 -0.10891474351683589     
           7 -0.26021028831526882     
           8   8.8318733765628641E-007
           9 -0.59351834355149335     
          10 -0.36723212795122151     
          11  0.48437918781611239     
          12   3.8373908511948827E-007
Sym=     7a
Ene=  -0.49579875495007053     
Spin= Alpha
Occup=     1.00000001
           1   2.0181099093146634E-008
           2   5.4442726348803395E-007
           3   2.7633251701049411E-007
           4  0.14959632598788100     
           5  -1.6574493742956380E-008
           6  -1.8521233611137152E-006
           7  -8.9383220026722030E-007
           8 -0.52138639433617973     
           9  -5.5265568424278401E-008
          10   2.8442264742886980E-006
          11   1.4444180311096014E-006
          12  0.84055350741250945     
Sym=     8a
Ene=  -0.46766257682496654     
Spin= Alpha
Occup=     1.00000000
           1  -2.6899421502068678E-002
           2   8.9700068222192036E-002
           3 -0.11420109092082700     
           4  -1.3473297959854394E-007
           5  -3.1396108355496895E-002
           6 -0.43042226959153795     
           7  0.33138017022458083     
           8   9.6976719469112851E-007
           9  -7.6376565259060919E-002
          10 -0.67909354468775218     
          11 -0.50956277260197358     
          12   3.1824087221910380E-006
Sym=     9a
Ene=  -0.36054461670507054     
Spin= Alpha
Occup=     1.00000000
           1  0.47322923834437025     
           2  -1.9893127608845231E-002
           3  0.67589009235010034     
           4  -1.1078060186920166E-006
           5   1.6029621340667509E-002
           6   6.6982437614581405E-002
           7 -0.47452622349156143     
           8   5.9947329055437621E-007
           9   4.2786472800127262E-002
          10   2.4522340236011863E-002
          11 -0.57934622769555444     
          12   9.1269789771997076E-007
Sym=    10a
Ene=  -0.27625955497967347     
Spin= Alpha
Occup=     0.00000000
           1  -2.1759013613378962E-009
           2   3.1742900361472390E-006
           3   1.5810700176757313E-006
           4  0.90914466744390621     
           5  -1.2481579058425818E-008
           6  -1.8847468296106596E-006
           7  -9.3614878669735457E-007
           8 -0.54001711073569825     
           9   3.8554586710627103E-009
          10  -1.7511820553615070E-006
          11  -8.7820511362126260E-007
          12 -0.50164175081729812     
Sym=    11a
Ene=   0.25659278539451241     
Spin= Alpha
Occup=     0.00000000
           1  0.69872226614272581     
           2  0.75826438000013041     
           3 -0.57651488490625991     
           4  -1.6409553507705364E-006
           5  -2.0773915959442533E-002
           6 -0.21495643243423587     
           7  0.14823705955614033     
           8   4.9269042031635922E-007
           9 -0.66439217573535236     
          10  0.76149899605365357     
          11 -0.41927454503539507     
          12  -1.9236396538888029E-006
Sym=    12a
Ene=   0.48868966671922937     
Spin= Alpha
Occup=     0.00000000
           1  0.70468606387575639     
           2 -0.94096295796459151     
           3 -0.52831523565823557     
           4   4.2030300309837120E-006
           5 -0.77464519991992942     
           6 -0.74154128578844103     
           7 -0.49696906864634738     
           8   3.4503722430096230E-006
           9  0.10005712222741563     
          10   3.9920491529456488E-002
          11  0.19343270056949741     
          12  -4.7529249419367722E-007
