3
 energy: -8.785393357140 gnorm: 0.248236010854 xtb: 6.2.2 (9d81278992624c895f80dd42a50cac0aa55982e2)
C        -0.02558100000000    0.54713600000000    0.00000000000000
O        -1.14874100000000   -0.27828200000000    0.00000000000000
N         1.17432200000000   -0.26885500000000    0.00000000000000
3
 energy: -8.828050659738 gnorm: 0.086620261745 xtb: 6.2.2 (9d81278992624c895f80dd42a50cac0aa55982e2)
C        -0.03563380222158    0.47218884131864   -0.00000000000000
O        -1.08056936862520   -0.23576271806498    0.00000000000000
N         1.11620317084678   -0.23642712325365    0.00000000000000
3
 energy: -8.829859007934 gnorm: 0.068186717779 xtb: 6.2.2 (9d81278992624c895f80dd42a50cac0aa55982e2)
C        -0.04711271396069    0.43190146961900   -0.00000000000000
O        -1.04727454324148   -0.21078642721437    0.00000000000000
N         1.09438725720217   -0.22111604240463    0.00000000000000
3
 energy: -8.831459262226 gnorm: 0.009798550108 xtb: 6.2.2 (9d81278992624c895f80dd42a50cac0aa55982e2)
C        -0.04204511174918    0.43796438946994   -0.00000000000000
O        -1.07349062919280   -0.21580444547575    0.00000000000000
N         1.11553574094197   -0.22216094399419    0.00000000000000
3
 energy: -8.831496892322 gnorm: 0.001551128663 xtb: 6.2.2 (9d81278992624c895f80dd42a50cac0aa55982e2)
C        -0.04376763462742    0.43865324700409   -0.00000000000000
O        -1.06954207984650   -0.21553918193411    0.00000000000000
N         1.11330971447393   -0.22311506506998    0.00000000000000
3
 energy: -8.831497850174 gnorm: 0.000719987320 xtb: 6.2.2 (9d81278992624c895f80dd42a50cac0aa55982e2)
C        -0.04450794533794    0.43814653174490   -0.00000000000000
O        -1.06941284387871   -0.21501689117226    0.00000000000000
N         1.11392078921665   -0.22313064057264    0.00000000000000
