$hessian                                                                        
        0.5941327687   0.1144586687  -0.0000022737  -0.4168224213  -0.2391274975
        0.0000018723  -0.1773103474   0.1246688288   0.0000004013
        0.1144586687   0.4854075580  -0.0000012467  -0.3506550617  -0.2909078339
        0.0000017317   0.2361963930  -0.1944997241  -0.0000004850
       -0.0000022737  -0.0000012467   0.0000000000   0.0000020670   0.0000013424
       -0.0000000000   0.0000002067  -0.0000000957  -0.0000000000
       -0.4168224213  -0.3506550617   0.0000020670   0.5633540586   0.3101990528
       -0.0000025079  -0.1465316372   0.0404560089   0.0000004409
       -0.2391274975  -0.2909078339   0.0000013424   0.3101990528   0.2256208447
       -0.0000014766  -0.0710715553   0.0652869893   0.0000001341
        0.0000018723   0.0000017317  -0.0000000000  -0.0000025079  -0.0000014766
        0.0000000000   0.0000006355  -0.0000002552  -0.0000000000
       -0.1773103474   0.2361963930   0.0000002067  -0.1465316372  -0.0710715553
        0.0000006355   0.3238419846  -0.1651248377  -0.0000008422
        0.1246688288  -0.1944997241  -0.0000000957   0.0404560089   0.0652869893
       -0.0000002552  -0.1651248377   0.1292127349   0.0000003509
        0.0000004013  -0.0000004850  -0.0000000000   0.0000004409   0.0000001341
       -0.0000000000  -0.0000008422   0.0000003509   0.0000000000
