4
 energy: -8.145912510464 gnorm: 0.000882539441 xtb: 6.2.2 (9d81278992624c895f80dd42a50cac0aa55982e2)
C        -1.17269732247839   -0.02990413805762    0.02000123512632
C        -0.01139986112353    0.78277322000767   -0.09961049626892
C         1.15598830223938    0.02675153367671    0.19871863057807
C         0.02810888135906   -0.77962061562851   -0.11911036943547
