 Entering Gaussian System
 *********************************************
 Gaussian 98:
 frequency output generated by the xtb code
 *********************************************
                         Standard orientation:
 --------------------------------------------------------------------
  Center     Atomic     Atomic              Coordinates (Angstroms)
  Number     Number      Type              X           Y           Z
 --------------------------------------------------------------------
    1          6             0       -0.553500    0.209139   -0.212162
    2          6             0        0.553503   -0.209142    0.463278
    3          1             0       -1.552234   -0.102240    0.066660
    4          1             0        1.552233    0.102243    0.184453
 --------------------------------------------------------------------
     1 basis functions        1 primitive gaussians
     1 alpha electrons        1 beta electrons

 Harmonic frequencies (cm**-1), IR intensities (KM/Mole),
 Raman scattering activities (A**4/amu), Raman depolarization ratios,
 reduced masses (AMU), force constants (mDyne/A) and normal coordinates:
                      1                      2                      3
                        a                      a                      a 
 Frequencies --   611.6739               796.1712              1049.4474
 Red. masses --     1.8598                 1.8598                 3.8531
 Frc consts  --     0.0000                 0.0000                 0.0000
 IR Inten    --     0.0232                 0.4597                 0.0000
 Raman Activ --     0.0000                 0.0000                 0.0000
 Depolar     --     0.0000                 0.0000                 0.0000
 Atom AN      X      Y      Z        X      Y      Z        X      Y      Z
   1   6    -0.01   0.16   0.12    -0.07   0.11  -0.15     0.20   0.20  -0.23
   2   6    -0.01   0.16   0.12    -0.07   0.11  -0.15    -0.20  -0.20   0.23
   3   1     0.05  -0.54  -0.41     0.23  -0.38   0.52     0.28  -0.31   0.44
   4   1     0.05  -0.54  -0.41     0.23  -0.38   0.52    -0.28   0.31  -0.44
                      4                      5                      6
                        a                      a                      a 
 Frequencies --  1520.1286              2989.5941              3008.0983
 Red. masses --    11.6627                 1.8598                 1.8628
 Frc consts  --     0.0000                 0.0000                 0.0000
 IR Inten    --     0.0000                 0.3236                 0.0001
 Raman Activ --     0.0000                 0.0000                 0.0000
 Depolar     --     0.0000                 0.0000                 0.0000
 Atom AN      X      Y      Z        X      Y      Z        X      Y      Z
   1   6     0.55  -0.22   0.36     0.18   0.05  -0.04    -0.19  -0.04   0.03
   2   6    -0.55   0.22  -0.36     0.18   0.05  -0.04     0.19   0.04  -0.03
   3   1     0.12   0.03  -0.02    -0.64  -0.18   0.15     0.64   0.18  -0.16
   4   1    -0.12  -0.03   0.02    -0.64  -0.18   0.15    -0.64  -0.18   0.16
