4
 energy: -4.995813619140 gnorm: 0.140620709662 xtb: 6.2.2 (9d81278992624c895f80dd42a50cac0aa55982e2)
C        -0.56907600000000    0.27089400000000   -0.29371500000000
C         0.56907600000000   -0.27089200000000    0.54483000000000
H        -1.53217800000000   -0.12085200000000    0.09310700000000
H         1.53217800000000    0.12085000000000    0.15800700000000
4
 energy: -5.013723220211 gnorm: 0.051613570722 xtb: 6.2.2 (9d81278992624c895f80dd42a50cac0aa55982e2)
C        -0.55387288137811    0.22991117850618   -0.23899720005574
C         0.55387292880341   -0.22991039301932    0.49011195672557
H        -1.54888223727705   -0.10963542328915    0.07659045840690
H         1.54888218985175    0.10963463780230    0.17452378492327
4
 energy: -5.015125621042 gnorm: 0.039930919092 xtb: 6.2.2 (9d81278992624c895f80dd42a50cac0aa55982e2)
C        -0.53873062929176    0.20974590144146   -0.21113171836617
C         0.53872810107338   -0.20974254364399    0.46224282485654
H        -1.53969083940878   -0.10409906162127    0.07058049729103
H         1.53969336762716    0.10409570382380    0.18053739621860
4
 energy: -5.015798045030 gnorm: 0.004810497683 xtb: 6.2.2 (9d81278992624c895f80dd42a50cac0aa55982e2)
C        -0.55638521486722    0.20850853459140   -0.21170648955961
C         0.55638471861679   -0.20850757923457    0.46281935316263
H        -1.55919312589301   -0.10205534117544    0.06554904397376
H         1.55919362214345    0.10205438581862    0.18556709242322
4
 energy: -5.015834418688 gnorm: 0.000988314469 xtb: 6.2.2 (9d81278992624c895f80dd42a50cac0aa55982e2)
C        -0.55306960264805    0.21007757568690   -0.21332185061888
C         0.55306962505066   -0.21007677748301    0.46443610312507
H        -1.55108385908629   -0.10258458092582    0.06722755965603
H         1.55108383668368    0.10258378272192    0.18388718783778
4
 energy: -5.015835258212 gnorm: 0.000661562914 xtb: 6.2.2 (9d81278992624c895f80dd42a50cac0aa55982e2)
C        -0.55350036487065    0.20913685169262   -0.21216307422243
C         0.55350221252343   -0.20913976056165    0.46327949694159
H        -1.55223387940440   -0.10224833052194    0.06665402652706
H         1.55223203175162    0.10225123939097    0.18445855075379
