$hessian                                                                        
        0.6293838644  -0.0419733101   0.1306553251  -0.3500881317   0.1148554254
       -0.1919488490  -0.2552034700  -0.0820755278   0.0752962320  -0.0240922627
        0.0091934125  -0.0140027081
       -0.0419733101   0.0977542283  -0.1227322210   0.1148553556  -0.0607654221
        0.1009630074  -0.0683746347  -0.0382952932   0.0324953142  -0.0045074107
        0.0013064870  -0.0107261005
        0.1306553251  -0.1227322210   0.1809140776  -0.1919490281   0.1009629795
       -0.1472015716   0.0576280018   0.0308116814  -0.0392382665   0.0036657012
       -0.0090424398   0.0055257605
       -0.3500881317   0.1148553556  -0.1919490281   0.6293832424  -0.0419720119
        0.1306542576  -0.0240915515   0.0091936369  -0.0140025793  -0.2552035593
       -0.0820769805   0.0752973498
        0.1148554254  -0.0607654221   0.1009629795  -0.0419720119   0.0977551520
       -0.1227331694  -0.0045071248   0.0013065171  -0.0107259895  -0.0683762887
       -0.0382962470   0.0324961794
       -0.1919488490   0.1009630074  -0.1472015716   0.1306542576  -0.1227331694
        0.1809145615   0.0036654778  -0.0090424224   0.0055258312   0.0576291135
        0.0308125843  -0.0392388211
       -0.2552034700  -0.0683746347   0.0576280018  -0.0240915515  -0.0045071248
        0.0036654778   0.2835884459   0.0728781268  -0.0599475632  -0.0042934244
        0.0000036327  -0.0013459164
       -0.0820755278  -0.0382952932   0.0308116814   0.0091936369   0.0013065171
       -0.0090424224   0.0728781268   0.0341035932  -0.0265364159   0.0000037642
        0.0028851829   0.0047671569
        0.0752962320   0.0324953142  -0.0392382665  -0.0140025793  -0.0107259895
        0.0055258312  -0.0599475632  -0.0265364159   0.0334398505  -0.0013460895
        0.0047670912   0.0002725848
       -0.0240922627  -0.0045074107   0.0036657012  -0.2552035593  -0.0683762887
        0.0576291135  -0.0042934244   0.0000037642  -0.0013460895   0.2835892463
        0.0728799352  -0.0599487252
        0.0091934125   0.0013064870  -0.0090424398  -0.0820769805  -0.0382962470
        0.0308125843   0.0000036327   0.0028851829   0.0047670912   0.0728799352
        0.0341045770  -0.0265372357
       -0.0140027081  -0.0107261005   0.0055257605   0.0752973498   0.0324961794
       -0.0392388211  -0.0013459164   0.0047671569   0.0002725848  -0.0599487252
       -0.0265372357   0.0334404757
