[Molden Format]
[Title]
[Atoms] AU
C      1     6 -0.10459633326151E+01  0.39521611249892E+00 -0.40092710550851E+00
C      2     6  0.10459684806094E+01 -0.39522078126049E+00  0.87546832580938E+00
H      3     1 -0.29332972132570E+01 -0.19320574491578E+00  0.12596841992406E+00
H      4     1  0.29332953781687E+01  0.19321207010866E+00  0.34856553355743E+00
[GTO]
           1 0
 s           4   1.0000000000000000     
   51.049363095579913      -0.16312063210127389     
   8.7911227406887544      -0.19911024581000730     
  0.70640422258929825       0.31882047753655751     
  0.26922813413411617       0.12706504184240380     
 p           4   1.0000000000000000     
   5.8263656140800002       0.73716451545209605     
   1.5106896018720002       0.68216371614850257     
  0.53256483288000001       0.35783053929253711     
  0.21202323690600003        5.3983030275847881E-002

           2 0
 s           4   1.0000000000000000     
   51.049363095579913      -0.16312063210127389     
   8.7911227406887544      -0.19911024581000730     
  0.70640422258929825       0.31882047753655751     
  0.26922813413411617       0.12706504184240380     
 p           4   1.0000000000000000     
   5.8263656140800002       0.73716451545209605     
   1.5106896018720002       0.68216371614850257     
  0.53256483288000001       0.35783053929253711     
  0.21202323690600003        5.3983030275847881E-002

           3 0
 s           3   1.0000000000000000     
   3.3702276975336001       0.27359110588908298     
  0.61389118221497996       0.26460540653860526     
  0.16614291148415999        8.2465947534082318E-002

           4 0
 s           3   1.0000000000000000     
   3.3702276975336001       0.27359110588908298     
  0.61389118221497996       0.26460540653860526     
  0.16614291148415999        8.2465947534082318E-002

[MO]
Sym=     1a
Ene=  -0.62653294306100205     
Spin= Alpha
Occup=     2.00000000
           1  0.49978068514704177     
           2  0.13868998805543067     
           3  -6.1181686376175312E-002
           4   9.5941450039934609E-002
           5  0.49978079444500811     
           6 -0.13868965203468589     
           7   6.1181920318873095E-002
           8  -9.5941515701287491E-002
           9  0.13515320177517981     
          10  0.13515388605765230     
Sym=     2a
Ene=  -0.55384546379434874     
Spin= Alpha
Occup=     2.00000000
           1  0.37358288388646332     
           2 -0.26423046326883809     
           3  -1.9038826682761013E-002
           4  -7.9176117453464475E-003
           5 -0.37358165031117274     
           6 -0.26422952214497786     
           7  -1.9039248473691005E-002
           8  -7.9172732021098573E-003
           9  0.32105620495329007     
          10 -0.32105491123746105     
Sym=     3a
Ene=  -0.47835481477690323     
Spin= Alpha
Occup=     2.00000000
           1  -3.3329613328928955E-002
           2  0.44637828236359267     
           3  -4.1124457499184593E-002
           4  0.10788458161163875     
           5  -3.3329013713076804E-002
           6 -0.44638050234672771     
           7   4.1119808302991542E-002
           8 -0.10788191440247567     
           9 -0.37506657899825374     
          10 -0.37506772872744415     
Sym=     4a
Ene=  -0.44662205830358326     
Spin= Alpha
Occup=     1.99937599
           1  0.33771766944079690     
           2  0.15094350278953078     
           3  0.33596231878553601     
           4 -0.41470089886565925     
           5 -0.33771949803970314     
           6  0.15093874578822100     
           7  0.33596284967956297     
           8 -0.41470191873420598     
           9 -0.10111764021849000     
          10  0.10111505650475937     
Sym=     5a
Ene=  -0.43260184995086232     
Spin= Alpha
Occup=     1.00062401
           1  -4.2465720542106618E-007
           2  -4.8419010716156403E-002
           3  0.50812944650455161     
           4  0.39402827897646719     
           5  -3.8182058201769029E-007
           6  -4.8420777453594230E-002
           7  0.50812921077755369     
           8  0.39402731460548457     
           9  -3.9297197928173611E-007
          10  -4.0176836725338883E-007
Sym=     6a
Ene=  -0.30159539119444229     
Spin= Alpha
Occup=     1.00000000
           1 -0.32271837417032206     
           2  -3.2028058951547776E-002
           3 -0.41067653067435178     
           4  0.52566290543919925     
           5 -0.32271919353799211     
           6   3.2026098504827363E-002
           7  0.41067507256998337     
           8 -0.52566230781929113     
           9  0.19123584325980808     
          10  0.19123703192451164     
Sym=     7a
Ene=  -0.24403026413236734     
Spin= Alpha
Occup=     0.00000000
           1  -5.0309454477826065E-007
           2  -5.9456651548249292E-002
           3  0.62395732325099196     
           4  0.48384598161528136     
           5   5.0221025528452966E-007
           6   5.9457703058525872E-002
           7 -0.62395732087212707     
           8 -0.48384671157437004     
           9   5.5704612325365285E-007
          10  -5.5323703862363081E-007
Sym=     8a
Ene=   0.11922744494581576     
Spin= Alpha
Occup=     0.00000000
           1  0.63624656860620088     
           2 -0.31281053577814116     
           3 -0.22271568626777594     
           4  0.24877137861436080     
           5 -0.63624009098816092     
           6 -0.31280109330925526     
           7 -0.22271639131239665     
           8  0.24876986916276156     
           9 -0.79935502724204532     
          10  0.79934603247602787     
Sym=     9a
Ene=   0.27523818971233543     
Spin= Alpha
Occup=     0.00000000
           1  0.50142027665599398     
           2 -0.63669581017535803     
           3 -0.24820131733019343     
           4  0.24183574142787301     
           5  0.50142079611637835     
           6  0.63671132442029121     
           7  0.24820369951191504     
           8 -0.24183507799676060     
           9 -0.78460027991269399     
          10 -0.78461447491821079     
Sym=    10a
Ene=   0.43853316284060734     
Spin= Alpha
Occup=     0.00000000
           1 -0.57000114123196444     
           2 -0.90111923946825423     
           3  0.23786620877263573     
           4 -0.41747996885445338     
           5  0.57000832136694779     
           6 -0.90111050830935835     
           7  0.23786834186263675     
           8 -0.41748256452651428     
           9 -0.28394817403408995     
          10  0.28393640405941684     
