2
 energy: -3.204381467156 gnorm: 0.000263021955 xtb: 6.2.2 (9d81278992624c895f80dd42a50cac0aa55982e2)
N         0.51195789216829   -0.00000268060525   -0.00000178707017
H        -0.51195789216829    0.00000268060525    0.00000178707017
