[Molden Format]
[Title]
[Atoms] AU
N      1     7  0.96746011377792E+00 -0.50656093101894E-05 -0.33770728734887E-05
H      2     1 -0.96746011377792E+00  0.50656093101864E-05  0.33770728734887E-05
[GTO]
           1 0
 s           4   1.0000000000000000     
   63.594024466941008      -0.19234388414721629     
   10.951417231523665      -0.23478107924953728     
  0.87999310257376984       0.37593753901700888     
  0.33538715296521110       0.14982889271862770     
 p           4   1.0000000000000000     
   7.2965040481495080       0.97658666315667420     
   1.8918745450712575       0.90372226730345739     
  0.66694432110824120       0.47404958461536373     
  0.26552202674130870        7.1516067715011844E-002

           2 0
 s           3   1.0000000000000000     
   3.3702276975336001       0.27359110588908298     
  0.61389118221497996       0.26460540653860526     
  0.16614291148415999        8.2465947534082318E-002

[MO]
Sym=     1a
Ene=  -0.61297049648611179     
Spin= Alpha
Occup=     2.00000000
           1  0.76359266562567341     
           2 -0.17437207950073783     
           3   1.0074648515861667E-006
           4   6.7164323371321304E-007
           5  0.34207361731352220     
Sym=     2a
Ene=  -0.47325032972226516     
Spin= Alpha
Occup=     2.00000000
           1  0.54589963634662364     
           2  0.71984776810713369     
           3  -3.7726022807070742E-006
           4  -2.5150682074649773E-006
           5 -0.36187128011281605     
Sym=     3a
Ene=  -0.44779367669233378     
Spin= Alpha
Occup=     1.00000046
           1   5.7810310382341850E-008
           2  -6.1309869403589564E-006
           3 -0.69143068462706869     
           4 -0.72244280632961699     
           5   8.4094584646421452E-008
Sym=     4a
Ene=  -0.44779367495325056     
Spin= Alpha
Occup=     0.99999954
           1   1.2886623724582397E-008
           2  -1.3666707536679739E-006
           3 -0.72244280633672919     
           4  0.69143068464547752     
           5   1.8745688588829715E-008
Sym=     5a
Ene=    8.5246376586485928E-002
Spin= Alpha
Occup=     0.00000000
           1 -0.62565720048853479     
           2  0.85082960092357263     
           3  -4.4214659909339923E-006
           4  -2.9476439937698134E-006
           5   1.1388851401185012     
