2
 energy: -3.204101167942 gnorm: 0.019691135761 xtb: 6.2.2 (9d81278992624c895f80dd42a50cac0aa55982e2)
N         0.52221000000000    0.00000000000000    0.00000000000000
H        -0.52221000000000    0.00000000000000    0.00000000000000
2
 energy: -3.204358123189 gnorm: 0.005903197895 xtb: 6.2.2 (9d81278992624c895f80dd42a50cac0aa55982e2)
N         0.51477276523859    0.00000000000000    0.00000000000000
H        -0.51477276523859   -0.00000000000000    0.00000000000000
2
 energy: -3.204381353343 gnorm: 0.000494414840 xtb: 6.2.2 (9d81278992624c895f80dd42a50cac0aa55982e2)
N         0.51158880184898    0.00000000000000    0.00000000000000
H        -0.51158880184898   -0.00000000000000    0.00000000000000
2
 energy: -3.204381467821 gnorm: 0.000262358373 xtb: 6.2.2 (9d81278992624c895f80dd42a50cac0aa55982e2)
N         0.51195789217843    0.00000000000000    0.00000000000000
H        -0.51195789217843   -0.00000000000000    0.00000000000000
