$hessian                                                                        
        0.3829459292  -0.0000015103  -0.0000010068  -0.3829459292   0.0000015103
        0.0000010068
       -0.0000015103   0.0001255428   0.0000000257   0.0000015103  -0.0001255428
       -0.0000000257
       -0.0000010068   0.0000000257   0.0001255423   0.0000010068  -0.0000000257
       -0.0001255423
       -0.3829459292   0.0000015103   0.0000010068   0.3829459292  -0.0000015103
       -0.0000010068
        0.0000015103  -0.0001255428  -0.0000000257  -0.0000015103   0.0001255428
        0.0000000257
        0.0000010068  -0.0000000257  -0.0001255423  -0.0000010068   0.0000000257
        0.0001255423
