      -----------------------------------------------------------      
     |                   =====================                   |     
     |                           x T B                           |     
     |                   =====================                   |     
     |                         S. Grimme                         |     
     |          Mulliken Center for Theoretical Chemistry        |     
     |                    University of Bonn                     |     
      -----------------------------------------------------------      

   * xtb version 6.2.2 (9d81278992624c895f80dd42a50cac0aa55982e2) compiled by '@Darwin' on 04/03/2020

   xtb is free software: you can redistribute it and/or modify it under
   the terms of the GNU Lesser General Public License as published by
   the Free Software Foundation, either version 3 of the License, or
   (at your option) any later version.
   
   xtb is distributed in the hope that it will be useful,
   but WITHOUT ANY WARRANTY; without even the implied warranty of
   MERCHANTABILITY or FITNESS FOR A PARTICULAR PURPOSE.  See the
   GNU Lesser General Public License for more details.
   
   Cite this work as:
   * S. Grimme, C. Bannwarth, P. Shushkov, J. Chem. Theory Comput., 2017,
     13, 1989-2009. DOI: 10.1021/acs.jctc.7b00118
   * C. Bannwarth, S. Ehlert and S. Grimme., J. Chem. Theory Comput., 2019,
     15, 1652-1671. DOI: 10.1021/acs.jctc.8b01176
   * P. Pracht, E. Caldeweyher, S. Ehlert, S. Grimme, ChemRxiv, 2019, preprint.
     DOI: 10.26434/chemrxiv.8326202.v1
   
   for DFT-D4:
   * E. Caldeweyher, C. Bannwarth and S. Grimme, J. Chem. Phys., 2017,
     147, 034112. DOI: 10.1063/1.4993215
   * E. Caldeweyher, S. Ehlert, A. Hansen, H. Neugebauer, S. Spicher,
     C. Bannwarth and S. Grimme, J. Chem. Phys., 2019, 150, 154122.
     DOI: 10.1063/1.5090222
   
   for sTDA-xTB:
   * S. Grimme and C. Bannwarth, J. Chem. Phys., 2016, 145, 054103.
     DOI: 10.1063/1.4959605
   
   in the mass-spec context:
   * V. Asgeirsson, C. Bauer and S. Grimme, Chem. Sci., 2017, 8, 4879.
     DOI: 10.1039/c7sc00601b
   
   for metadynamics refer to:
   * S. Grimme, J. Chem. Theory Comput., 2019, 155, 2847-2862
     DOI: 10.1021/acs.jctc.9b00143
   
   with help from (in alphabetical order)
   C. Bannwarth, F. Bohle, G. Brandenburg, E. Caldeweyher, M. Checinski,
   S. Dohm, S. Ehlert, S. Ehrlich, F. März, H. Neugebauer, J. Pisarek,
   P. Pracht, P. Shushkov, and S. Spicher.
   
 * started run on 2020/05/12 at 11:45:08.954     

           -------------------------------------------------
          |                Calculation Setup                |
           -------------------------------------------------

          program call               : xtb --input H1C4_3_S_1.input H1C4_3_S_1.xyz --ohess --molden --namespace H1C4_3_S_1 output.out
          calculation namespace      : H1C4_3_S_1
          coordinate file            : H1C4_3_S_1.xyz
          number of atoms            :                     5
          number of electrons        :                    17
          charge                     :                     0
          spin                       :                   0.5
          first test random number   :      0.47543484865308

   ID    Z sym.   atoms
    1    6 C      1-4
    2    1 H      5

           -------------------------------------------------
          |                 G F N 2 - x T B                 |
           -------------------------------------------------

        Reference                      10.1021/acs.jctc.8b01176
      * Hamiltonian:
        H0-scaling (s, p, d)           1.850000    2.230000    2.230000
        zeta-weighting                 0.500000
      * Dispersion:
        s8                             2.700000
        a1                             0.520000
        a2                             5.000000
        s9                             5.000000
      * Repulsion:
        kExp                           1.500000    1.000000
        rExp                           1.000000
      * Coulomb:
        alpha                          2.000000
        third order                    shell-resolved
        anisotropic                    true
        a3                             3.000000
        a5                             4.000000
        cn-shift                       1.200000
        cn-exp                         4.000000
        max-rad                        5.000000


          ...................................................
          :                      SETUP                      :
          :.................................................:
          :  # basis functions                  17          :
          :  # atomic orbitals                  17          :
          :  # shells                            9          :
          :  # electrons                        17          :
          :  max. iterations                   250          :
          :  Hamiltonian                  GFN2-xTB          :
          :  restarted?                      false          :
          :  GBSA solvation                  false          :
          :  PC potential                    false          :
          :  electronic temp.          300.0000000     K    :
          :  accuracy                    1.0000000          :
          :  -> integral cutoff          0.2500000E+02      :
          :  -> integral neglect         0.1000000E-07      :
          :  -> SCF convergence          0.1000000E-05 Eh   :
          :  -> wf. convergence          0.1000000E-03 e    :
          :  Broyden damping             0.4000000          :
          ...................................................

 iter      E             dE          RMSdq      gap      omega  full diag
   1     -8.4816596 -0.848166E+01  0.125E+01    1.14       0.0  T
   2     -6.4905740  0.199109E+01  0.163E+01    0.37       1.0  T
   3     -5.6092112  0.881363E+00  0.148E+01    0.44       1.0  T
   4     -7.4821600 -0.187295E+01  0.103E+01    0.13       1.0  T
   5     -8.5266893 -0.104453E+01  0.662E+00    0.72       1.0  T
   6     -8.5721733 -0.454840E-01  0.545E+00    0.92       1.0  T
   7     -8.5850770 -0.129037E-01  0.427E+00    0.87       1.0  T
   8     -8.5901281 -0.505110E-02  0.360E+00    0.85       1.0  T
   9     -8.6066983 -0.165702E-01  0.188E+00    0.75       1.0  T
  10     -8.6087845 -0.208616E-02  0.174E+00    0.73       1.0  T
  11     -8.6141830 -0.539852E-02  0.788E-01    0.60       1.0  T
  12     -8.6147356 -0.552653E-03  0.347E-01    0.62       1.0  T
  13     -8.6147252  0.104316E-04  0.271E-01    0.62       1.0  T
  14     -8.6147419 -0.167483E-04  0.166E-01    0.62       1.0  T
  15     -8.6148740 -0.132102E-03  0.311E-02    0.61       1.4  T
  16     -8.6148711  0.297236E-05  0.405E-02    0.61       1.1  T
  17     -8.6148758 -0.469995E-05  0.120E-02    0.61       3.7  T
  18     -8.6148761 -0.353227E-06  0.679E-03    0.61       6.6  T
  19     -8.6148763 -0.161341E-06  0.278E-03    0.61      16.1  T
  20     -8.6148763 -0.192615E-07  0.960E-04    0.61      46.6  T
  21     -8.6148763 -0.305384E-08  0.318E-04    0.61     140.6  T

   *** convergence criteria satisfied after 21 iterations ***

         #    Occupation            Energy/Eh            Energy/eV
      -------------------------------------------------------------
         1        2.0000           -0.6818238             -18.5534
       ...           ...                  ...                  ...
         3        2.0000           -0.6085255             -16.5588
         4        2.0000           -0.5542395             -15.0816
         5        2.0000           -0.5099297             -13.8759
         6        2.0000           -0.4817652             -13.1095
         7        2.0000           -0.4772131             -12.9856
         8        1.9390           -0.4232051             -11.5160
         9        1.0610           -0.4180105             -11.3746 (HOMO)
        10        0.0000           -0.3956042             -10.7649 (LUMO)
        11                         -0.3585689              -9.7572
        12                         -0.3266723              -8.8892
        13                         -0.2902490              -7.8981
        14                          0.0682865               1.8582
       ...                                ...                  ...
        17                          0.1485652               4.0427
      -------------------------------------------------------------
                  HL-Gap            0.0224063 Eh            0.6097 eV
             Fermi-level           -0.4137066 Eh          -11.2575 eV

 SCC (total)                   0 d,  0 h,  0 min,  0.005 sec
 SCC setup                      ...        0 min,  0.000 sec (  1.803%)
 Dispersion                     ...        0 min,  0.000 sec (  0.355%)
 integral evaluation            ...        0 min,  0.001 sec ( 24.212%)
 zeroth order Hamiltonian       ...        0 min,  0.000 sec (  0.402%)
 iterations                     ...        0 min,  0.002 sec ( 47.244%)
 molecular gradient             ...        0 min,  0.001 sec ( 23.904%)
 printout                       ...        0 min,  0.000 sec (  1.907%)

         :::::::::::::::::::::::::::::::::::::::::::::::::::::
         ::                     SUMMARY                     ::
         :::::::::::::::::::::::::::::::::::::::::::::::::::::
         :: total energy              -8.556730386581 Eh    ::
         :: gradient norm              0.301693803316 Eh/a0 ::
         :: HOMO-LUMO gap              0.609706932830 eV    ::
         ::.................................................::
         :: SCC energy                -8.614876310302 Eh    ::
         :: -> isotropic ES           -0.031116910799 Eh    ::
         :: -> anisotropic ES         -0.001113008997 Eh    ::
         :: -> anisotropic XC          0.012521391029 Eh    ::
         :: -> dispersion             -0.002328998677 Eh    ::
         :: repulsion energy           0.058145793900 Eh    ::
         :: add. restraining           0.000000000000 Eh    ::
         :::::::::::::::::::::::::::::::::::::::::::::::::::::

      ----------------------------------------------------------- 
     |                   =====================                   |
     |                        A N C O P T                        |
     |                   =====================                   |
     |               Approximate Normal Coordinate               |
     |                Rational Function Optimizer                |
      ----------------------------------------------------------- 

          ...................................................
          :                      SETUP                      :
          :.................................................:
          :   optimization level            normal          :
          :   max. optcycles                   200          :
          :   ANC micro-cycles                  20          :
          :   degrees of freedom                 9          :
          :.................................................:
          :   RF solver                   davidson          :
          :   write xtbopt.log                true          :
          :   linear?                        false          :
          :   energy convergence         0.5000000E-05 Eh   :
          :   grad. convergence          0.1000000E-02 Eh/α :
          :   maximium RF displ.         1.0000000          :
          :   Hlow (freq-cutoff)         0.1000000E-01      :
          :   Hmax (freq-cutoff)         5.0000000          :
          :   S6 in model hess.         20.0000000          :
          ...................................................

generating ANC from model Hessian ...
Using Lindh-Hessian (1995)
 Shifting diagonal of input Hessian by    2.0823588418897448E-003
 Lowest  eigenvalues of input Hessian
   -0.000000   -0.000000   -0.000000   -0.000000    0.000000    0.000000
    0.010000    0.037249    0.067542    0.079201    0.094152    0.561296
    0.796732    0.975719    1.037996
 Highest eigenvalues
    0.079201    0.094152    0.561296    0.796732    0.975719    1.037996


........................................................................
.............................. CYCLE    1 ..............................
........................................................................
   1     -8.6148763 -0.861488E+01  0.289E-05    0.61       0.0  T
   2     -8.6148763  0.289369E-11  0.252E-05    0.61    1771.9  T
   3     -8.6148763  0.179003E-10  0.576E-05    0.61     776.2  T
     SCC iter.                  ...        0 min,  0.000 sec
     gradient                   ...        0 min,  0.001 sec
 * total energy  :    -8.5567304 Eh     change        0.2434852E-10 Eh
   gradient norm :     0.3016935 Eh/α   predicted     0.0000000E+00 (-100.00%)
   displ. norm   :     0.4148743 α      lambda       -0.1176739E+00
   maximum displ.:     0.3148567 α      in ANC's #6, #7, #5, ...

........................................................................
.............................. CYCLE    2 ..............................
........................................................................
   1     -8.7593892 -0.875939E+01  0.266E+00    0.92       0.0  T
   2     -8.6986011  0.607881E-01  0.349E+00    1.22       1.0  T
   3     -8.7708637 -0.722626E-01  0.140E+00    1.00       1.0  T
   4     -8.7267230  0.441406E-01  0.231E+00    0.59       1.0  T
   5     -8.7750455 -0.483224E-01  0.382E-01    1.02       1.0  T
   6     -8.7758920 -0.846535E-03  0.149E-01    0.95       1.0  T
   7     -8.7759322 -0.402199E-04  0.103E-01    0.97       1.0  T
   8     -8.7759660 -0.337628E-04  0.179E-02    0.97       2.5  T
   9     -8.7759678 -0.178955E-05  0.450E-03    0.97       9.9  T
  10     -8.7759678 -0.321311E-07  0.114E-03    0.97      39.2  T
  11     -8.7759678 -0.163801E-08  0.340E-04    0.97     131.7  T
  12     -8.7759678 -0.382064E-09  0.143E-04    0.97     312.9  T
     SCC iter.                  ...        0 min,  0.001 sec
     gradient                   ...        0 min,  0.001 sec
 * total energy  :    -8.6570081 Eh     change       -0.1002777E+00 Eh
   gradient norm :     0.1980885 Eh/α   predicted    -0.6896400E-01 ( -31.23%)
   displ. norm   :     0.5276513 α      lambda       -0.1006933E+00
   maximum displ.:     0.3783711 α      in ANC's #6, #7, #9, ...

........................................................................
.............................. CYCLE    3 ..............................
........................................................................
   1     -8.9948924 -0.899489E+01  0.345E+00    1.62       0.0  T
   2     -8.8478562  0.147036E+00  0.477E+00    2.24       1.0  T
   3     -8.9720172 -0.124161E+00  0.264E+00    1.40       1.0  T
   4     -8.9940461 -0.220290E-01  0.192E+00    1.85       1.0  T
   5     -9.0102977 -0.162516E-01  0.630E-01    1.70       1.0  T
   6     -9.0102919  0.575751E-05  0.575E-01    1.70       1.0  T
   7     -9.0112718 -0.979863E-03  0.167E-01    1.74       1.0  T
   8     -9.0113752 -0.103361E-03  0.440E-02    1.76       1.0  T
   9     -9.0113686  0.660286E-05  0.329E-02    1.77       1.4  T
  10     -9.0113759 -0.733197E-05  0.233E-03    1.76      19.2  T
  11     -9.0113759  0.189388E-07  0.222E-03    1.76      20.1  T
  12     -9.0113759 -0.198987E-07  0.770E-04    1.76      58.1  T
  13     -9.0113759 -0.325011E-08  0.515E-05    1.76     869.0  T
     SCC iter.                  ...        0 min,  0.001 sec
     gradient                   ...        0 min,  0.001 sec
 * total energy  :    -8.6399390 Eh     change        0.1706916E-01 Eh
   gradient norm :     0.5894516 Eh/α   predicted    -0.6436398E-01 (-477.08%)
   displ. norm   :     0.3443260 α      lambda       -0.1598678E+00
   maximum displ.:     0.1756310 α      in ANC's #7, #2, #5, ...

........................................................................
.............................. CYCLE    4 ..............................
........................................................................
   1     -8.8732380 -0.887324E+01  0.191E+00    1.85       0.0  T
   2     -8.8042317  0.690063E-01  0.314E+00    0.98       1.0  T
   3     -8.8805284 -0.762967E-01  0.120E+00    1.73       1.0  T
   4     -8.8791374  0.139099E-02  0.980E-01    1.72       1.0  T
   5     -8.8790187  0.118709E-03  0.702E-01    1.77       1.0  T
   6     -8.8833156 -0.429691E-02  0.170E-01    1.69       1.0  T
   7     -8.8833763 -0.606837E-04  0.994E-02    1.67       1.0  T
   8     -8.8833493  0.269811E-04  0.782E-02    1.66       1.0  T
   9     -8.8833968 -0.474612E-04  0.395E-03    1.68      11.3  T
  10     -8.8833968 -0.104982E-07  0.216E-03    1.68      20.7  T
  11     -8.8833968 -0.369108E-08  0.154E-03    1.68      29.0  T
  12     -8.8833968 -0.556797E-08  0.268E-04    1.68     167.1  T
  13     -8.8833968  0.757439E-11  0.925E-05    1.68     483.4  T
     SCC iter.                  ...        0 min,  0.001 sec
     gradient                   ...        0 min,  0.001 sec
 * total energy  :    -8.6926710 Eh     change       -0.5273209E-01 Eh
   gradient norm :     0.1245959 Eh/α   predicted    -0.8941091E-01 (  69.56%)
   displ. norm   :     0.2616939 α      lambda       -0.1435791E-01
   maximum displ.:     0.1966737 α      in ANC's #3, #5, #1, ...

........................................................................
.............................. CYCLE    5 ..............................
........................................................................
   1     -8.8605698 -0.886057E+01  0.100E+00    1.50       0.0  T
   2     -8.8542401  0.632972E-02  0.118E+00    1.24       1.0  T
   3     -8.8594699 -0.522973E-02  0.727E-01    1.55       1.0  T
   4     -8.8565012  0.296865E-02  0.832E-01    1.32       1.0  T
   5     -8.8621936 -0.569237E-02  0.105E-01    1.43       1.0  T
   6     -8.8622053 -0.116960E-04  0.629E-02    1.44       1.0  T
   7     -8.8622183 -0.130468E-04  0.229E-02    1.43       2.0  T
   8     -8.8622188 -0.456730E-06  0.472E-03    1.43       9.5  T
   9     -8.8622188 -0.288872E-07  0.131E-03    1.43      34.2  T
  10     -8.8622188 -0.513806E-08  0.151E-04    1.43     295.7  T
  11     -8.8622188  0.189910E-10  0.937E-05    1.43     477.3  T
     SCC iter.                  ...        0 min,  0.001 sec
     gradient                   ...        0 min,  0.001 sec
 * total energy  :    -8.6942747 Eh     change       -0.1603685E-02 Eh
   gradient norm :     0.0759076 Eh/α   predicted    -0.7670594E-02 ( 378.31%)
   displ. norm   :     0.3170577 α      lambda       -0.1096678E-01
   maximum displ.:     0.2271263 α      in ANC's #1, #2, #3, ...

........................................................................
.............................. CYCLE    6 ..............................
........................................................................
   1     -8.8841207 -0.888412E+01  0.124E+00    1.64       0.0  T
   2     -8.8800913  0.402936E-02  0.969E-01    1.47       1.0  T
   3     -8.8594648  0.206265E-01  0.178E+00    1.86       1.0  T
   4     -8.8829389 -0.234740E-01  0.517E-01    1.52       1.0  T
   5     -8.8847589 -0.182002E-02  0.933E-02    1.60       1.0  T
   6     -8.8847679 -0.897548E-05  0.762E-02    1.59       1.0  T
   7     -8.8847801 -0.122493E-04  0.445E-02    1.59       1.0  T
   8     -8.8847851 -0.498998E-05  0.859E-03    1.59       5.2  T
   9     -8.8847853 -0.232187E-06  0.111E-03    1.60      40.3  T
  10     -8.8847853 -0.291749E-08  0.577E-04    1.60      77.5  T
  11     -8.8847853 -0.256339E-09  0.125E-04    1.60     357.1  T
     SCC iter.                  ...        0 min,  0.001 sec
     gradient                   ...        0 min,  0.001 sec
 * total energy  :    -8.7010125 Eh     change       -0.6737816E-02 Eh
   gradient norm :     0.0608605 Eh/α   predicted    -0.6034613E-02 ( -10.44%)
   displ. norm   :     0.2666425 α      lambda       -0.5204476E-02
   maximum displ.:     0.1980393 α      in ANC's #1, #2, #3, ...

........................................................................
.............................. CYCLE    7 ..............................
........................................................................
   1     -8.9253417 -0.892534E+01  0.114E+00    1.72       0.0  T
   2     -8.8949018  0.304399E-01  0.198E+00    2.06       1.0  T
   3     -8.9219922 -0.270904E-01  0.973E-01    1.65       1.0  T
   4     -8.9255716 -0.357934E-02  0.530E-01    1.75       1.0  T
   5     -8.9264924 -0.920889E-03  0.295E-01    1.75       1.0  T
   6     -8.9265548 -0.623147E-04  0.266E-01    1.75       1.0  T
   7     -8.9267871 -0.232387E-03  0.168E-01    1.77       1.0  T
   8     -8.9269158 -0.128647E-03  0.304E-02    1.79       1.5  T
   9     -8.9269177 -0.194983E-05  0.521E-03    1.80       8.6  T
  10     -8.9269178 -0.482612E-07  0.198E-03    1.80      22.6  T
  11     -8.9269178 -0.906082E-08  0.462E-04    1.80      96.8  T
  12     -8.9269178 -0.816540E-09  0.177E-04    1.80     252.5  T
     SCC iter.                  ...        0 min,  0.001 sec
     gradient                   ...        0 min,  0.001 sec
 * total energy  :    -8.6998315 Eh     change        0.1181022E-02 Eh
   gradient norm :     0.0504188 Eh/α   predicted    -0.2787254E-02 (-336.00%)
   displ. norm   :     0.3244074 α      lambda       -0.6905972E-02
   maximum displ.:     0.3006704 α      in ANC's #1, #3, #5, ...

........................................................................
.............................. CYCLE    8 ..............................
........................................................................
   1     -8.9148922 -0.891489E+01  0.114E+00    1.84       0.0  T
   2     -8.9012536  0.136387E-01  0.134E+00    1.50       1.0  T
   3     -8.9029967 -0.174310E-02  0.133E+00    1.95       1.0  T
   4     -8.9163604 -0.133637E-01  0.175E-01    1.77       1.0  T
   5     -8.9163922 -0.318467E-04  0.127E-01    1.76       1.0  T
   6     -8.9164283 -0.360783E-04  0.918E-02    1.76       1.0  T
   7     -8.9164239  0.438363E-05  0.610E-02    1.77       1.0  T
   8     -8.9164373 -0.134067E-04  0.542E-03    1.77       8.3  T
   9     -8.9164373 -0.925230E-08  0.245E-03    1.77      18.3  T
  10     -8.9164373 -0.249988E-07  0.796E-04    1.77      56.2  T
  11     -8.9164374 -0.293262E-08  0.113E-04    1.77     396.3  T
     SCC iter.                  ...        0 min,  0.001 sec
     gradient                   ...        0 min,  0.001 sec
 * total energy  :    -8.7041912 Eh     change       -0.4359715E-02 Eh
   gradient norm :     0.0279862 Eh/α   predicted    -0.3816376E-02 ( -12.46%)
   displ. norm   :     0.3386929 α      lambda       -0.2486062E-02
   maximum displ.:     0.3141128 α      in ANC's #1, #2, #5, ...

........................................................................
.............................. CYCLE    9 ..............................
........................................................................
   1     -8.8973699 -0.889737E+01  0.128E+00    1.66       0.0  T
   2     -8.8869981  0.103718E-01  0.120E+00    1.37       1.0  T
   3     -8.8705563  0.164418E-01  0.181E+00    1.88       1.0  T
   4     -8.8978555 -0.272992E-01  0.336E-01    1.60       1.0  T
   5     -8.8984153 -0.559755E-03  0.133E-01    1.59       1.0  T
   6     -8.8984418 -0.265136E-04  0.101E-01    1.60       1.0  T
   7     -8.8984437 -0.194817E-05  0.454E-02    1.59       1.0  T
   8     -8.8984460 -0.225142E-05  0.755E-03    1.60       5.9  T
   9     -8.8984462 -0.181084E-06  0.374E-03    1.60      12.0  T
  10     -8.8984462 -0.542182E-07  0.107E-03    1.60      41.7  T
  11     -8.8984462 -0.683666E-09  0.217E-04    1.60     205.7  T
  12     -8.8984462 -0.271392E-10  0.711E-05    1.60     629.3  T
     SCC iter.                  ...        0 min,  0.001 sec
     gradient                   ...        0 min,  0.001 sec
 * total energy  :    -8.7048690 Eh     change       -0.6778002E-03 Eh
   gradient norm :     0.0579206 Eh/α   predicted    -0.1385623E-02 ( 104.43%)
   displ. norm   :     0.0785960 α      lambda       -0.2167226E-02
   maximum displ.:     0.0553625 α      in ANC's #1, #2, #5, ...

........................................................................
.............................. CYCLE   10 ..............................
........................................................................
   1     -8.9169252 -0.891693E+01  0.508E-01    1.63       0.0  T
   2     -8.9132913  0.363391E-02  0.692E-01    1.78       1.0  T
   3     -8.9161883 -0.289700E-02  0.415E-01    1.60       1.0  T
   4     -8.9171008 -0.912507E-03  0.150E-01    1.64       1.0  T
   5     -8.9172156 -0.114813E-03  0.623E-02    1.65       1.0  T
   6     -8.9172331 -0.174942E-04  0.297E-02    1.66       1.5  T
   7     -8.9172360 -0.288476E-05  0.113E-02    1.66       4.0  T
   8     -8.9172366 -0.602441E-06  0.270E-03    1.66      16.6  T
   9     -8.9172366 -0.124192E-07  0.452E-04    1.66      99.0  T
  10     -8.9172366 -0.466919E-09  0.662E-05    1.66     675.8  T
     SCC iter.                  ...        0 min,  0.001 sec
     gradient                   ...        0 min,  0.001 sec
 * total energy  :    -8.7061333 Eh     change       -0.1264212E-02 Eh
   gradient norm :     0.0170762 Eh/α   predicted    -0.1090305E-02 ( -13.76%)
   displ. norm   :     0.2032756 α      lambda       -0.1593433E-02
   maximum displ.:     0.1475739 α      in ANC's #2, #1, #6, ...

........................................................................
.............................. CYCLE   11 ..............................
........................................................................
   1     -8.9233562 -0.892336E+01  0.894E-01    1.72       0.0  T
   2     -8.9232251  0.131100E-03  0.520E-01    1.67       1.0  T
   3     -8.9094309  0.137942E-01  0.117E+00    1.89       1.0  T
   4     -8.9233502 -0.139193E-01  0.141E-01    1.68       1.0  T
   5     -8.9234393 -0.891534E-04  0.384E-02    1.69       1.2  T
   6     -8.9234415 -0.214817E-05  0.331E-02    1.69       1.4  T
   7     -8.9234471 -0.563224E-05  0.605E-03    1.69       7.4  T
   8     -8.9234471  0.402379E-08  0.252E-03    1.69      17.8  T
   9     -8.9234471 -0.118497E-07  0.438E-04    1.69     102.0  T
  10     -8.9234471 -0.759014E-09  0.117E-04    1.69     381.7  T
     SCC iter.                  ...        0 min,  0.001 sec
     gradient                   ...        0 min,  0.001 sec
 * total energy  :    -8.7071978 Eh     change       -0.1064512E-02 Eh
   gradient norm :     0.0166133 Eh/α   predicted    -0.8296366E-03 ( -22.06%)
   displ. norm   :     0.3150594 α      lambda       -0.1607913E-02
   maximum displ.:     0.2125959 α      in ANC's #1, #2, #5, ...

........................................................................
.............................. CYCLE   12 ..............................
........................................................................
   1     -8.9185923 -0.891859E+01  0.124E+00    1.66       0.0  T
   2     -8.9186126 -0.203221E-04  0.737E-01    1.67       1.0  T
   3     -8.9176641  0.948534E-03  0.331E-01    1.60       1.0  T
   4     -8.9182198 -0.555733E-03  0.203E-01    1.70       1.0  T
   5     -8.9186304 -0.410569E-03  0.539E-02    1.66       1.0  T
   6     -8.9186391 -0.874221E-05  0.275E-02    1.66       1.6  T
   7     -8.9186405 -0.137922E-05  0.991E-03    1.66       4.5  T
   8     -8.9186410 -0.490473E-06  0.162E-03    1.66      27.6  T
   9     -8.9186410 -0.497567E-08  0.862E-04    1.66      51.9  T
  10     -8.9186410 -0.229489E-08  0.739E-05    1.66     605.1  T
     SCC iter.                  ...        0 min,  0.001 sec
     gradient                   ...        0 min,  0.001 sec
 * total energy  :    -8.7079232 Eh     change       -0.7253889E-03 Eh
   gradient norm :     0.0258915 Eh/α   predicted    -0.8837604E-03 (  21.83%)
   displ. norm   :     0.0681346 α      lambda       -0.1059444E-02
   maximum displ.:     0.0409567 α      in ANC's #3, #2, #8, ...

........................................................................
.............................. CYCLE   13 ..............................
........................................................................
   1     -8.9326750 -0.893267E+01  0.265E-01    1.67       0.0  T
   2     -8.9324726  0.202321E-03  0.276E-01    1.66       1.0  T
   3     -8.9327730 -0.300375E-03  0.133E-01    1.68       1.0  T
   4     -8.9322564  0.516627E-03  0.247E-01    1.61       1.0  T
   5     -8.9328337 -0.577336E-03  0.368E-02    1.67       1.2  T
   6     -8.9328467 -0.129728E-04  0.132E-02    1.66       3.4  T
   7     -8.9328474 -0.731451E-06  0.318E-03    1.66      14.0  T
   8     -8.9328474 -0.524270E-08  0.109E-03    1.66      41.0  T
   9     -8.9328474 -0.331912E-08  0.163E-04    1.66     273.7  T
  10     -8.9328474 -0.702958E-10  0.156E-05    1.66    2872.6  T
     SCC iter.                  ...        0 min,  0.001 sec
     gradient                   ...        0 min,  0.001 sec
 * total energy  :    -8.7081856 Eh     change       -0.2623980E-03 Eh
   gradient norm :     0.0128898 Eh/α   predicted    -0.5321823E-03 ( 102.81%)
   displ. norm   :     0.0874589 α      lambda       -0.4365909E-03
   maximum displ.:     0.0692440 α      in ANC's #2, #3, #7, ...

........................................................................
.............................. CYCLE   14 ..............................
........................................................................
   1     -8.9286818 -0.892868E+01  0.363E-01    1.68       0.0  T
   2     -8.9284018  0.279983E-03  0.288E-01    1.72       1.0  T
   3     -8.9266356  0.176619E-02  0.454E-01    1.59       1.0  T
   4     -8.9286098 -0.197421E-02  0.117E-01    1.71       1.0  T
   5     -8.9287166 -0.106760E-03  0.112E-02    1.69       4.0  T
   6     -8.9287166 -0.308756E-07  0.547E-03    1.69       8.2  T
   7     -8.9287167 -0.583985E-07  0.117E-03    1.69      38.1  T
   8     -8.9287167  0.159633E-08  0.638E-04    1.69      70.1  T
   9     -8.9287167 -0.381184E-08  0.191E-04    1.69     233.7  T
     SCC iter.                  ...        0 min,  0.001 sec
     gradient                   ...        0 min,  0.001 sec
 * total energy  :    -8.7084680 Eh     change       -0.2824264E-03 Eh
   gradient norm :     0.0059118 Eh/α   predicted    -0.2199653E-03 ( -22.12%)
   displ. norm   :     0.0868727 α      lambda       -0.1661389E-03
   maximum displ.:     0.0660448 α      in ANC's #2, #7, #6, ...

........................................................................
.............................. CYCLE   15 ..............................
........................................................................
   1     -8.9268835 -0.892688E+01  0.368E-01    1.71       0.0  T
   2     -8.9266727  0.210784E-03  0.273E-01    1.75       1.0  T
   3     -8.9243196  0.235309E-02  0.499E-01    1.60       1.0  T
   4     -8.9268886 -0.256900E-02  0.529E-02    1.73       1.0  T
   5     -8.9269088 -0.201553E-04  0.175E-02    1.72       2.6  T
   6     -8.9269100 -0.126123E-05  0.783E-03    1.72       5.7  T
   7     -8.9269102 -0.185932E-06  0.292E-03    1.72      15.3  T
   8     -8.9269103 -0.638578E-07  0.793E-04    1.72      56.4  T
   9     -8.9269103 -0.515653E-09  0.179E-04    1.72     249.4  T
     SCC iter.                  ...        0 min,  0.001 sec
     gradient                   ...        0 min,  0.001 sec
 * total energy  :    -8.7085809 Eh     change       -0.1129207E-03 Eh
   gradient norm :     0.0068084 Eh/α   predicted    -0.8369678E-04 ( -25.88%)
   displ. norm   :     0.0831123 α      lambda       -0.1689363E-03
   maximum displ.:     0.0588546 α      in ANC's #2, #7, #1, ...

........................................................................
.............................. CYCLE   16 ..............................
........................................................................
   1     -8.9285351 -0.892854E+01  0.333E-01    1.76       0.0  T
   2     -8.9281455  0.389567E-03  0.291E-01    1.81       1.0  T
   3     -8.9272757  0.869764E-03  0.370E-01    1.68       1.0  T
   4     -8.9284990 -0.122329E-02  0.108E-01    1.78       1.0  T
   5     -8.9285843 -0.852612E-04  0.146E-02    1.77       3.1  T
   6     -8.9285848 -0.538460E-06  0.933E-03    1.77       4.8  T
   7     -8.9285852 -0.386335E-06  0.241E-03    1.77      18.5  T
   8     -8.9285852 -0.246126E-07  0.106E-03    1.77      42.3  T
   9     -8.9285852 -0.355370E-08  0.212E-04    1.77     210.5  T
  10     -8.9285852 -0.374207E-10  0.148E-05    1.77    3016.2  T
     SCC iter.                  ...        0 min,  0.001 sec
     gradient                   ...        0 min,  0.001 sec
 * total energy  :    -8.7086946 Eh     change       -0.1136802E-03 Eh
   gradient norm :     0.0082872 Eh/α   predicted    -0.8505208E-04 ( -25.18%)
   displ. norm   :     0.1069258 α      lambda       -0.1830477E-03
   maximum displ.:     0.0763127 α      in ANC's #2, #1, #7, ...

........................................................................
.............................. CYCLE   17 ..............................
........................................................................
   1     -8.9271015 -0.892710E+01  0.401E-01    1.82       0.0  T
   2     -8.9268958  0.205736E-03  0.293E-01    1.86       1.0  T
   3     -8.9253153  0.158047E-02  0.444E-01    1.72       1.0  T
   4     -8.9266908 -0.137547E-02  0.224E-01    1.86       1.0  T
   5     -8.9271579 -0.467113E-03  0.249E-02    1.83       1.8  T
   6     -8.9271609 -0.300315E-05  0.114E-02    1.82       3.9  T
   7     -8.9271616 -0.677546E-06  0.239E-03    1.82      18.7  T
   8     -8.9271616 -0.146186E-07  0.103E-03    1.82      43.5  T
   9     -8.9271616 -0.252537E-08  0.132E-04    1.82     339.1  T
  10     -8.9271616 -0.351648E-10  0.160E-05    1.82    2792.6  T
     SCC iter.                  ...        0 min,  0.001 sec
     gradient                   ...        0 min,  0.001 sec
 * total energy  :    -8.7087529 Eh     change       -0.5832088E-04 Eh
   gradient norm :     0.0098525 Eh/α   predicted    -0.9257010E-04 (  58.73%)
   displ. norm   :     0.0320904 α      lambda       -0.1262696E-03
   maximum displ.:     0.0196816 α      in ANC's #1, #2, #6, ...

........................................................................
.............................. CYCLE   18 ..............................
........................................................................
   1     -8.9311690 -0.893117E+01  0.111E-01    1.82       0.0  T
   2     -8.9311496  0.194018E-04  0.843E-02    1.83       1.0  T
   3     -8.9309977  0.151935E-03  0.134E-01    1.79       1.0  T
   4     -8.9311511 -0.153440E-03  0.558E-02    1.83       1.0  T
   5     -8.9311731 -0.219431E-04  0.795E-03    1.82       5.6  T
   6     -8.9311734 -0.343046E-06  0.396E-03    1.82      11.3  T
   7     -8.9311734 -0.100268E-07  0.690E-04    1.82      64.8  T
   8     -8.9311734 -0.420222E-09  0.199E-04    1.82     224.2  T
     SCC iter.                  ...        0 min,  0.001 sec
     gradient                   ...        0 min,  0.001 sec
 * total energy  :    -8.7087970 Eh     change       -0.4407369E-04 Eh
   gradient norm :     0.0032635 Eh/α   predicted    -0.6320114E-04 (  43.40%)
   displ. norm   :     0.0111010 α      lambda       -0.1429503E-04
   maximum displ.:     0.0083090 α      in ANC's #2, #1, #3, ...

........................................................................
.............................. CYCLE   19 ..............................
........................................................................
   1     -8.9303965 -0.893040E+01  0.421E-02    1.83       0.0  T
   2     -8.9303958  0.635913E-06  0.291E-02    1.82       1.5  T
   3     -8.9303927  0.315737E-05  0.288E-02    1.82       1.6  T
   4     -8.9303951 -0.245247E-05  0.130E-02    1.83       3.4  T
   5     -8.9303970 -0.188925E-05  0.103E-03    1.83      43.4  T
   6     -8.9303970  0.170849E-08  0.706E-04    1.82      63.3  T
   7     -8.9303970 -0.260503E-08  0.716E-05    1.83     624.4  T
     SCC iter.                  ...        0 min,  0.001 sec
     gradient                   ...        0 min,  0.001 sec
 * total energy  :    -8.7088053 Eh     change       -0.8329371E-05 Eh
   gradient norm :     0.0010854 Eh/α   predicted    -0.7149521E-05 ( -14.16%)
   displ. norm   :     0.0145530 α      lambda       -0.2478351E-05
   maximum displ.:     0.0108168 α      in ANC's #2, #1, #3, ...

........................................................................
.............................. CYCLE   20 ..............................
........................................................................
   1     -8.9299473 -0.892995E+01  0.580E-02    1.83       0.0  T
   2     -8.9299356  0.117427E-04  0.499E-02    1.84       1.0  T
   3     -8.9299031  0.325237E-04  0.693E-02    1.82       1.0  T
   4     -8.9299485 -0.454920E-04  0.284E-03    1.83      15.7  T
   5     -8.9299486 -0.246745E-07  0.207E-03    1.83      21.6  T
   6     -8.9299486 -0.111593E-07  0.123E-03    1.83      36.4  T
   7     -8.9299486 -0.102366E-07  0.242E-04    1.83     185.0  T
   8     -8.9299486 -0.893952E-10  0.513E-05    1.83     870.9  T
     SCC iter.                  ...        0 min,  0.001 sec
     gradient                   ...        0 min,  0.001 sec
 * total energy  :    -8.7088069 Eh     change       -0.1576315E-05 Eh
   gradient norm :     0.0008920 Eh/α   predicted    -0.1238455E-05 ( -21.43%)
   displ. norm   :     0.0069254 α      lambda       -0.1086324E-05
   maximum displ.:     0.0054645 α      in ANC's #1, #7, #3, ...

   *** GEOMETRY OPTIMIZATION CONVERGED AFTER 20 ITERATIONS ***

------------------------------------------------------------------------
 total energy gain   :        -0.1520765 Eh      -95.4294 kcal/mol
 total RMSD          :         0.9571407 a0        0.5065 Å
 total power (kW/mol):       -19.9638392 (step)-5977.1015 (real)
------------------------------------------------------------------------

 ANCopt (total)                0 d,  0 h,  0 min,  0.067 sec
 optimizer setup                ...        0 min,  0.000 sec (  0.102%)
 model hessian                  ...        0 min,  0.000 sec (  0.139%)
 ANC generation                 ...        0 min,  0.000 sec (  0.084%)
 coordinate transformation      ...        0 min,  0.000 sec (  0.079%)
 single point calculation       ...        0 min,  0.065 sec ( 97.012%)
 optimization log               ...        0 min,  0.001 sec (  0.833%)
 hessian update                 ...        0 min,  0.000 sec (  0.072%)
 rational function              ...        0 min,  0.000 sec (  0.733%)

================
 final structure:
================
5
 xtb: 6.2.2 (9d81278992624c895f80dd42a50cac0aa55982e2)
C        -1.35549398471649    1.08844249343314    0.15535682306173
C        -0.47979483600098    0.16318313271096    0.02177686034118
C         0.91227344893073   -0.06825815494888   -0.01433365474804
C         2.04844731309617   -0.46052561470607   -0.06244685432312
H        -1.12543194130944   -0.72284185648915   -0.10035317433176

 Bond Distances (Angstroems)
 ---------------------------
C1-C2=1.2809         C2-C1=1.2809         C2-C3=1.4116         C2-H5=1.1031         C3-C2=1.4116         C3-C4=1.2029         
C4-C3=1.2029         H5-C2=1.1031         
 C  H  Rav=1.1031 sigma=0.0000  Rmin=1.1031  Rmax=1.1031     1
 C  C  Rav=1.2985 sigma=0.0861  Rmin=1.2029  Rmax=1.4116     3

 selected bond angles (degree)
 --------------------
C3-C2-C1=142.68                H5-C2-C1=101.05                H5-C2-C3=116.27                C4-C3-C2=170.36                

 selected dihedral angles (degree)
 ---------------------------------
C4-C3-C2-C1=177.10            C4-C3-C2-H5=357.24            
           -------------------------------------------------
          |                Final Singlepoint                |
           -------------------------------------------------

          ...................................................
          :                      SETUP                      :
          :.................................................:
          :  # basis functions                  17          :
          :  # atomic orbitals                  17          :
          :  # shells                            9          :
          :  # electrons                        17          :
          :  max. iterations                   250          :
          :  Hamiltonian                  GFN2-xTB          :
          :  restarted?                      false          :
          :  GBSA solvation                  false          :
          :  PC potential                    false          :
          :  electronic temp.          300.0000000     K    :
          :  accuracy                    1.0000000          :
          :  -> integral cutoff          0.2500000E+02      :
          :  -> integral neglect         0.1000000E-07      :
          :  -> SCF convergence          0.1000000E-05 Eh   :
          :  -> wf. convergence          0.1000000E-03 e    :
          :  Broyden damping             0.4000000          :
          ...................................................

 iter      E             dE          RMSdq      gap      omega  full diag
   1     -8.9299486 -0.892995E+01  0.233E-05    1.83       0.0  T
   2     -8.9299486  0.490097E-11  0.217E-05    1.83    2058.3  T
   3     -8.9299486  0.292921E-11  0.335E-05    1.83    1335.6  T

   *** convergence criteria satisfied after 3 iterations ***

         #    Occupation            Energy/Eh            Energy/eV
      -------------------------------------------------------------
         1        2.0000           -0.6716044             -18.2753
       ...           ...                  ...                  ...
         3        2.0000           -0.5896846             -16.0461
         4        2.0000           -0.5527597             -15.0414
         5        2.0000           -0.4903880             -13.3441
         6        2.0000           -0.4548234             -12.3764
         7        2.0000           -0.4344166             -11.8211
         8        2.0000           -0.4254621             -11.5774
         9        1.0000           -0.4022053             -10.9446 (HOMO)
        10                         -0.3348071              -9.1106 (LUMO)
        11                         -0.2626478              -7.1470
        12                         -0.1846309              -5.0241
        13                         -0.1208998              -3.2899
        14                          0.1455337               3.9602
       ...                                ...                  ...
        17                          1.2170974              33.1189
      -------------------------------------------------------------
                  HL-Gap            0.0673982 Eh            1.8340 eV
             Fermi-level           -0.3911699 Eh          -10.6443 eV

 SCC (total)                   0 d,  0 h,  0 min,  0.003 sec
 SCC setup                      ...        0 min,  0.000 sec (  2.844%)
 Dispersion                     ...        0 min,  0.000 sec (  0.465%)
 integral evaluation            ...        0 min,  0.001 sec ( 38.084%)
 zeroth order Hamiltonian       ...        0 min,  0.000 sec (  0.457%)
 iterations                     ...        0 min,  0.001 sec ( 18.636%)
 molecular gradient             ...        0 min,  0.001 sec ( 37.441%)
 printout                       ...        0 min,  0.000 sec (  1.735%)

         :::::::::::::::::::::::::::::::::::::::::::::::::::::
         ::                     SUMMARY                     ::
         :::::::::::::::::::::::::::::::::::::::::::::::::::::
         :: total energy              -8.708806881910 Eh    ::
         :: gradient norm              0.000898043471 Eh/a0 ::
         :: HOMO-LUMO gap              1.833997848797 eV    ::
         ::.................................................::
         :: SCC energy                -8.929948594710 Eh    ::
         :: -> isotropic ES           -0.007579342520 Eh    ::
         :: -> anisotropic ES          0.001306828731 Eh    ::
         :: -> anisotropic XC          0.010168194449 Eh    ::
         :: -> dispersion             -0.002237797647 Eh    ::
         :: repulsion energy           0.221141723426 Eh    ::
         :: add. restraining           0.000000000000 Eh    ::
         :::::::::::::::::::::::::::::::::::::::::::::::::::::

           ------------------------------------------------- 
          |                Numerical Hessian                |
           ------------------------------------------------- 
step length          :   0.00500
SCC accuracy         :   0.30000
Hessian scale factor :   1.00000
frozen atoms in %    :   0.00000    0
RMS gradient         :   0.00090
estimated CPU  time      0.00 min
estimated wall time      0.00 min

writing file <hessian>.

 projected vibrational frequencies (cm-1)
eigval :       -0.00    -0.00    -0.00    -0.00     0.00     0.00
eigval :      149.56   153.99   247.99   493.76   729.09   919.28
eigval :     1753.91  2162.49  2816.84
           -------------------------------------------------
          |                Property Printout                |
           -------------------------------------------------

    * Orbital Energies and Occupations

         #    Occupation            Energy/Eh            Energy/eV
      -------------------------------------------------------------
         1        2.0000           -0.6716044             -18.2753
         2        2.0000           -0.6401917             -17.4205
         3        2.0000           -0.5896844             -16.0461
         4        2.0000           -0.5527596             -15.0414
         5        2.0000           -0.4903878             -13.3441
         6        2.0000           -0.4548235             -12.3764
         7        2.0000           -0.4344165             -11.8211
         8        2.0000           -0.4254621             -11.5774
         9        1.0000           -0.4022052             -10.9446 (HOMO)
        10                         -0.3348076              -9.1106 (LUMO)
        11                         -0.2626480              -7.1470
        12                         -0.1846307              -5.0241
        13                         -0.1208996              -3.2898
        14                          0.1455339               3.9602
        15                          0.1895460               5.1578
        16                          0.7239925              19.7008
        17                          1.2170977              33.1189
      -------------------------------------------------------------
                  HL-Gap            0.0673976 Eh            1.8340 eV
             Fermi-level           -0.3911700 Eh          -10.6443 eV

     #   Z        covCN         q      C6AA      α(0)
     1   6 C      0.983    -0.119    39.740    10.590
     2   6 C      2.884     0.030    27.321     8.569
     3   6 C      1.963     0.000    31.067     9.001
     4   6 C      0.981    -0.088    38.682    10.447
     5   1 H      0.924     0.175     1.232     1.736

 Mol. C6AA /au·bohr⁶  :        596.840569
 Mol. C8AA /au·bohr⁸  :      16712.123434
 Mol. α(0) /au        :         40.342374


Wiberg/Mayer (AO) data.
largest (>0.10) Wiberg bond orders for each atom
          total WBO             WBO to atom ...
     1  C   2.601        C    2 2.089    C    4 0.267    H    5 0.178
     2  C   3.903        C    1 2.089    C    3 1.037    H    5 0.758
     3  C   3.876        C    4 2.762    C    2 1.037
     4  C   3.062        C    3 2.762    C    1 0.267
     5  H   0.959        C    2 0.758    C    1 0.178

MOs/occ written to file <molden.input>


molecular dipole:
                 x           y           z       tot (Debye)
 q only:       -0.436      -0.398      -0.056
   full:       -0.268      -0.635      -0.091       1.767
molecular quadrupole (traceless):
                xx          xy          yy          xz          yz          zz
 q only:       -1.149       2.131       0.400       0.298      -0.052       0.749
  q+dip:        0.434       2.783      -0.149       0.391       0.016      -0.285
   full:       -1.520       4.860       0.355       0.673      -0.120       1.165

           -------------------------------------------------
          |                Geometry Summary                 |
           -------------------------------------------------

      molecular mass/u    :       49.0508844
   center of mass at/Å    :        0.2524510       0.1621422       0.0225094
  moments of inertia/u·Å² :        0.3674957E+01   0.9642308E+02   0.1000973E+03
rotational constants/cm⁻¹ :        0.4587165E+01   0.1748299E+00   0.1684125E+00

 * 2 selected distances

     #   Z        #   Z                                     value/Å
     1   6 C      2   6 C                                 1.2809362 (max)
     3   6 C      4   6 C                                 1.2029463 (min)

 * 1 distinct bonds (by element types)

   Z      Z             #   av. dist./Å        max./Å        min./Å
   6 C    6 C           2     1.2419412     1.2809362     1.2029463
Molecule has the following symmetry elements: (sigma) 
It seems to be the Cs point group

           -------------------------------------------------
          |               Frequency Printout                |
           -------------------------------------------------
 projected vibrational frequencies (cm-1)
eigval :       -0.00    -0.00    -0.00    -0.00     0.00     0.00
eigval :      149.56   153.99   247.99   493.76   729.09   919.28
eigval :     1753.91  2162.49  2816.84
 reduced masses (amu)
   1:  6.28   2: 11.59   3: 11.94   4: 12.00   5: 11.89   6: 11.83   7: 11.37   8: 11.84
   9: 10.78  10:  6.96  11:  4.32  12: 10.60  13: 12.01  14: 11.99  15:  1.75
 IR intensities (amu)
   1:  0.21   2:  0.05   3:  0.09   4:  0.16   5:  0.04   6:  0.03   7:  0.10   8:  0.21
   9:  0.33  10:  0.19  11:  0.43  12:  0.19  13:  1.09  14:  1.16  15:  0.17
 Raman intensities (amu)
   1:  0.00   2:  0.00   3:  0.00   4:  0.00   5:  0.00   6:  0.00   7:  0.00   8:  0.00
   9:  0.00  10:  0.00  11:  0.00  12:  0.00  13:  0.00  14:  0.00  15:  0.00
 output can be read by thermo (or use thermo option).
 writing <g98.out> molden fake output.
 recommended (thermochemical) frequency scaling factor: 1.0
           -------------------------------------------------
          |             Thermodynamic Functions             |
           -------------------------------------------------

cs  symmetry found (for desy threshold:  0.10E+00) used in thermo

          ...................................................
          :                      SETUP                      :
          :.................................................:
          :  # frequencies                           9      :
          :  # imaginary freq.                       0      :
          :  linear?                             false      :
          :  only rotor calc.                    false      :
          :  symmetry                               cs      :
          :  rotational number                       1      :
          :  scaling factor                  1.0000000      :
          :  rotor cutoff                   50.0000000 cm⁻¹ :
          :  imag. cutoff                  -20.0000000 cm⁻¹ :
          :.................................................:

    mode    ω/cm⁻¹     T·S(HO)/kcal·mol⁻¹    T·S(FR)/kcal·mol⁻¹   T·S(vib)
   ------------------------------------------------------------------------
       1    149.56    -0.00000 ( 98.77%)     0.00920 (  1.23%)     0.00011
       2    153.99    -0.00000 ( 98.90%)     0.00949 (  1.10%)     0.00010
       3    247.99    -0.00000 ( 99.84%)     0.01422 (  0.16%)     0.00002
   ------------------------------------------------------------------------

   temp. (K)  partition function   enthalpy   heat capacity  entropy
                                   cal/mol     cal/K/mol   cal/K/mol   J/K/mol
 298.15  VIB   6.11                 1350.606      8.117      8.122
         ROT  0.144E+05              888.752      2.981     22.007
         INT  0.879E+05             2239.358     11.098     30.129
         TR   0.332E+27             1481.254      4.968     37.578
         TOT                        3720.6121    16.0663    67.7067   283.2850

   temp. (K)  partition function   enthalpy   heat capacity  entropy
                                   cal/mol     cal/K/mol   cal/K/mol   J/K/mol
 120.00  VIB   1.51                  210.269      4.252      2.578
         ROT  0.367E+04              357.707      2.981     19.294
         INT  0.553E+04              567.976      7.233     21.872
         TR   0.849E+26              596.178      4.968     33.058
         TOT                        1164.1537    12.2009    54.9301   229.8277

   temp. (K)  partition function   enthalpy   heat capacity  entropy
                                   cal/mol     cal/K/mol   cal/K/mol   J/K/mol
 100.00  VIB   1.31                  131.981      3.556      1.868
         ROT  0.279E+04              298.089      2.981     18.751
         INT  0.366E+04              430.070      6.537     20.618
         TR   0.646E+26              496.815      4.968     32.153
         TOT                         926.8854    11.5048    52.7714   220.7956

   temp. (K)  partition function   enthalpy   heat capacity  entropy
                                   cal/mol     cal/K/mol   cal/K/mol   J/K/mol
  80.00  VIB   1.16                   69.092      2.702      1.171
         ROT  0.200E+04              238.471      2.981     18.085
         INT  0.232E+04              307.564      5.683     19.256
         TR   0.462E+26              397.452      4.968     31.045
         TOT                         705.0157    10.6507    50.3011   210.4600

   temp. (K)  partition function   enthalpy   heat capacity  entropy
                                   cal/mol     cal/K/mol   cal/K/mol   J/K/mol
  60.00  VIB   1.06                   25.296      1.645      0.547
         ROT  0.130E+04              178.853      2.981     17.228
         INT  0.137E+04              204.149      4.626     17.775
         TR   0.300E+26              298.089      4.968     29.616
         TOT                         502.2384     9.5944    47.3915   198.2861

   temp. (K)  partition function   enthalpy   heat capacity  entropy
                                   cal/mol     cal/K/mol   cal/K/mol   J/K/mol
  40.00  VIB   1.01                    3.812      0.530      0.121
         ROT   707.                  119.236      2.981     16.019
         INT   713.                  123.048      3.511     16.141
         TR   0.163E+26              198.726      4.968     27.603
         TOT                         321.7740     8.4793    43.7437   183.0238

   temp. (K)  partition function   enthalpy   heat capacity  entropy
                                   cal/mol     cal/K/mol   cal/K/mol   J/K/mol
  20.00  VIB   1.00                    0.016      0.009     -0.006
         ROT   250.                   59.618      2.981     13.953
         INT   250.                   59.634      2.990     13.947
         TR   0.577E+25               99.363      4.968     24.161
         TOT                         158.9967     7.9577    38.1078   159.4431

   temp. (K)  partition function   enthalpy   heat capacity  entropy
                                   cal/mol     cal/K/mol   cal/K/mol   J/K/mol
  10.00  VIB   1.00                    0.000      0.000     -0.024
         ROT   88.4                   29.809      2.981     11.887
         INT   88.4                   29.809      2.981     11.862
         TR   0.204E+25               49.681      4.968     20.719
         TOT                          79.4904     7.9490    32.5815   136.3210

       T/K    H(0)-H(T)+PV         H(T)/Eh          T*S/Eh         G(T)/Eh
   ------------------------------------------------------------------------
    298.15    0.592917E-02    0.274053E-01    0.321697E-01   -0.476440E-02
    120.00    0.185520E-02    0.233313E-01    0.105044E-01    0.128269E-01
    100.00    0.147709E-02    0.229532E-01    0.840966E-02    0.145435E-01
     80.00    0.112351E-02    0.225996E-01    0.641280E-02    0.161868E-01
     60.00    0.800368E-03    0.222765E-01    0.453139E-02    0.177451E-01
     40.00    0.512779E-03    0.219889E-01    0.278840E-02    0.192005E-01
     20.00    0.253377E-03    0.217295E-01    0.121457E-02    0.205149E-01
     10.00    0.126676E-03    0.216028E-01    0.519219E-03    0.210835E-01 (used)
   ------------------------------------------------------------------------

         :::::::::::::::::::::::::::::::::::::::::::::::::::::
         ::                  THERMODYNAMIC                  ::
         :::::::::::::::::::::::::::::::::::::::::::::::::::::
         :: total free energy          -8.687723338601 Eh   ::
         ::.................................................::
         :: total energy               -8.708806882003 Eh   ::
         :: zero point energy           0.021476086580 Eh   ::
         :: G(RRHO) w/o ZPVE           -0.000392543178 Eh   ::
         :: G(RRHO) contrib.            0.021083543402 Eh   ::
         :::::::::::::::::::::::::::::::::::::::::::::::::::::

optimized geometry written to: xtbopt.xyz


           -------------------------------------------------
          | TOTAL ENERGY               -8.708806882003 Eh   |
          | TOTAL ENTHALPY             -8.687204119407 Eh   |
          | TOTAL FREE ENERGY          -8.687723338601 Eh   |
          | GRADIENT NORM               0.000898260470 Eh/α |
          | HOMO-LUMO GAP               1.833982914084 eV   |
           -------------------------------------------------

------------------------------------------------------------------------
 * finished run on 2020/05/12 at 11:45:09.133     
------------------------------------------------------------------------
 total:
 * wall-time:     0 d,  0 h,  0 min,  0.179 sec
 *  cpu-time:     0 d,  0 h,  0 min,  0.178 sec
 * ratio c/w:     0.998 speedup
 SCF:
 * wall-time:     0 d,  0 h,  0 min,  0.005 sec
 *  cpu-time:     0 d,  0 h,  0 min,  0.005 sec
 * ratio c/w:     1.000 speedup
 ANC optimizer:
 * wall-time:     0 d,  0 h,  0 min,  0.070 sec
 *  cpu-time:     0 d,  0 h,  0 min,  0.070 sec
 * ratio c/w:     0.999 speedup
 numerical hessian:
 * wall-time:     0 d,  0 h,  0 min,  0.086 sec
 *  cpu-time:     0 d,  0 h,  0 min,  0.086 sec
 * ratio c/w:     0.998 speedup

