 Entering Gaussian System
 *********************************************
 Gaussian 98:
 frequency output generated by the xtb code
 *********************************************
                         Standard orientation:
 --------------------------------------------------------------------
  Center     Atomic     Atomic              Coordinates (Angstroms)
  Number     Number      Type              X           Y           Z
 --------------------------------------------------------------------
    1          6             0       -1.355488    1.088450    0.155360
    2          6             0       -0.479794    0.163186    0.021778
    3          6             0        0.912273   -0.068263   -0.014337
    4          6             0        2.048445   -0.460536   -0.062453
    5          1             0       -1.125436   -0.722836   -0.100348
 --------------------------------------------------------------------
     1 basis functions        1 primitive gaussians
     1 alpha electrons        1 beta electrons

 Harmonic frequencies (cm**-1), IR intensities (KM/Mole),
 Raman scattering activities (A**4/amu), Raman depolarization ratios,
 reduced masses (AMU), force constants (mDyne/A) and normal coordinates:
                      1                      2                      3
                        a                      a                      a 
 Frequencies --   149.5647               153.9903               247.9858
 Red. masses --    11.3741                11.8419                10.7793
 Frc consts  --     0.0000                 0.0000                 0.0000
 IR Inten    --     0.0981                 0.2128                 0.3253
 Raman Activ --     0.0000                 0.0000                 0.0000
 Depolar     --     0.0000                 0.0000                 0.0000
 Atom AN      X      Y      Z        X      Y      Z        X      Y      Z
   1   6    -0.53  -0.32  -0.06     0.03   0.04  -0.18    -0.09   0.06   0.01
   2   6     0.33   0.51   0.07    -0.02  -0.02  -0.08     0.07   0.23   0.03
   3   6     0.18   0.09   0.06    -0.01  -0.11   0.81    -0.14  -0.76  -0.09
   4   6     0.04  -0.36  -0.08    -0.00   0.08  -0.52     0.23   0.40   0.05
   5   1    -0.07   0.23   0.03     0.01   0.00  -0.12    -0.24   0.23   0.03
                      4                      5                      6
                        a                      a                      a 
 Frequencies --   493.7582               729.0880               919.2821
 Red. masses --     6.9614                 4.3209                10.6020
 Frc consts  --     0.0000                 0.0000                 0.0000
 IR Inten    --     0.1918                 0.4313                 0.1882
 Raman Activ --     0.0000                 0.0000                 0.0000
 Depolar     --     0.0000                 0.0000                 0.0000
 Atom AN      X      Y      Z        X      Y      Z        X      Y      Z
   1   6    -0.00   0.04  -0.26     0.27  -0.20  -0.03     0.28  -0.26  -0.04
   2   6     0.00  -0.09   0.66     0.18  -0.22  -0.03     0.51   0.19   0.03
   3   6    -0.00   0.02  -0.14    -0.10   0.25   0.04    -0.41  -0.07  -0.00
   4   6     0.00   0.01  -0.07    -0.15   0.04   0.00    -0.48   0.16   0.02
   5   1     0.00   0.09  -0.67    -0.71   0.44   0.06     0.35  -0.09  -0.01
                      7                      8                      9
                        a                      a                      a 
 Frequencies --  1753.9109              2162.4916              2816.8408
 Red. masses --    12.0060                11.9906                 1.7504
 Frc consts  --     0.0000                 0.0000                 0.0000
 IR Inten    --     1.0939                 1.1555                 0.1683
 Raman Activ --     0.0000                 0.0000                 0.0000
 Depolar     --     0.0000                 0.0000                 0.0000
 Atom AN      X      Y      Z        X      Y      Z        X      Y      Z
   1   6     0.46  -0.47  -0.07    -0.03   0.02   0.00    -0.01  -0.01  -0.00
   2   6    -0.57   0.48   0.07    -0.05  -0.02  -0.00    -0.14  -0.21  -0.03
   3   6     0.06   0.01   0.00     0.72  -0.21  -0.03    -0.01  -0.00  -0.00
   4   6     0.06  -0.02  -0.00    -0.63   0.20   0.03     0.00  -0.00  -0.00
   5   1     0.01   0.02   0.00    -0.04   0.02   0.00     0.53   0.80   0.11
