5
 energy: -8.556730386557 gnorm: 0.301693484472 xtb: 6.2.2 (9d81278992624c895f80dd42a50cac0aa55982e2)
C        -0.89097900000000    1.29639000000000    0.19399100000000
C        -0.51042500000000   -0.08684100000000   -0.29986500000000
C         0.76271000000000   -0.55682000000000    0.38104300000000
C         1.97150600000000    0.13841200000000   -0.21678500000000
H        -1.33281200000000   -0.79114100000000   -0.05838400000000
5
 energy: -8.657008119854 gnorm: 0.198133322489 xtb: 6.2.2 (9d81278992624c895f80dd42a50cac0aa55982e2)
C        -0.85260549316855    1.24125861138729    0.16111057438370
C        -0.52184351330813   -0.06503119917757   -0.17678736171040
C         0.79619635328689   -0.45798184715118    0.30011307563798
C         1.91549507531132    0.08610181233034   -0.18079285082539
H        -1.33724242212153   -0.80434737738887   -0.10364343748589
5
 energy: -8.639938960427 gnorm: 0.591654031880 xtb: 6.2.2 (9d81278992624c895f80dd42a50cac0aa55982e2)
C        -0.84988321687864    1.17233111678935    0.12410404551000
C        -0.53898532526827   -0.00949907196679   -0.05489337530970
C         0.86018117030779   -0.33940090955264    0.18955949441541
C         1.83065020635016   -0.01496847796383   -0.12203435295733
H        -1.30196283451104   -0.80846265730609   -0.13673581165839
5
 energy: -8.692671047848 gnorm: 0.125209663162 xtb: 6.2.2 (9d81278992624c895f80dd42a50cac0aa55982e2)
C        -0.89291762839491    1.19885567575941    0.14015658683098
C        -0.58064868635325   -0.01230494905147   -0.05149210318378
C         0.79690012185875   -0.31848519255386    0.18825607267595
C         1.98141008175372   -0.02922534160523   -0.14008533090432
H        -1.30474388886432   -0.83884019254885   -0.13683522541884
5
 energy: -8.694274733328 gnorm: 0.076120380391 xtb: 6.2.2 (9d81278992624c895f80dd42a50cac0aa55982e2)
C        -0.93101094521131    1.28008640359123    0.13244235263996
C        -0.58328057920062   -0.02300130241314    0.02090372354771
C         0.83098971269682   -0.32998066559555    0.18569102191690
C         1.98226829651986   -0.05210262409227   -0.15367003049589
H        -1.29896648480474   -0.87500181149026   -0.18536706760868
5
 energy: -8.701012549193 gnorm: 0.061397921648 xtb: 6.2.2 (9d81278992624c895f80dd42a50cac0aa55982e2)
C        -0.99400736872918    1.24324683665929    0.15995703925313
C        -0.58401130994946    0.00598158166949   -0.00695707354398
C         0.81438512208096   -0.24410140612170    0.17842574112016
C         2.00274159555269   -0.14422496724384   -0.15375529611524
H        -1.23910803895502   -0.86090204496325   -0.17767041071407
5
 energy: -8.699831527649 gnorm: 0.050609774055 xtb: 6.2.2 (9d81278992624c895f80dd42a50cac0aa55982e2)
C        -0.97343358561726    1.21579825553309    0.14316985128393
C        -0.59094794841280   -0.00320818451483   -0.04090021569809
C         0.80389576348729   -0.27249839738847    0.10610816001305
C         1.97610506000008   -0.11697676045587   -0.09524036623852
H        -1.21561928945731   -0.82311491317392   -0.11313742936038
5
 energy: -8.704191242853 gnorm: 0.028309584341 xtb: 6.2.2 (9d81278992624c895f80dd42a50cac0aa55982e2)
C        -1.05119875395596    1.22829476274155    0.15655163423299
C        -0.58632818921362    0.03959295406886    0.00550341812846
C         0.81964737029045   -0.20877161455233    0.12780496858156
C         2.00358467629377   -0.20901092782388   -0.12783804116298
H        -1.18570510341464   -0.85010517443420   -0.16202197978003
5
 energy: -8.704869043004 gnorm: 0.059009193787 xtb: 6.2.2 (9d81278992624c895f80dd42a50cac0aa55982e2)
C        -1.15523280555693    1.22684248598774    0.17680480589367
C        -0.55785949317015    0.07281980416991    0.02440785302437
C         0.83721622373782   -0.15571051513580    0.15811766999277
C         2.01266720398064   -0.30659195057419   -0.16260010390879
H        -1.13679112899139   -0.83735982444767   -0.19673022500202
5
 energy: -8.706133255436 gnorm: 0.017219947041 xtb: 6.2.2 (9d81278992624c895f80dd42a50cac0aa55982e2)
C        -1.15785935458548    1.21813377428565    0.16727345348681
C        -0.55496847684286    0.07495510941034    0.02317822229482
C         0.84582335946578   -0.17152867672031    0.13748703345039
C         2.00893567625653   -0.29740991219708   -0.14702450379007
H        -1.14193120429398   -0.82415029477860   -0.18091420544194
5
 energy: -8.707197767637 gnorm: 0.016912903213 xtb: 6.2.2 (9d81278992624c895f80dd42a50cac0aa55982e2)
C        -1.21449250314143    1.19024160603217    0.16730217135386
C        -0.55263171681939    0.09810365112107    0.02318457984553
C         0.86436861469357   -0.13913015288378    0.10259850280654
C         2.02785826186406   -0.34863009834353   -0.12784153713384
H        -1.12510265659681   -0.80058500592594   -0.16524371687208
5
 energy: -8.707923156544 gnorm: 0.026380387620 xtb: 6.2.2 (9d81278992624c895f80dd42a50cac0aa55982e2)
C        -1.31338827480733    1.15345491108478    0.17417505406010
C        -0.51774794735922    0.14183619116693    0.02611271197196
C         0.88716254936051   -0.09486829344448    0.08808587744233
C         2.02715841869885   -0.43628872892246   -0.12732362698489
H        -1.08318474589281   -0.76413407988477   -0.16105001648949
5
 energy: -8.708185554579 gnorm: 0.012972704699 xtb: 6.2.2 (9d81278992624c895f80dd42a50cac0aa55982e2)
C        -1.29853048570815    1.13506245149609    0.17705861982690
C        -0.50806696341174    0.14499598447221    0.01999403652905
C         0.88375629053355   -0.08072221001123    0.09526946219071
C         2.00984137736695   -0.43725003463010   -0.12993757026920
H        -1.08700021878062   -0.76208619132696   -0.16238454827746
5
 energy: -8.708467980985 gnorm: 0.006089736160 xtb: 6.2.2 (9d81278992624c895f80dd42a50cac0aa55982e2)
C        -1.32457433551038    1.12715963544752    0.17287518961321
C        -0.50475139916234    0.15309752399405    0.02570959764609
C         0.89611123892484   -0.07590702221616    0.07496095739298
C         2.02245011278537   -0.45258690234154   -0.11911437099015
H        -1.08923561703750   -0.75176323488387   -0.15443137366214
5
 energy: -8.708580901678 gnorm: 0.007014245461 xtb: 6.2.2 (9d81278992624c895f80dd42a50cac0aa55982e2)
C        -1.34557032044323    1.11348742201405    0.16965670255123
C        -0.49710754130362    0.16142980561948    0.02690621226577
C         0.90510306780763   -0.06694394991984    0.05297667319238
C         2.03012432113536   -0.46735530017693   -0.10637423924131
H        -1.09254952719614   -0.74061797753677   -0.14316534876807
5
 energy: -8.708694581886 gnorm: 0.008544145241 xtb: 6.2.2 (9d81278992624c895f80dd42a50cac0aa55982e2)
C        -1.35501089190085    1.10139653290796    0.16389427174618
C        -0.48964213187016    0.16386667262107    0.02646475584675
C         0.91215210668935   -0.06578580560859    0.02688664721789
C         2.03857440552777   -0.46857548219159   -0.08968243749768
H        -1.10607348844611   -0.73090191772886   -0.12756323731313
5
 energy: -8.708752902764 gnorm: 0.010245658038 xtb: 6.2.2 (9d81278992624c895f80dd42a50cac0aa55982e2)
C        -1.36073899904677    1.08624986868781    0.15861932268941
C        -0.48189378699026    0.16655172632390    0.02152991569741
C         0.91507382691089   -0.05830519019666   -0.00941389412865
C         2.04795018186655   -0.47108498395528   -0.06579260024560
H        -1.12039122274042   -0.72341142085978   -0.10494274401257
5
 energy: -8.708796976451 gnorm: 0.003369197943 xtb: 6.2.2 (9d81278992624c895f80dd42a50cac0aa55982e2)
C        -1.35313415248656    1.08843991271621    0.15806467514363
C        -0.47900527138150    0.16260987757984    0.02003054960511
C         0.91184276654903   -0.06546715741538   -0.00536090943057
C         2.04465100642007   -0.46159194422088   -0.06781736565488
H        -1.12435434910104   -0.72399068865978   -0.10491694966328
5
 energy: -8.708805305821 gnorm: 0.001114049692 xtb: 6.2.2 (9d81278992624c895f80dd42a50cac0aa55982e2)
C        -1.35403363007709    1.08910041343369    0.15687995463472
C        -0.48047504548458    0.16281274033086    0.02115356039259
C         0.91229294893144   -0.06664585148487   -0.00913657300314
C         2.04682730072288   -0.46122063144760   -0.06554975787977
H        -1.12461157409265   -0.72404667083209   -0.10334718414439
5
 energy: -8.708806882136 gnorm: 0.000898064702 xtb: 6.2.2 (9d81278992624c895f80dd42a50cac0aa55982e2)
C        -1.35549398471649    1.08844249343314    0.15535682306173
C        -0.47979483600098    0.16318313271096    0.02177686034118
C         0.91227344893073   -0.06825815494888   -0.01433365474804
C         2.04844731309617   -0.46052561470607   -0.06244685432312
H        -1.12543194130944   -0.72284185648915   -0.10035317433176
