$hessian                                                                        
        0.3436257671  -0.3407649297  -0.0492805547  -0.2924019778   0.3134761030
        0.0455135312  -0.0549749698   0.0280838848   0.0037364185   0.0085387148
       -0.0026557866  -0.0001838052  -0.0047875343   0.0018607286   0.0002144101
       -0.3407649297   0.3489932928   0.0493368732   0.3204344778  -0.3141501680
       -0.0430707364   0.0331639244  -0.0198958165  -0.0028785121  -0.0032137884
        0.0035323963  -0.0000781914  -0.0096196840  -0.0184797046  -0.0033094332
       -0.0492805547   0.0493368732   0.0154148716   0.0462890813  -0.0427082547
       -0.0258771835   0.0046409280  -0.0032681551   0.0020523774  -0.0003478253
        0.0000889698   0.0029960666  -0.0013016293  -0.0034494332   0.0054138680
       -0.2924019778   0.3204344778   0.0462890813   0.6444992652  -0.2383948730
       -0.0359619575  -0.2053711460   0.0147629377   0.0034900099  -0.0771738190
        0.0265590907   0.0031847269  -0.0695523223  -0.1233616332  -0.0170018606
        0.3134761030  -0.3141501680  -0.0427082547  -0.2383948730   0.5147396322
        0.0665494486  -0.0121622951  -0.0067708178   0.0001438290   0.0360285036
       -0.0103187417  -0.0005426017  -0.0989474385  -0.1834999046  -0.0234424211
        0.0455135312  -0.0430707364  -0.0258771835  -0.0359619575   0.0665494486
        0.0590503297  -0.0001840779   0.0004463099  -0.0108832654   0.0043587508
       -0.0006891644  -0.0045704121  -0.0137262465  -0.0232358577  -0.0177194688
       -0.0549749698   0.0331639244   0.0046409280  -0.2053711460  -0.0121622951
       -0.0001840779   1.1666506426  -0.3051198821  -0.0396642556  -0.8751686131
        0.2803478132   0.0346745113  -0.0311359137   0.0037704396   0.0005328943
        0.0280838848  -0.0198958165  -0.0032681551   0.0147629377  -0.0067708178
        0.0004463099  -0.3051198821   0.1231252941   0.0145897405   0.2723204755
       -0.0993876526  -0.0118812478  -0.0100474159   0.0029289928   0.0001133525
        0.0037364185  -0.0028785121   0.0020523774   0.0034900099   0.0001438290
       -0.0108832654  -0.0396642556   0.0145897405   0.0112173606   0.0338236871
       -0.0118832390  -0.0050748753  -0.0013858599   0.0000281816   0.0026884027
        0.0085387148  -0.0032137884  -0.0003478253  -0.0771738190   0.0360285036
        0.0043587508  -0.8751686131   0.2723204755   0.0338236871   0.9380599011
       -0.3020376515  -0.0374259057   0.0057438161  -0.0030975392  -0.0004087068
       -0.0026557866   0.0035323963   0.0000889698   0.0265590907  -0.0103187417
       -0.0006891644   0.2803478132  -0.0993876526  -0.0118832390  -0.3020376515
        0.1049199142   0.0125751041  -0.0022134658   0.0012540838  -0.0000916705
       -0.0001838052  -0.0000781914   0.0029960666   0.0031847269  -0.0005426017
       -0.0045704121   0.0346745113  -0.0118812478  -0.0050748753  -0.0374259057
        0.0125751041   0.0050056420  -0.0002495273  -0.0000730632   0.0016435788
       -0.0047875343  -0.0096196840  -0.0013016293  -0.0695523223  -0.0989474385
       -0.0137262465  -0.0311359137  -0.0100474159  -0.0013858599   0.0057438161
       -0.0022134658  -0.0002495273   0.0997319542   0.1208280042   0.0166632630
        0.0018607286  -0.0184797046  -0.0034494332  -0.1233616332  -0.1834999046
       -0.0232358577   0.0037704396   0.0029289928   0.0000281816  -0.0030975392
        0.0012540838  -0.0000730632   0.1208280042   0.1977965327   0.0267301723
        0.0002144101  -0.0033094332   0.0054138680  -0.0170018606  -0.0234424211
       -0.0177194688   0.0005328943   0.0001133525   0.0026884027  -0.0004087068
       -0.0000916705   0.0016435788   0.0166632630   0.0267301723   0.0079736193
