[Molden Format]
[Title]
[Atoms] AU
C      1     6 -0.25615003625169E+01  0.20568719485649E+01  0.29358717140762E+00
C      2     6 -0.90667899363591E+00  0.30837621955968E+00  0.41154924783893E-01
C      3     6  0.17239460393294E+01 -0.12899828049515E+00 -0.27092471906388E-01
C      4     6  0.38709990746215E+01 -0.87028767890231E+00 -0.11801943451586E+00
H      5     1 -0.21267657577981E+01 -0.13659622087271E+01 -0.18963018976926E+00
[GTO]
           1 0
 s           4   1.0000000000000000     
   51.049363095579913      -0.16312063210127389     
   8.7911227406887544      -0.19911024581000730     
  0.70640422258929825       0.31882047753655751     
  0.26922813413411617       0.12706504184240380     
 p           4   1.0000000000000000     
   5.8263656140800002       0.73716451545209605     
   1.5106896018720002       0.68216371614850257     
  0.53256483288000001       0.35783053929253711     
  0.21202323690600003        5.3983030275847881E-002

           2 0
 s           4   1.0000000000000000     
   51.049363095579913      -0.16312063210127389     
   8.7911227406887544      -0.19911024581000730     
  0.70640422258929825       0.31882047753655751     
  0.26922813413411617       0.12706504184240380     
 p           4   1.0000000000000000     
   5.8263656140800002       0.73716451545209605     
   1.5106896018720002       0.68216371614850257     
  0.53256483288000001       0.35783053929253711     
  0.21202323690600003        5.3983030275847881E-002

           3 0
 s           4   1.0000000000000000     
   51.049363095579913      -0.16312063210127389     
   8.7911227406887544      -0.19911024581000730     
  0.70640422258929825       0.31882047753655751     
  0.26922813413411617       0.12706504184240380     
 p           4   1.0000000000000000     
   5.8263656140800002       0.73716451545209605     
   1.5106896018720002       0.68216371614850257     
  0.53256483288000001       0.35783053929253711     
  0.21202323690600003        5.3983030275847881E-002

           4 0
 s           4   1.0000000000000000     
   51.049363095579913      -0.16312063210127389     
   8.7911227406887544      -0.19911024581000730     
  0.70640422258929825       0.31882047753655751     
  0.26922813413411617       0.12706504184240380     
 p           4   1.0000000000000000     
   5.8263656140800002       0.73716451545209605     
   1.5106896018720002       0.68216371614850257     
  0.53256483288000001       0.35783053929253711     
  0.21202323690600003        5.3983030275847881E-002

           5 0
 s           3   1.0000000000000000     
   3.3702276975336001       0.27359110588908298     
  0.61389118221497996       0.26460540653860526     
  0.16614291148415999        8.2465947534082318E-002

[MO]
Sym=     1a
Ene=  -0.67160442802566722     
Spin= Alpha
Occup=     2.00000000
           1 -0.45922480758347783     
           2 -0.10507571961764284     
           3  0.12699421009245515     
           4   1.8327915976719643E-002
           5 -0.49776762366533650     
           6   8.4810887009374100E-002
           7  -9.0494937045624155E-002
           8  -1.3098496971083831E-002
           9 -0.16833371275937761     
          10   9.3963826647029097E-002
          11  -1.8522226404276247E-002
          12  -3.0288007888024057E-003
          13  -3.3832526039920131E-002
          14   3.4289270549801798E-002
          15  -9.1263933553061543E-003
          16  -1.2254629419069479E-003
          17 -0.17066929833829178     
Sym=     2a
Ene=  -0.64019167417646128     
Spin= Alpha
Occup=     2.00000000
           1  0.20200875574575430     
           2   1.2298610818777271E-003
           3  -3.0661826683593293E-002
           4  -4.4475991659443277E-003
           5  -4.6042881571560453E-002
           6 -0.20847320554299725     
           7   8.9816954660622408E-002
           8   1.2925393974798152E-002
           9 -0.52135345806812339     
          10 -0.10318272151201817     
          11   6.1900040029500857E-002
          12   7.4355215692334959E-003
          13 -0.41918237428604616     
          14  0.18655406349712433     
          15  -5.3014658866661173E-002
          16  -6.5334214971769023E-003
          17  -1.6321783691833030E-003
Sym=     3a
Ene=  -0.58968440689251755     
Spin= Alpha
Occup=     2.00000000
           1 -0.40808511418632065     
           2   2.5862906119850336E-002
           3  -1.9503779265243770E-002
           4  -2.8287664631666660E-003
           5  0.23911660601215892     
           6  0.27287245083589173     
           7 -0.24242087134413898     
           8  -3.5304973073980152E-002
           9   7.9203199494957133E-002
          10 -0.37708156569526363     
          11   4.2074105393020873E-002
          12   5.3455766835830143E-003
          13 -0.35980820219764981     
          14   3.2732382492202367E-002
          15  -3.1790211613180838E-002
          16  -3.8000493660467283E-003
          17  0.14394629872047104     
Sym=     4a
Ene=  -0.55275959725418877     
Spin= Alpha
Occup=     2.00000000
           1  0.16350718299695116     
           2  0.17566348288938147     
           3  0.18110876901156561     
           4   2.4804927579390013E-002
           5   5.1533226422757830E-003
           6  0.32090108494812586     
           7  0.39703698853788594     
           8   5.4638748661633478E-002
           9  0.14958963842227752     
          10 -0.13555062847276544     
          11  0.20861316429394119     
          12   2.8906165918569943E-002
          13 -0.15578109103080023     
          14  -4.9563146645814123E-003
          15   6.4042814674828974E-002
          16   9.0947493752967998E-003
          17 -0.41681478944015427     
Sym=     5a
Ene=  -0.49038782501476119     
Spin= Alpha
Occup=     2.00000000
           1  -4.4750586037837369E-004
           2   1.6875906883553340E-003
           3  -5.2570583284557298E-002
           4  0.37344282705224108     
           5   2.1925021940774051E-005
           6   2.0753922236079422E-003
           7  -7.7788578979540501E-002
           8  0.55408529542331530     
           9  -2.2110498849839859E-003
          10  -8.7676424556673354E-004
          11  -6.1891538214679777E-002
          12  0.44538242262470995     
          13   4.4920450733671249E-004
          14  -6.6611523766727692E-004
          15  -3.7584954083412309E-002
          16  0.27031900378740598     
          17  -2.1802832174360208E-004
Sym=     6a
Ene=  -0.45482348972242331     
Spin= Alpha
Occup=     2.00000000
           1 -0.49414898162700666     
           2  0.33747032616359091     
           3 -0.34230857520783292     
           4  -5.0510094084799270E-002
           5  0.14185946371050204     
           6 -0.10524139958122808     
           7  0.12466712849451367     
           8   1.6849736602089133E-002
           9  -9.7992624727659586E-002
          10  0.18903629898807917     
          11  0.38463841578022256     
          12   5.4531020810966620E-002
          13  0.16079742672033792     
          14  0.22384960787789479     
          15  0.30824287619689933     
          16   4.4007115933639401E-002
          17   3.9123348135870262E-002
Sym=     7a
Ene=  -0.43441653020318455     
Spin= Alpha
Occup=     2.00000000
           1  0.24173282508094407     
           2 -0.41324061617543084     
           3   9.7101391962212902E-002
           4   2.1383741073920930E-002
           5 -0.13249160434637816     
           6  -2.0147924199119996E-002
           7 -0.17201123638658428     
           8  -1.9555989400137735E-002
           9  0.17999020454616213     
          10  0.11103230809353927     
          11  0.39909097990331044     
          12   5.0691594790271827E-002
          13 -0.31032518811842458     
          14 -0.11289243691946760     
          15  0.51528756331094838     
          16   6.5134817262804651E-002
          17  0.15482080368766399     
Sym=     8a
Ene=  -0.42546207271909120     
Spin= Alpha
Occup=     1.99999517
           1   5.0309810327923950E-003
           2  -9.0059790190185635E-003
           3   7.4134682854971018E-002
           4 -0.49823099776892221     
           5  -1.4750549216990389E-003
           6   2.2667981871010622E-004
           7   4.2405719270053155E-002
           8 -0.32492448612315211     
           9  -2.9108147868583598E-004
          10  -7.2427588080311515E-004
          11  -5.6259384311134704E-002
          12  0.44302125708017570     
          13   7.5755201155305971E-004
          14  -2.1509571155953102E-004
          15  -6.8588365379925992E-002
          16  0.53751570283653938     
          17   2.2275180611609473E-003
Sym=     9a
Ene=  -0.40220520147737343     
Spin= Alpha
Occup=     1.00000483
           1 -0.19413290292868979     
           2  0.17053168964703702     
           3 -0.30881456393451356     
           4  -4.8225810449999233E-002
           5  -6.3381259190896780E-002
           6 -0.19759010329225654     
           7  0.14131796974883587     
           8   1.9056303392883046E-002
           9  0.10420422531978092     
          10  0.14588709306739725     
          11 -0.17620532374306791     
          12  -2.0661476204632951E-002
          13 -0.53067392300494809     
          14 -0.63292478839723021     
          15   1.0935614576631756E-002
          16   3.1302176256619175E-003
          17 -0.10649622217036017     
Sym=    10a
Ene=  -0.33480756954079882     
Spin= Alpha
Occup=     0.00000000
           1   1.1642314915138972E-002
           2 -0.60774017998821006     
           3 -0.69871169379359266     
           4  -9.5324304647363481E-002
           5   1.9151451411527780E-002
           6   8.2661698612499238E-002
           7  0.13119854712654946     
           8   1.7990137629459647E-002
           9  0.12014210386889256     
          10 -0.16264871969129224     
          11   5.4049351894415523E-002
          12   6.6230511711000712E-003
          13   9.9178268873582193E-002
          14  0.11602065776600254     
          15 -0.16199823684235876     
          16  -2.1139740072884154E-002
          17 -0.35920491696800017     
Sym=    11a
Ene=  -0.26264799085686125     
Spin= Alpha
Occup=     0.00000000
           1  -7.4512084222197041E-005
           2   3.9047094832436362E-003
           3 -0.10056652435900336     
           4  0.71787165540984976     
           5  -8.1087854737897484E-004
           6  -3.0898076941560213E-003
           7   7.8854087569514994E-002
           8 -0.56018490810402999     
           9   1.1765321751554662E-003
          10   5.5088476989940244E-004
          11   3.9720872247073387E-002
          12 -0.28376585754591643     
          13   4.2147600915372959E-004
          14  -3.1559918852940203E-003
          15  -7.6043587691595166E-002
          16  0.54832596458116600     
          17   6.5077325635494899E-004
Sym=    12a
Ene=  -0.18463068329208671     
Spin= Alpha
Occup=     0.00000000
           1   6.8398852257525247E-002
           2   5.5755392124742682E-002
           3 -0.10168284565326684     
           4  -1.3467740008117592E-002
           5   9.2364808982482449E-002
           6   1.6965478849351217E-002
           7  -6.2804331583283593E-002
           8  -1.0173488481271779E-002
           9  -6.8476593860806345E-002
          10 -0.19558705065968995     
          11 -0.74981084215132321     
          12 -0.10381316977373208     
          13  -5.3822876977410328E-003
          14  0.23305837563390305     
          15  0.77256035189280348     
          16  0.10719640497073474     
          17 -0.30718402231877101     
Sym=    13a
Ene=  -0.12089955375694067     
Spin= Alpha
Occup=     0.00000000
           1   3.3182816465385316E-004
           2   1.1549738028969773E-003
           3   5.1604498680208194E-002
           4 -0.36907125819095837     
           5  -3.5943266138247732E-003
           6  -8.0440716526627889E-004
           7  -8.3419360637610185E-002
           8  0.59300549756675414     
           9   5.8422829463388466E-003
          10  -7.8218067325878352E-004
          11  0.10866934805845276     
          12 -0.79104978963052586     
          13  -6.3472151164032360E-005
          14   5.0127126501762955E-004
          15  -8.6809457173249782E-002
          16  0.63276327023521739     
          17   6.1395173141497097E-004
Sym=    14a
Ene=   0.14553389306334505     
Spin= Alpha
Occup=     0.00000000
           1   4.1984754189472388E-002
           2  0.17155573605748928     
           3 -0.17921307909600565     
           4  -2.4858997737620372E-002
           5 -0.99594244830232548     
           6  -8.8985252323375216E-002
           7  0.49268955758095906     
           8   6.6992646208127477E-002
           9  0.63723342766323254     
          10 -0.36736198975998713     
          11 -0.15360163200931956     
          12  -1.5657179518276772E-002
          13 -0.11837734997076373     
          14  0.33299830867505237     
          15   2.0693032627956510E-002
          16   1.0482463488060620E-003
          17  0.74129860353916999     
Sym=    15a
Ene=   0.18954599661974869     
Spin= Alpha
Occup=     0.00000000
           1 -0.22373717815215405     
           2 -0.40460984596857752     
           3   3.6755243886243127E-002
           4   5.9734514921818051E-003
           5  0.19043262525432927     
           6  0.69154903109483945     
           7  0.75105939150757062     
           8  0.10511409083561563     
           9 -0.65004780473830481     
          10  0.22834826018720070     
          11 -0.22677927568334244     
          12  -3.6477563185004086E-002
          13  0.11360176015778151     
          14 -0.24848786102042508     
          15  0.15658920508545734     
          16   2.3101663040125790E-002
          17  0.74442456168417515     
Sym=    16a
Ene=   0.72399245915283528     
Spin= Alpha
Occup=     0.00000000
           1  0.80313323591455199     
           2  0.60078361313129580     
           3 -0.69085382743790680     
           4  -9.9755860161800325E-002
           5 -0.67550346868207434     
           6  0.88664237790799783     
           7 -0.66915997870425714     
           8  -9.6735361557051189E-002
           9 -0.54215336433484584     
          10   4.5643386651456112E-002
          11  0.16336750637030656     
          12   2.0497553958751861E-002
          13  0.20814610589855675     
          14 -0.28063453793961041     
          15   4.2049450427660735E-002
          16   4.9343121531398469E-003
          17   9.9479344184530152E-002
Sym=    17a
Ene=    1.2170977409322274     
Spin= Alpha
Occup=     0.00000000
           1  0.18524773563134683     
           2   6.5646667449776708E-002
           3 -0.16037728787639641     
           4  -2.2582156261998498E-002
           5  0.27675823052993631     
           6  0.58758580698045493     
           7 -0.13183463937798243     
           8  -2.1785683836750849E-002
           9  0.57941393255650475     
          10   1.3247708104815268     
          11 -0.37173730694632234     
          12  -4.7513871170481788E-002
          13 -0.98438706127921549     
          14  0.91688356777878555     
          15 -0.34156600214596794     
          16  -4.1380797816754564E-002
          17   5.3233513560523249E-002
