      -----------------------------------------------------------      
     |                   =====================                   |     
     |                           x T B                           |     
     |                   =====================                   |     
     |                         S. Grimme                         |     
     |          Mulliken Center for Theoretical Chemistry        |     
     |                    University of Bonn                     |     
      -----------------------------------------------------------      

   * xtb version 6.2.2 (9d81278992624c895f80dd42a50cac0aa55982e2) compiled by '@Darwin' on 04/03/2020

   xtb is free software: you can redistribute it and/or modify it under
   the terms of the GNU Lesser General Public License as published by
   the Free Software Foundation, either version 3 of the License, or
   (at your option) any later version.
   
   xtb is distributed in the hope that it will be useful,
   but WITHOUT ANY WARRANTY; without even the implied warranty of
   MERCHANTABILITY or FITNESS FOR A PARTICULAR PURPOSE.  See the
   GNU Lesser General Public License for more details.
   
   Cite this work as:
   * S. Grimme, C. Bannwarth, P. Shushkov, J. Chem. Theory Comput., 2017,
     13, 1989-2009. DOI: 10.1021/acs.jctc.7b00118
   * C. Bannwarth, S. Ehlert and S. Grimme., J. Chem. Theory Comput., 2019,
     15, 1652-1671. DOI: 10.1021/acs.jctc.8b01176
   * P. Pracht, E. Caldeweyher, S. Ehlert, S. Grimme, ChemRxiv, 2019, preprint.
     DOI: 10.26434/chemrxiv.8326202.v1
   
   for DFT-D4:
   * E. Caldeweyher, C. Bannwarth and S. Grimme, J. Chem. Phys., 2017,
     147, 034112. DOI: 10.1063/1.4993215
   * E. Caldeweyher, S. Ehlert, A. Hansen, H. Neugebauer, S. Spicher,
     C. Bannwarth and S. Grimme, J. Chem. Phys., 2019, 150, 154122.
     DOI: 10.1063/1.5090222
   
   for sTDA-xTB:
   * S. Grimme and C. Bannwarth, J. Chem. Phys., 2016, 145, 054103.
     DOI: 10.1063/1.4959605
   
   in the mass-spec context:
   * V. Asgeirsson, C. Bauer and S. Grimme, Chem. Sci., 2017, 8, 4879.
     DOI: 10.1039/c7sc00601b
   
   for metadynamics refer to:
   * S. Grimme, J. Chem. Theory Comput., 2019, 155, 2847-2862
     DOI: 10.1021/acs.jctc.9b00143
   
   with help from (in alphabetical order)
   C. Bannwarth, F. Bohle, G. Brandenburg, E. Caldeweyher, M. Checinski,
   S. Dohm, S. Ehlert, S. Ehrlich, F. März, H. Neugebauer, J. Pisarek,
   P. Pracht, P. Shushkov, and S. Spicher.
   
 * started run on 2020/05/12 at 11:44:12.480     

           -------------------------------------------------
          |                Calculation Setup                |
           -------------------------------------------------

          program call               : xtb --input C4N1_32_S_3.input C4N1_32_S_3.xyz --ohess --molden --namespace C4N1_32_S_3 output.out
          calculation namespace      : C4N1_32_S_3
          coordinate file            : C4N1_32_S_3.xyz
          number of atoms            :                     5
          number of electrons        :                    21
          charge                     :                     0
          spin                       :                   1.5
          first test random number   :      0.85274943243642

   ID    Z sym.   atoms
    1    6 C      1-3, 5
    2    7 N      4

           -------------------------------------------------
          |                 G F N 2 - x T B                 |
           -------------------------------------------------

        Reference                      10.1021/acs.jctc.8b01176
      * Hamiltonian:
        H0-scaling (s, p, d)           1.850000    2.230000    2.230000
        zeta-weighting                 0.500000
      * Dispersion:
        s8                             2.700000
        a1                             0.520000
        a2                             5.000000
        s9                             5.000000
      * Repulsion:
        kExp                           1.500000    1.000000
        rExp                           1.000000
      * Coulomb:
        alpha                          2.000000
        third order                    shell-resolved
        anisotropic                    true
        a3                             3.000000
        a5                             4.000000
        cn-shift                       1.200000
        cn-exp                         4.000000
        max-rad                        5.000000


          ...................................................
          :                      SETUP                      :
          :.................................................:
          :  # basis functions                  20          :
          :  # atomic orbitals                  20          :
          :  # shells                           10          :
          :  # electrons                        21          :
          :  max. iterations                   250          :
          :  Hamiltonian                  GFN2-xTB          :
          :  restarted?                      false          :
          :  GBSA solvation                  false          :
          :  PC potential                    false          :
          :  electronic temp.          300.0000000     K    :
          :  accuracy                    1.0000000          :
          :  -> integral cutoff          0.2500000E+02      :
          :  -> integral neglect         0.1000000E-07      :
          :  -> SCF convergence          0.1000000E-05 Eh   :
          :  -> wf. convergence          0.1000000E-03 e    :
          :  Broyden damping             0.4000000          :
          ...................................................

 iter      E             dE          RMSdq      gap      omega  full diag
   1    -10.8451042 -0.108451E+02  0.903E+00    0.70       0.0  T
   2    -10.6400303  0.205074E+00  0.966E+00    0.05       1.0  T
   3    -10.9706525 -0.330622E+00  0.445E+00    0.13       1.0  T
   4    -10.6603856  0.310267E+00  0.668E+00    0.15       1.0  T
   5    -10.9395954 -0.279210E+00  0.355E+00    0.29       1.0  T
   6    -11.0207627 -0.811673E-01  0.170E+00    0.00       1.0  T
   7    -11.0222740 -0.151133E-02  0.157E+00    0.01       1.0  T
   8    -11.0261883 -0.391426E-02  0.974E-01    0.02       1.0  T
   9    -11.0265829 -0.394662E-03  0.629E-01    0.08       1.0  T
  10    -11.0269954 -0.412505E-03  0.559E-01    0.08       1.0  T
  11    -11.0279182 -0.922792E-03  0.381E-01    0.07       1.0  T
  12    -11.0287754 -0.857134E-03  0.950E-02    0.05       1.0  T
  13    -11.0288137 -0.382828E-04  0.282E-02    0.05       1.6  T
  14    -11.0288162 -0.252850E-05  0.134E-02    0.06       3.3  T
  15    -11.0288164 -0.213182E-06  0.458E-03    0.06       9.8  T
  16    -11.0288165 -0.581225E-07  0.299E-03    0.06      15.0  T
  17    -11.0288165  0.348298E-08  0.138E-03    0.06      32.4  T
  18    -11.0288165 -0.462444E-08  0.439E-04    0.06     101.8  T
  19    -11.0288165 -0.557067E-09  0.188E-04    0.06     237.3  T

   *** convergence criteria satisfied after 19 iterations ***

         #    Occupation            Energy/Eh            Energy/eV
      -------------------------------------------------------------
         1        2.0000           -0.7499012             -20.4059
       ...           ...                  ...                  ...
         6        2.0000           -0.5583879             -15.1945
         7        2.0000           -0.5161030             -14.0439
         8        2.0000           -0.4947869             -13.4638
         9        2.0000           -0.4724916             -12.8572
        10        1.0000           -0.4405761             -11.9887
        11        1.0000           -0.4120299             -11.2119
        12        0.7454           -0.4017961             -10.9334 (HOMO)
        13        0.2546           -0.3997549             -10.8779 (LUMO)
        14                         -0.3280781              -8.9275
        15                         -0.1372989              -3.7361
        16                         -0.0091236              -0.2483
        17                          0.0201687               0.5488
       ...                                ...                  ...
        20                          0.3140759               8.5464
      -------------------------------------------------------------
                  HL-Gap            0.0020413 Eh            0.0555 eV
             Fermi-level           -0.4286547 Eh          -11.6643 eV

 SCC (total)                   0 d,  0 h,  0 min,  0.005 sec
 SCC setup                      ...        0 min,  0.000 sec (  1.333%)
 Dispersion                     ...        0 min,  0.000 sec (  0.301%)
 integral evaluation            ...        0 min,  0.001 sec ( 21.708%)
 zeroth order Hamiltonian       ...        0 min,  0.000 sec (  0.332%)
 iterations                     ...        0 min,  0.002 sec ( 38.858%)
 molecular gradient             ...        0 min,  0.002 sec ( 32.393%)
 printout                       ...        0 min,  0.000 sec (  4.942%)

         :::::::::::::::::::::::::::::::::::::::::::::::::::::
         ::                     SUMMARY                     ::
         :::::::::::::::::::::::::::::::::::::::::::::::::::::
         :: total energy             -10.942602496064 Eh    ::
         :: gradient norm              0.143145396162 Eh/a0 ::
         :: HOMO-LUMO gap              0.055545605736 eV    ::
         ::.................................................::
         :: SCC energy               -11.028816455519 Eh    ::
         :: -> isotropic ES           -0.004372704048 Eh    ::
         :: -> anisotropic ES          0.000772250371 Eh    ::
         :: -> anisotropic XC          0.006712725860 Eh    ::
         :: -> dispersion             -0.002879180225 Eh    ::
         :: repulsion energy           0.086213914639 Eh    ::
         :: add. restraining           0.000000000000 Eh    ::
         :::::::::::::::::::::::::::::::::::::::::::::::::::::

      ----------------------------------------------------------- 
     |                   =====================                   |
     |                        A N C O P T                        |
     |                   =====================                   |
     |               Approximate Normal Coordinate               |
     |                Rational Function Optimizer                |
      ----------------------------------------------------------- 

          ...................................................
          :                      SETUP                      :
          :.................................................:
          :   optimization level            normal          :
          :   max. optcycles                   200          :
          :   ANC micro-cycles                  20          :
          :   degrees of freedom                 9          :
          :.................................................:
          :   RF solver                   davidson          :
          :   write xtbopt.log                true          :
          :   linear?                        false          :
          :   energy convergence         0.5000000E-05 Eh   :
          :   grad. convergence          0.1000000E-02 Eh/α :
          :   maximium RF displ.         1.0000000          :
          :   Hlow (freq-cutoff)         0.1000000E-01      :
          :   Hmax (freq-cutoff)         5.0000000          :
          :   S6 in model hess.         20.0000000          :
          ...................................................

generating ANC from model Hessian ...
Using Lindh-Hessian (1995)
 Shifting diagonal of input Hessian by    0.0000000000000000     
 Lowest  eigenvalues of input Hessian
   -0.000000   -0.000000   -0.000000    0.000000    0.000000    0.000000
    0.054767    0.113783    0.272157    0.727139    0.744770    0.905655
    0.970977    1.020038    1.458095
 Highest eigenvalues
    0.727139    0.744770    0.905655    0.970977    1.020038    1.458095


........................................................................
.............................. CYCLE    1 ..............................
........................................................................
   1    -11.0288165 -0.110288E+02  0.900E-06    0.06       0.0  T
   2    -11.0288165  0.477840E-12  0.128E-05    0.06    3482.6  T
   3    -11.0288165 -0.468958E-12  0.480E-06    0.06    9323.6  T
     SCC iter.                  ...        0 min,  0.001 sec
     gradient                   ...        0 min,  0.001 sec
 * total energy  :   -10.9426025 Eh     change       -0.2809752E-09 Eh
   gradient norm :     0.1431456 Eh/α   predicted     0.0000000E+00 (-100.00%)
   displ. norm   :     0.1666654 α      lambda       -0.2314386E-01
   maximum displ.:     0.1286638 α      in ANC's #5, #6, #9, ...

........................................................................
.............................. CYCLE    2 ..............................
........................................................................
   1    -11.0508313 -0.110508E+02  0.219E+00    0.18       0.0  T
   2    -10.8873062  0.163525E+00  0.491E+00    0.15       1.0  T
   3    -11.0625111 -0.175205E+00  0.148E+00    0.15       1.0  T
   4    -11.0671621 -0.465104E-02  0.978E-01    0.11       1.0  T
   5    -11.0644102  0.275187E-02  0.104E+00    0.14       1.0  T
   6    -11.0702881 -0.587786E-02  0.217E-01    0.12       1.0  T
   7    -11.0705071 -0.218981E-03  0.112E-01    0.12       1.0  T
   8    -11.0705272 -0.201731E-04  0.546E-02    0.12       1.0  T
   9    -11.0705354 -0.818000E-05  0.295E-02    0.12       1.5  T
  10    -11.0705373 -0.190880E-05  0.204E-02    0.12       2.2  T
  11    -11.0705391 -0.179299E-05  0.385E-03    0.12      11.6  T
  12    -11.0705389  0.273503E-06  0.980E-03    0.12       4.6  T
  13    -11.0705392 -0.371767E-06  0.166E-03    0.12      26.9  T
  14    -11.0705392 -0.105734E-07  0.522E-04    0.12      85.6  T
  15    -11.0705392 -0.128546E-08  0.950E-05    0.12     471.0  T
     SCC iter.                  ...        0 min,  0.001 sec
     gradient                   ...        0 min,  0.001 sec
 * total energy  :   -10.9606569 Eh     change       -0.1805445E-01 Eh
   gradient norm :     0.0825704 Eh/α   predicted    -0.1189337E-01 ( -34.13%)
   displ. norm   :     0.2754112 α      lambda       -0.2125890E-01
   maximum displ.:     0.2270090 α      in ANC's #5, #2, #6, ...

........................................................................
.............................. CYCLE    3 ..............................
........................................................................
   1    -11.1255653 -0.111256E+02  0.302E+00    0.82       0.0  T
   2    -11.0832870  0.422783E-01  0.307E+00    0.54       1.0  T
   3    -11.1122913 -0.290043E-01  0.199E+00    0.77       1.0  T
   4    -11.1325109 -0.202197E-01  0.790E-01    0.65       1.0  T
   5    -11.1361148 -0.360383E-02  0.165E-01    0.64       1.0  T
   6    -11.1361068  0.791219E-05  0.118E-01    0.64       1.0  T
   7    -11.1361575 -0.506219E-04  0.577E-03    0.64       7.8  T
   8    -11.1361575 -0.215884E-08  0.342E-03    0.64      13.1  T
   9    -11.1361575 -0.503131E-08  0.184E-03    0.64      24.3  T
  10    -11.1361575 -0.260658E-07  0.199E-04    0.64     224.7  T
  11    -11.1361575  0.298996E-10  0.130E-04    0.64     343.1  T
     SCC iter.                  ...        0 min,  0.001 sec
     gradient                   ...        0 min,  0.001 sec
 * total energy  :   -10.9864131 Eh     change       -0.2575614E-01 Eh
   gradient norm :     0.1209925 Eh/α   predicted    -0.1143570E-01 ( -55.60%)
   displ. norm   :     0.9685914 α      lambda       -0.7417139E-01
   maximum displ.:     0.7994943 α      in ANC's #5, #2, #6, ...

........................................................................
.............................. CYCLE    4 ..............................
........................................................................
   1    -11.2540202 -0.112540E+02  0.698E+00    1.16       0.0  T
   2    -11.2371314  0.168888E-01  0.461E+00    0.49       1.0  T
   3    -11.1624449  0.746865E-01  0.489E+00    1.41       1.0  T
   4    -11.2643100 -0.101865E+00  0.212E+00    1.03       1.0  T
   5    -11.2771253 -0.128152E-01  0.915E-01    0.91       1.0  T
   6    -11.2770796  0.456688E-04  0.647E-01    0.94       1.0  T
   7    -11.2776553 -0.575709E-03  0.105E-01    0.93       1.0  T
   8    -11.2776629 -0.758487E-05  0.892E-02    0.93       1.0  T
   9    -11.2776751 -0.121987E-04  0.121E-02    0.92       3.7  T
  10    -11.2776757 -0.601880E-06  0.639E-03    0.92       7.0  T
  11    -11.2776758 -0.772188E-07  0.179E-03    0.92      25.0  T
  12    -11.2776758 -0.336241E-08  0.783E-04    0.92      57.1  T
  13    -11.2776758 -0.951085E-09  0.363E-04    0.92     123.4  T
     SCC iter.                  ...        0 min,  0.002 sec
     gradient                   ...        0 min,  0.001 sec
 * total energy  :   -10.9610761 Eh     change        0.2533699E-01 Eh
   gradient norm :     0.3676712 Eh/α   predicted    -0.7187832E-01 (-383.69%)
   displ. norm   :     0.2664489 α      lambda       -0.4651437E-01
   maximum displ.:     0.2205972 α      in ANC's #5, #2, #6, ...

........................................................................
.............................. CYCLE    5 ..............................
........................................................................
   1    -11.2473780 -0.112474E+02  0.426E+00    1.84       0.0  T
   2    -11.2529587 -0.558076E-02  0.240E+00    1.78       1.0  T
   3    -11.2526058  0.352916E-03  0.100E+00    1.81       1.0  T
   4    -11.2535301 -0.924292E-03  0.257E-01    1.74       1.0  T
   5    -11.2537512 -0.221077E-03  0.674E-02    1.78       1.0  T
   6    -11.2537551 -0.385660E-05  0.701E-02    1.77       1.0  T
   7    -11.2537628 -0.771251E-05  0.104E-02    1.77       4.3  T
   8    -11.2537628 -0.362425E-07  0.785E-03    1.77       5.7  T
   9    -11.2537630 -0.179914E-06  0.399E-03    1.77      11.2  T
  10    -11.2537630 -0.229156E-07  0.174E-04    1.77     256.9  T
  11    -11.2537630  0.370335E-10  0.153E-04    1.77     292.1  T
     SCC iter.                  ...        0 min,  0.001 sec
     gradient                   ...        0 min,  0.001 sec
 * total energy  :   -11.0026831 Eh     change       -0.4160702E-01 Eh
   gradient norm :     0.2331556 Eh/α   predicted    -0.2490833E-01 ( -40.13%)
   displ. norm   :     0.7129860 α      lambda       -0.9299406E-01
   maximum displ.:     0.6143296 α      in ANC's #2, #5, #9, ...

........................................................................
.............................. CYCLE    6 ..............................
........................................................................
   1    -11.1158389 -0.111158E+02  0.534E+00    1.33       0.0  T
   2    -11.0835735  0.322654E-01  0.352E+00    1.58       1.0  T
   3    -11.1158259 -0.322524E-01  0.281E+00    1.09       1.0  T
   4    -11.1547969 -0.389710E-01  0.122E+00    1.80       1.0  T
   5    -11.1620628 -0.726592E-02  0.153E-01    1.62       1.0  T
   6    -11.1620793 -0.165105E-04  0.647E-02    1.61       1.0  T
   7    -11.1620818 -0.245290E-05  0.125E-02    1.61       3.6  T
   8    -11.1620819 -0.141828E-06  0.963E-03    1.61       4.6  T
   9    -11.1620822 -0.305157E-06  0.243E-03    1.61      18.4  T
  10    -11.1620823 -0.274748E-07  0.506E-04    1.61      88.4  T
  11    -11.1620823 -0.205347E-10  0.107E-04    1.61     416.3  T
     SCC iter.                  ...        0 min,  0.001 sec
     gradient                   ...        0 min,  0.001 sec
 * total energy  :   -10.9854589 Eh     change        0.1722419E-01 Eh
   gradient norm :     0.2871975 Eh/α   predicted    -0.7013369E-01 (-507.18%)
   displ. norm   :     0.3456339 α      lambda       -0.7802106E-01
   maximum displ.:     0.2938499 α      in ANC's #2, #6, #7, ...

........................................................................
.............................. CYCLE    7 ..............................
........................................................................
   1    -11.1733207 -0.111733E+02  0.249E+00    2.92       0.0  T
   2    -11.1591596  0.141611E-01  0.214E+00    2.26       1.0  T
   3    -11.1839171 -0.247575E-01  0.109E+00    2.84       1.0  T
   4    -11.1882986 -0.438149E-02  0.185E-01    2.65       1.0  T
   5    -11.1884032 -0.104620E-03  0.547E-02    2.68       1.0  T
   6    -11.1884077 -0.448785E-05  0.876E-03    2.68       5.1  T
   7    -11.1884080 -0.310136E-06  0.398E-03    2.68      11.2  T
   8    -11.1884081 -0.944514E-07  0.182E-03    2.68      24.6  T
   9    -11.1884081 -0.333761E-08  0.117E-03    2.68      38.4  T
  10    -11.1884081 -0.700026E-08  0.135E-04    2.68     331.8  T
  11    -11.1884081 -0.150102E-10  0.614E-05    2.68     728.3  T
     SCC iter.                  ...        0 min,  0.001 sec
     gradient                   ...        0 min,  0.001 sec
 * total energy  :   -11.0247263 Eh     change       -0.3926736E-01 Eh
   gradient norm :     0.0916470 Eh/α   predicted    -0.4367081E-01 (  11.21%)
   displ. norm   :     0.3665835 α      lambda       -0.2569627E-01
   maximum displ.:     0.3514441 α      in ANC's #5, #6, #9, ...

........................................................................
.............................. CYCLE    8 ..............................
........................................................................
   1    -11.2201462 -0.112201E+02  0.241E+00    2.08       0.0  T
   2    -11.2236922 -0.354601E-02  0.119E+00    1.94       1.0  T
   3    -11.2230117  0.680481E-03  0.872E-01    2.15       1.0  T
   4    -11.2238376 -0.825960E-03  0.371E-01    1.95       1.0  T
   5    -11.2251505 -0.131289E-02  0.608E-02    2.05       1.0  T
   6    -11.2251556 -0.508696E-05  0.153E-02    2.05       2.9  T
   7    -11.2251559 -0.225832E-06  0.123E-02    2.04       3.6  T
   8    -11.2251570 -0.112533E-05  0.192E-03    2.04      23.3  T
   9    -11.2251570  0.922934E-08  0.152E-03    2.04      29.4  T
  10    -11.2251570 -0.119589E-07  0.942E-05    2.04     474.6  T
  11    -11.2251570 -0.893507E-11  0.441E-05    2.04    1013.0  T
     SCC iter.                  ...        0 min,  0.001 sec
     gradient                   ...        0 min,  0.002 sec
 * total energy  :   -11.0319988 Eh     change       -0.7272483E-02 Eh
   gradient norm :     0.0858233 Eh/α   predicted    -0.1457475E-01 ( 100.41%)
   displ. norm   :     0.0897609 α      lambda       -0.5968240E-02
   maximum displ.:     0.0617208 α      in ANC's #5, #2, #7, ...

........................................................................
.............................. CYCLE    9 ..............................
........................................................................
   1    -11.2123143 -0.112123E+02  0.593E-01    2.36       0.0  T
   2    -11.2126759 -0.361613E-03  0.277E-01    2.41       1.0  T
   3    -11.2127491 -0.732565E-04  0.220E-01    2.35       1.0  T
   4    -11.2128050 -0.558511E-04  0.102E-01    2.40       1.0  T
   5    -11.2128888 -0.838513E-04  0.126E-02    2.38       3.5  T
   6    -11.2128884  0.403962E-06  0.893E-03    2.38       5.0  T
   7    -11.2128891 -0.643074E-06  0.142E-03    2.38      31.6  T
   8    -11.2128891 -0.614492E-08  0.834E-04    2.38      53.6  T
   9    -11.2128891 -0.159046E-08  0.497E-04    2.38      89.9  T
     SCC iter.                  ...        0 min,  0.001 sec
     gradient                   ...        0 min,  0.001 sec
 * total energy  :   -11.0354730 Eh     change       -0.3474198E-02 Eh
   gradient norm :     0.0369642 Eh/α   predicted    -0.3008166E-02 ( -13.41%)
   displ. norm   :     0.0516368 α      lambda       -0.9889047E-03
   maximum displ.:     0.0349376 α      in ANC's #2, #5, #7, ...

........................................................................
.............................. CYCLE   10 ..............................
........................................................................
   1    -11.2075983 -0.112076E+02  0.267E-01    2.30       0.0  T
   2    -11.2076019 -0.361204E-05  0.152E-01    2.32       1.0  T
   3    -11.2075245  0.773857E-04  0.104E-01    2.29       1.0  T
   4    -11.2076118 -0.872783E-04  0.150E-02    2.31       3.0  T
   5    -11.2076127 -0.922213E-06  0.776E-03    2.31       5.8  T
   6    -11.2076121  0.608228E-06  0.977E-03    2.31       4.6  T
   7    -11.2076129 -0.751718E-06  0.830E-04    2.31      53.9  T
   8    -11.2076129 -0.320000E-08  0.310E-04    2.31     144.3  T
     SCC iter.                  ...        0 min,  0.001 sec
     gradient                   ...        0 min,  0.001 sec
 * total energy  :   -11.0361820 Eh     change       -0.7090027E-03 Eh
   gradient norm :     0.0219716 Eh/α   predicted    -0.4957719E-03 ( -30.07%)
   displ. norm   :     0.0473478 α      lambda       -0.5007243E-03
   maximum displ.:     0.0331173 α      in ANC's #5, #7, #2, ...

........................................................................
.............................. CYCLE   11 ..............................
........................................................................
   1    -11.2041609 -0.112042E+02  0.292E-01    2.17       0.0  T
   2    -11.2041671 -0.614504E-05  0.160E-01    2.16       1.0  T
   3    -11.2041334  0.337315E-04  0.756E-02    2.18       1.0  T
   4    -11.2041670 -0.336365E-04  0.263E-02    2.17       1.7  T
   5    -11.2041708 -0.381234E-05  0.123E-02    2.17       3.6  T
   6    -11.2041713 -0.543797E-06  0.809E-03    2.17       5.5  T
   7    -11.2041716 -0.206339E-06  0.300E-03    2.17      14.9  T
   8    -11.2041716 -0.653776E-07  0.224E-04    2.17     199.8  T
   9    -11.2041716 -0.139799E-10  0.989E-05    2.17     452.1  T
     SCC iter.                  ...        0 min,  0.001 sec
     gradient                   ...        0 min,  0.001 sec
 * total energy  :   -11.0364755 Eh     change       -0.2935386E-03 Eh
   gradient norm :     0.0131171 Eh/α   predicted    -0.2509226E-03 ( -14.52%)
   displ. norm   :     0.0146713 α      lambda       -0.9443858E-04
   maximum displ.:     0.0083031 α      in ANC's #7, #1, #5, ...

........................................................................
.............................. CYCLE   12 ..............................
........................................................................
   1    -11.2035990 -0.112036E+02  0.103E-01    2.11       0.0  T
   2    -11.2035907  0.830952E-05  0.724E-02    2.10       1.0  T
   3    -11.2035794  0.112185E-04  0.686E-02    2.11       1.0  T
   4    -11.2036009 -0.214835E-04  0.289E-02    2.11       1.5  T
   5    -11.2036058 -0.490225E-05  0.110E-02    2.11       4.1  T
   6    -11.2036066 -0.774993E-06  0.315E-03    2.11      14.2  T
   7    -11.2036066  0.192159E-07  0.218E-03    2.11      20.5  T
   8    -11.2036066 -0.377513E-07  0.146E-04    2.11     305.4  T
   9    -11.2036066 -0.248690E-10  0.710E-05    2.11     630.2  T
     SCC iter.                  ...        0 min,  0.001 sec
     gradient                   ...        0 min,  0.001 sec
 * total energy  :   -11.0365471 Eh     change       -0.7159851E-04 Eh
   gradient norm :     0.0112812 Eh/α   predicted    -0.4722984E-04 ( -34.04%)
   displ. norm   :     0.0484184 α      lambda       -0.3017486E-03
   maximum displ.:     0.0265876 α      in ANC's #1, #7, #9, ...

........................................................................
.............................. CYCLE   13 ..............................
........................................................................
   1    -11.2016899 -0.112017E+02  0.329E-01    1.91       0.0  T
   2    -11.2015638  0.126126E-03  0.247E-01    1.91       1.0  T
   3    -11.2014881  0.756982E-04  0.224E-01    1.91       1.0  T
   4    -11.2017050 -0.216909E-03  0.105E-01    1.92       1.0  T
   5    -11.2017705 -0.655252E-04  0.389E-02    1.91       1.2  T
   6    -11.2017800 -0.949260E-05  0.103E-02    1.91       4.4  T
   7    -11.2017800  0.572436E-07  0.542E-03    1.92       8.2  T
   8    -11.2017802 -0.240283E-06  0.506E-04    1.91      88.4  T
   9    -11.2017802 -0.467558E-09  0.271E-04    1.91     165.1  T
     SCC iter.                  ...        0 min,  0.001 sec
     gradient                   ...        0 min,  0.001 sec
 * total energy  :   -11.0366176 Eh     change       -0.7050896E-04 Eh
   gradient norm :     0.0093228 Eh/α   predicted    -0.1512299E-03 ( 114.48%)
   displ. norm   :     0.0316942 α      lambda       -0.2087378E-03
   maximum displ.:     0.0241841 α      in ANC's #1, #5, #2, ...

........................................................................
.............................. CYCLE   14 ..............................
........................................................................
   1    -11.2018577 -0.112019E+02  0.171E-01    1.93       0.0  T
   2    -11.2017395  0.118205E-03  0.180E-01    1.94       1.0  T
   3    -11.2018805 -0.140967E-03  0.875E-02    1.93       1.0  T
   4    -11.2018580  0.225313E-04  0.855E-02    1.93       1.0  T
   5    -11.2019091 -0.511821E-04  0.819E-03    1.93       5.5  T
   6    -11.2019090  0.170832E-06  0.725E-03    1.94       6.2  T
   7    -11.2019093 -0.304308E-06  0.946E-04    1.93      47.3  T
   8    -11.2019093 -0.350029E-08  0.389E-04    1.93     115.0  T
     SCC iter.                  ...        0 min,  0.001 sec
     gradient                   ...        0 min,  0.001 sec
 * total energy  :   -11.0367356 Eh     change       -0.1179521E-03 Eh
   gradient norm :     0.0036909 Eh/α   predicted    -0.1044750E-03 ( -11.43%)
   displ. norm   :     0.0136650 α      lambda       -0.3502083E-04
   maximum displ.:     0.0115295 α      in ANC's #5, #7, #2, ...

........................................................................
.............................. CYCLE   15 ..............................
........................................................................
   1    -11.2018480 -0.112018E+02  0.799E-02    1.96       0.0  T
   2    -11.2018479  0.682095E-07  0.440E-02    1.97       1.0  T
   3    -11.2018379  0.100235E-04  0.421E-02    1.96       1.1  T
   4    -11.2018490 -0.111831E-04  0.119E-02    1.97       3.7  T
   5    -11.2018499 -0.828369E-06  0.568E-03    1.97       7.9  T
   6    -11.2018501 -0.253364E-06  0.163E-03    1.97      27.5  T
   7    -11.2018501  0.873615E-08  0.158E-03    1.97      28.2  T
   8    -11.2018501 -0.138938E-07  0.570E-05    1.97     785.0  T
   9    -11.2018501 -0.187406E-11  0.285E-05    1.97    1568.9  T
     SCC iter.                  ...        0 min,  0.001 sec
     gradient                   ...        0 min,  0.002 sec
 * total energy  :   -11.0367582 Eh     change       -0.2265451E-04 Eh
   gradient norm :     0.0013811 Eh/α   predicted    -0.1751328E-04 ( -22.69%)
   displ. norm   :     0.0105200 α      lambda       -0.6499216E-05
   maximum displ.:     0.0075725 α      in ANC's #5, #9, #2, ...

........................................................................
.............................. CYCLE   16 ..............................
........................................................................
   1    -11.2014981 -0.112015E+02  0.531E-02    1.97       0.0  T
   2    -11.2014951  0.299934E-05  0.385E-02    1.97       1.2  T
   3    -11.2014919  0.321355E-05  0.369E-02    1.97       1.2  T
   4    -11.2014979 -0.605841E-05  0.167E-02    1.97       2.7  T
   5    -11.2015001 -0.214264E-05  0.216E-03    1.97      20.7  T
   6    -11.2015001 -0.380060E-08  0.178E-03    1.97      25.1  T
   7    -11.2015001 -0.844159E-08  0.791E-04    1.97      56.6  T
   8    -11.2015001 -0.334742E-08  0.844E-05    1.97     529.6  T
     SCC iter.                  ...        0 min,  0.001 sec
     gradient                   ...        0 min,  0.002 sec
 * total energy  :   -11.0367609 Eh     change       -0.2664384E-05 Eh
   gradient norm :     0.0006038 Eh/α   predicted    -0.3248771E-05 (  21.93%)
   displ. norm   :     0.0035433 α      lambda       -0.9615517E-06
   maximum displ.:     0.0026057 α      in ANC's #5, #2, #9, ...

   *** GEOMETRY OPTIMIZATION CONVERGED AFTER 16 ITERATIONS ***

------------------------------------------------------------------------
 total energy gain   :        -0.0941584 Eh      -59.0853 kcal/mol
 total RMSD          :         0.7075798 a0        0.3744 Å
 total power (kW/mol):       -15.4508005 (step)-3903.0847 (real)
------------------------------------------------------------------------

 ANCopt (total)                0 d,  0 h,  0 min,  0.063 sec
 optimizer setup                ...        0 min,  0.000 sec (  0.114%)
 model hessian                  ...        0 min,  0.000 sec (  0.141%)
 ANC generation                 ...        0 min,  0.000 sec (  0.075%)
 coordinate transformation      ...        0 min,  0.000 sec (  0.051%)
 single point calculation       ...        0 min,  0.062 sec ( 97.704%)
 optimization log               ...        0 min,  0.000 sec (  0.650%)
 hessian update                 ...        0 min,  0.000 sec (  0.058%)
 rational function              ...        0 min,  0.000 sec (  0.526%)

================
 final structure:
================
5
 xtb: 6.2.2 (9d81278992624c895f80dd42a50cac0aa55982e2)
C        -1.02253078107995    0.70008273786125    0.02576727917995
C         0.39512882137190    0.86363262077323   -0.07517750636040
C         0.34363898040867   -0.88749239045031    0.02744456585569
N         1.34501386486817   -0.04430742132870   -0.08251439248058
C        -1.06125088556879   -0.63191554685546    0.10447905380534

 Bond Distances (Angstroems)
 ---------------------------
C1-C2=1.4306         C1-C5=1.3349         C2-C1=1.4306         C2-C3=1.7549         C2-N4=1.3140         C3-C2=1.7549         
C3-N4=1.3137         C3-C5=1.4300         N4-C2=1.3140         N4-C3=1.3137         C5-C1=1.3349         C5-C3=1.4300         
 C  C  Rav=1.4876 sigma=0.1592  Rmin=1.3349  Rmax=1.7549     4
 N  C  Rav=1.3139 sigma=0.0002  Rmin=1.3137  Rmax=1.3140     2

 selected bond angles (degree)
 --------------------
C5-C1-C2= 98.45                C3-C2-C1= 81.53                N4-C2-C1=129.62                N4-C2-C3= 48.09                
N4-C3-C2= 48.11                C5-C3-C2= 81.58                C5-C3-N4=129.69                C3-N4-C2= 83.80                
C3-C5-C1= 98.43                

 selected dihedral angles (degree)
 ---------------------------------
C3-C2-C1-C5=  0.03            N4-C2-C1-C5=359.88            N4-C3-C2-C1=180.15            C5-C3-C2-C1=359.97            
C5-C3-C2-N4=179.82            C3-N4-C2-C1=  0.20            C2-N4-C3-C5=359.77            C3-C5-C1-C2=359.96            
C1-C5-C3-C2=  0.03            C1-C5-C3-N4=  0.20            
           -------------------------------------------------
          |                Final Singlepoint                |
           -------------------------------------------------

          ...................................................
          :                      SETUP                      :
          :.................................................:
          :  # basis functions                  20          :
          :  # atomic orbitals                  20          :
          :  # shells                           10          :
          :  # electrons                        21          :
          :  max. iterations                   250          :
          :  Hamiltonian                  GFN2-xTB          :
          :  restarted?                      false          :
          :  GBSA solvation                  false          :
          :  PC potential                    false          :
          :  electronic temp.          300.0000000     K    :
          :  accuracy                    1.0000000          :
          :  -> integral cutoff          0.2500000E+02      :
          :  -> integral neglect         0.1000000E-07      :
          :  -> SCF convergence          0.1000000E-05 Eh   :
          :  -> wf. convergence          0.1000000E-03 e    :
          :  Broyden damping             0.4000000          :
          ...................................................

 iter      E             dE          RMSdq      gap      omega  full diag
   1    -11.2015001 -0.112015E+02  0.201E-05    1.97       0.0  T
   2    -11.2015001  0.193978E-11  0.269E-05    1.97    1663.3  T
   3    -11.2015001 -0.313527E-11  0.835E-06    1.97    5353.7  T

   *** convergence criteria satisfied after 3 iterations ***

         #    Occupation            Energy/Eh            Energy/eV
      -------------------------------------------------------------
         1        2.0000           -0.7455617             -20.2878
       ...           ...                  ...                  ...
         6        2.0000           -0.5762420             -15.6803
         7        2.0000           -0.5058807             -13.7657
         8        2.0000           -0.4595039             -12.5037
         9        2.0000           -0.4510105             -12.2726
        10        1.0000           -0.4151112             -11.2958
        11        1.0000           -0.4110617             -11.1856
        12        1.0000           -0.3819220             -10.3926 (HOMO)
        13                         -0.3094572              -8.4208 (LUMO)
        14                         -0.2582177              -7.0265
        15                         -0.2043163              -5.5597
        16                          0.1141633               3.1065
        17                          0.1425615               3.8793
       ...                                ...                  ...
        20                          0.5412955              14.7294
      -------------------------------------------------------------
                  HL-Gap            0.0724648 Eh            1.9719 eV
             Fermi-level           -0.3893785 Eh          -10.5955 eV

 SCC (total)                   0 d,  0 h,  0 min,  0.004 sec
 SCC setup                      ...        0 min,  0.000 sec (  1.625%)
 Dispersion                     ...        0 min,  0.000 sec (  0.681%)
 integral evaluation            ...        0 min,  0.002 sec ( 41.440%)
 zeroth order Hamiltonian       ...        0 min,  0.000 sec (  0.550%)
 iterations                     ...        0 min,  0.000 sec ( 10.496%)
 molecular gradient             ...        0 min,  0.002 sec ( 42.619%)
 printout                       ...        0 min,  0.000 sec (  2.365%)

         :::::::::::::::::::::::::::::::::::::::::::::::::::::
         ::                     SUMMARY                     ::
         :::::::::::::::::::::::::::::::::::::::::::::::::::::
         :: total energy             -11.036760881907 Eh    ::
         :: gradient norm              0.000618545852 Eh/a0 ::
         :: HOMO-LUMO gap              1.971866481811 eV    ::
         ::.................................................::
         :: SCC energy               -11.201500097870 Eh    ::
         :: -> isotropic ES            0.003488167830 Eh    ::
         :: -> anisotropic ES          0.002430613993 Eh    ::
         :: -> anisotropic XC          0.008537503690 Eh    ::
         :: -> dispersion             -0.002866263676 Eh    ::
         :: repulsion energy           0.164739185956 Eh    ::
         :: add. restraining           0.000000000000 Eh    ::
         :::::::::::::::::::::::::::::::::::::::::::::::::::::

           ------------------------------------------------- 
          |                Numerical Hessian                |
           ------------------------------------------------- 
step length          :   0.00500
SCC accuracy         :   0.30000
Hessian scale factor :   1.00000
frozen atoms in %    :   0.00000    0
RMS gradient         :   0.00062
estimated CPU  time      0.00 min
estimated wall time      0.00 min

writing file <hessian>.

 projected vibrational frequencies (cm-1)
eigval :       -0.00    -0.00     0.00     0.00     0.00     0.00
eigval :     -308.20   440.60   459.48   616.09   770.90  1008.90
eigval :     1106.41  1484.30  1601.68
           -------------------------------------------------
          |                Property Printout                |
           -------------------------------------------------

    * Orbital Energies and Occupations

         #    Occupation            Energy/Eh            Energy/eV
      -------------------------------------------------------------
         1        2.0000           -0.7455617             -20.2878
         2        2.0000           -0.6829537             -18.5841
         3        2.0000           -0.6415882             -17.4585
         4        2.0000           -0.5950211             -16.1913
         5        2.0000           -0.5791982             -15.7608
         6        2.0000           -0.5762420             -15.6803
         7        2.0000           -0.5058807             -13.7657
         8        2.0000           -0.4595039             -12.5037
         9        2.0000           -0.4510105             -12.2726
        10        1.0000           -0.4151112             -11.2958
        11        1.0000           -0.4110617             -11.1856
        12        1.0000           -0.3819220             -10.3926 (HOMO)
        13                         -0.3094572              -8.4208 (LUMO)
        14                         -0.2582177              -7.0265
        15                         -0.2043163              -5.5597
        16                          0.1141633               3.1065
        17                          0.1425615               3.8793
        18                          0.3856411              10.4938
        19                          0.4045363              11.0080
        20                          0.5412955              14.7294
      -------------------------------------------------------------
                  HL-Gap            0.0724647 Eh            1.9719 eV
             Fermi-level           -0.3893785 Eh          -10.5955 eV

     #   Z        covCN         q      C6AA      α(0)
     1   6 C      2.264    -0.033    30.818     9.000
     2   6 C      3.077     0.100    25.712     8.314
     3   6 C      3.078     0.100    25.701     8.312
     4   7 N      1.824    -0.134    24.685     7.362
     5   6 C      2.263    -0.033    30.834     9.002

 Mol. C6AA /au·bohr⁶  :        686.250189
 Mol. C8AA /au·bohr⁸  :      18908.179256
 Mol. α(0) /au        :         41.988241


Wiberg/Mayer (AO) data.
largest (>0.10) Wiberg bond orders for each atom
          total WBO             WBO to atom ...
     1  C   2.941        C    5 1.623    C    2 1.064    N    4 0.128    C    3 0.126
     2  C   3.056        N    4 1.338    C    1 1.064    C    3 0.529    C    5 0.125
     3  C   3.059        N    4 1.339    C    5 1.065    C    2 0.529    C    1 0.126
     4  N   2.934        C    3 1.339    C    2 1.338    C    1 0.128    C    5 0.128
     5  C   2.942        C    1 1.623    C    3 1.065    N    4 0.128    C    2 0.125

MOs/occ written to file <molden.input>


molecular dipole:
                 x           y           z       tot (Debye)
 q only:       -0.072       0.002       0.004
   full:       -0.251       0.007       0.014       0.640
molecular quadrupole (traceless):
                xx          xy          yy          xz          yz          zz
 q only:       -1.245       0.069       0.956       0.093      -0.042       0.289
  q+dip:       -2.595       0.129       1.483       0.226      -0.028       1.112
   full:       -3.914       0.171       1.242       0.408       0.073       2.671

           -------------------------------------------------
          |                Geometry Summary                 |
           -------------------------------------------------

      molecular mass/u    :       62.0496468
   center of mass at/Å    :        0.0432654      -0.0014255      -0.0026546
  moments of inertia/u·Å² :        0.2919535E+02   0.5484581E+02   0.8404108E+02
rotational constants/cm⁻¹ :        0.5774082E+00   0.3073641E+00   0.2005880E+00

 * 3 selected distances

     #   Z        #   Z                                     value/Å
     2   6 C      4   7 N                                 1.3140360
     3   6 C      4   7 N                                 1.3136984 (min)
     1   6 C      5   6 C                                 1.3348836 (max)

 * 2 distinct bonds (by element types)

   Z      Z             #   av. dist./Å        max./Å        min./Å
   6 C    6 C           1     1.3348836     1.3348836     1.3348836
   6 C    7 N           2     1.3138672     1.3140360     1.3136984

           -------------------------------------------------
          |               Frequency Printout                |
           -------------------------------------------------
 projected vibrational frequencies (cm-1)
eigval :       -0.00    -0.00     0.00     0.00     0.00     0.00
eigval :     -308.20   440.60   459.48   616.09   770.90  1008.90
eigval :     1106.41  1484.30  1601.68
 reduced masses (amu)
   1: 12.94   2: 12.08   3: 12.33   4: 12.66   5: 12.75   6: 12.10   7: 12.05   8: 12.69
Molecule has the following symmetry elements: (C2) 2*(sigma) 
It seems to be the C2v point group
   9: 12.01  10: 12.47  11: 12.90  12: 12.06  13: 12.30  14: 12.26  15: 12.55
 IR intensities (amu)
   1:  0.07   2:  0.02   3:  0.04   4:  0.03   5:  0.02   6:  0.05   7:  0.82   8:  0.40
   9:  0.04  10:  0.25  11:  1.00  12:  0.09  13:  0.33  14:  0.21  15:  1.14
 Raman intensities (amu)
   1:  0.00   2:  0.00   3:  0.00   4:  0.00   5:  0.00   6:  0.00   7:  0.00   8:  0.00
   9:  0.00  10:  0.00  11:  0.00  12:  0.00  13:  0.00  14:  0.00  15:  0.00
 output can be read by thermo (or use thermo option).
 writing <g98.out> molden fake output.
 recommended (thermochemical) frequency scaling factor: 1.0
           -------------------------------------------------
          |             Thermodynamic Functions             |
           -------------------------------------------------

c2v symmetry found (for desy threshold:  0.10E+00) used in thermo

          ...................................................
          :                      SETUP                      :
          :.................................................:
          :  # frequencies                           8      :
          :  # imaginary freq.                       1      :
          :  linear?                             false      :
          :  only rotor calc.                    false      :
          :  symmetry                              c2v      :
          :  rotational number                       2      :
          :  scaling factor                  1.0000000      :
          :  rotor cutoff                   50.0000000 cm⁻¹ :
          :  imag. cutoff                  -20.0000000 cm⁻¹ :
          :.................................................:

    mode    ω/cm⁻¹     T·S(HO)/kcal·mol⁻¹    T·S(FR)/kcal·mol⁻¹   T·S(vib)
   ------------------------------------------------------------------------
   ------------------------------------------------------------------------

   temp. (K)  partition function   enthalpy   heat capacity  entropy
                                   cal/mol     cal/K/mol   cal/K/mol   J/K/mol
 298.15  VIB   1.40                  523.775      5.193      2.419
         ROT  0.140E+05              888.752      2.981     21.955
         INT  0.195E+05             1412.528      8.174     24.373
         TR   0.473E+27             1481.254      4.968     38.278
         TOT                        2893.7816    13.1419    62.6515   262.1340

   temp. (K)  partition function   enthalpy   heat capacity  entropy
                                   cal/mol     cal/K/mol   cal/K/mol   J/K/mol
 120.00  VIB   1.01                   13.099      0.617      0.129
         ROT  0.358E+04              357.707      2.981     19.242
         INT  0.361E+04              370.806      3.598     19.371
         TR   0.121E+27              596.178      4.968     33.759
         TOT                         966.9840     8.5657    53.1293   222.2929

   temp. (K)  partition function   enthalpy   heat capacity  entropy
                                   cal/mol     cal/K/mol   cal/K/mol   J/K/mol
 100.00  VIB   1.00                    4.283      0.285      0.049
         ROT  0.272E+04              298.089      2.981     18.698
         INT  0.273E+04              302.372      3.266     18.748
         TR   0.919E+26              496.815      4.968     32.853
         TOT                         799.1868     8.2338    51.6009   215.8982

   temp. (K)  partition function   enthalpy   heat capacity  entropy
                                   cal/mol     cal/K/mol   cal/K/mol   J/K/mol
  80.00  VIB   1.00                    0.824      0.084      0.012
         ROT  0.195E+04              238.471      2.981     18.033
         INT  0.195E+04              239.295      3.065     18.045
         TR   0.657E+26              397.452      4.968     31.745
         TOT                         636.7473     8.0334    49.7898   208.3207

   temp. (K)  partition function   enthalpy   heat capacity  entropy
                                   cal/mol     cal/K/mol   cal/K/mol   J/K/mol
  60.00  VIB   1.00                    0.055      0.010      0.001
         ROT  0.126E+04              178.853      2.981     17.175
         INT  0.126E+04              178.908      2.991     17.176
         TR   0.427E+26              298.089      4.968     30.317
         TOT                         476.9971     7.9589    47.4931   198.7110

   temp. (K)  partition function   enthalpy   heat capacity  entropy
                                   cal/mol     cal/K/mol   cal/K/mol   J/K/mol
  40.00  VIB   1.00                    0.000      0.000     -0.000
         ROT   689.                  119.236      2.981     15.967
         INT   689.                  119.236      2.981     15.966
         TR   0.232E+26              198.726      4.968     28.303
         TOT                         317.9619     7.9491    44.2699   185.2251

   temp. (K)  partition function   enthalpy   heat capacity  entropy
                                   cal/mol     cal/K/mol   cal/K/mol   J/K/mol
  20.00  VIB   1.00                    0.000      0.000     -0.001
         ROT   243.                   59.618      2.981     13.901
         INT   243.                   59.618      2.981     13.900
         TR   0.822E+25               99.363      4.968     24.861
         TOT                         158.9808     7.9490    38.7614   162.1777

   temp. (K)  partition function   enthalpy   heat capacity  entropy
                                   cal/mol     cal/K/mol   cal/K/mol   J/K/mol
  10.00  VIB   1.00                    0.000      0.000     -0.001
         ROT   86.1                   29.809      2.981     11.834
         INT   86.1                   29.809      2.981     11.834
         TR   0.290E+25               49.681      4.968     21.419
         TOT                          79.4904     7.9490    33.2530   139.1305

       T/K    H(0)-H(T)+PV         H(T)/Eh          T*S/Eh         G(T)/Eh
   ------------------------------------------------------------------------
    298.15    0.461153E-02    0.216713E-01    0.297678E-01   -0.809647E-02
    120.00    0.154099E-02    0.186007E-01    0.101600E-01    0.844072E-02
    100.00    0.127359E-02    0.183333E-01    0.822313E-02    0.101102E-01
     80.00    0.101472E-02    0.180745E-01    0.634761E-02    0.117269E-01
     60.00    0.760143E-03    0.178199E-01    0.454110E-02    0.132788E-01
     40.00    0.506704E-03    0.175665E-01    0.282194E-02    0.147445E-01
     20.00    0.253352E-03    0.173131E-01    0.123540E-02    0.160777E-01
     10.00    0.126676E-03    0.171864E-01    0.529920E-03    0.166565E-01 (used)
   ------------------------------------------------------------------------

         :::::::::::::::::::::::::::::::::::::::::::::::::::::
         ::                  THERMODYNAMIC                  ::
         :::::::::::::::::::::::::::::::::::::::::::::::::::::
         :: total free energy         -11.020104363322 Eh   ::
         ::.................................................::
         :: total energy              -11.036760881912 Eh   ::
         :: zero point energy           0.017059762502 Eh   ::
         :: G(RRHO) w/o ZPVE           -0.000403243912 Eh   ::
         :: G(RRHO) contrib.            0.016656518590 Eh   ::
         :::::::::::::::::::::::::::::::::::::::::::::::::::::
imag cut-off (cm-1) :    5.00
 found            1  significant imaginary frequency
 writing imag mode distorted coords to xtbhess.xyz
 for further optimization.

optimized geometry written to: xtbopt.xyz


           -------------------------------------------------
          | TOTAL ENERGY              -11.036760881912 Eh   |
          | TOTAL ENTHALPY            -11.019574443394 Eh   |
          | TOTAL FREE ENERGY         -11.020104363322 Eh   |
          | GRADIENT NORM               0.000618528701 Eh/α |
          | HOMO-LUMO GAP               1.971865766631 eV   |
           -------------------------------------------------

------------------------------------------------------------------------
 * finished run on 2020/05/12 at 11:44:12.676     
------------------------------------------------------------------------
 total:
 * wall-time:     0 d,  0 h,  0 min,  0.195 sec
 *  cpu-time:     0 d,  0 h,  0 min,  0.195 sec
 * ratio c/w:     0.999 speedup
 SCF:
 * wall-time:     0 d,  0 h,  0 min,  0.005 sec
 *  cpu-time:     0 d,  0 h,  0 min,  0.005 sec
 * ratio c/w:     0.998 speedup
 ANC optimizer:
 * wall-time:     0 d,  0 h,  0 min,  0.068 sec
 *  cpu-time:     0 d,  0 h,  0 min,  0.068 sec
 * ratio c/w:     0.998 speedup
 numerical hessian:
 * wall-time:     0 d,  0 h,  0 min,  0.105 sec
 *  cpu-time:     0 d,  0 h,  0 min,  0.105 sec
 * ratio c/w:     0.999 speedup

