 Entering Gaussian System
 *********************************************
 Gaussian 98:
 frequency output generated by the xtb code
 *********************************************
                         Standard orientation:
 --------------------------------------------------------------------
  Center     Atomic     Atomic              Coordinates (Angstroms)
  Number     Number      Type              X           Y           Z
 --------------------------------------------------------------------
    1          6             0       -1.022527    0.700088    0.025770
    2          6             0        0.395133    0.863630   -0.075180
    3          6             0        0.343634   -0.887494    0.027445
    4          7             0        1.345013   -0.044315   -0.082519
    5          6             0       -1.061254   -0.631910    0.104484
 --------------------------------------------------------------------
     1 basis functions        1 primitive gaussians
     1 alpha electrons        1 beta electrons

 Harmonic frequencies (cm**-1), IR intensities (KM/Mole),
 Raman scattering activities (A**4/amu), Raman depolarization ratios,
 reduced masses (AMU), force constants (mDyne/A) and normal coordinates:
                      1                      2                      3
                        a                      a                      a 
 Frequencies --  -308.2007               440.6005               459.4844
 Red. masses --    12.0520                12.6879                12.0110
 Frc consts  --     0.0000                 0.0000                 0.0000
 IR Inten    --     0.8243                 0.4017                 0.0366
 Raman Activ --     0.0000                 0.0000                 0.0000
 Depolar     --     0.0000                 0.0000                 0.0000
 Atom AN      X      Y      Z        X      Y      Z        X      Y      Z
   1   6    -0.18   0.37  -0.01    -0.01  -0.01  -0.21     0.04   0.03   0.56
   2   6    -0.37  -0.43   0.05     0.03   0.03   0.52    -0.03  -0.02  -0.44
   3   6     0.34  -0.45   0.01     0.03   0.03   0.54     0.03   0.03   0.42
   4   7     0.00   0.14  -0.01    -0.04  -0.03  -0.58     0.00   0.00   0.01
   5   6     0.20   0.36  -0.04    -0.02  -0.01  -0.23    -0.04  -0.03  -0.56
                      4                      5                      6
                        a                      a                      a 
 Frequencies --   616.0950               770.8974              1008.9015
 Red. masses --    12.4698                12.8980                12.0612
 Frc consts  --     0.0000                 0.0000                 0.0000
 IR Inten    --     0.2516                 0.9998                 0.0903
 Raman Activ --     0.0000                 0.0000                 0.0000
 Depolar     --     0.0000                 0.0000                 0.0000
 Atom AN      X      Y      Z        X      Y      Z        X      Y      Z
   1   6     0.12  -0.09  -0.00     0.09  -0.05  -0.00    -0.63   0.07   0.04
   2   6     0.15   0.58  -0.04     0.40  -0.32  -0.01     0.31   0.03  -0.02
   3   6     0.11  -0.59   0.03    -0.42  -0.29   0.04    -0.30   0.05   0.02
   4   7    -0.48   0.02   0.03     0.02   0.67  -0.04    -0.00  -0.16   0.01
   5   6     0.13   0.09  -0.01    -0.09  -0.05   0.01     0.62   0.03  -0.04
                      7                      8                      9
                        a                      a                      a 
 Frequencies --  1106.4108              1484.2968              1601.6839
 Red. masses --    12.3048                12.2597                12.5541
 Frc consts  --     0.0000                 0.0000                 0.0000
 IR Inten    --     0.3317                 0.2122                 1.1365
 Raman Activ --     0.0000                 0.0000                 0.0000
 Depolar     --     0.0000                 0.0000                 0.0000
 Atom AN      X      Y      Z        X      Y      Z        X      Y      Z
   1   6    -0.52  -0.14   0.04    -0.02   0.58  -0.03    -0.11   0.37  -0.01
   2   6     0.32   0.16  -0.03    -0.14   0.28  -0.01     0.40  -0.24  -0.01
   3   6     0.31  -0.19  -0.01    -0.16  -0.27   0.03     0.41   0.21  -0.04
   4   7     0.38  -0.01  -0.02     0.35  -0.01  -0.02    -0.52   0.02   0.03
   5   6    -0.52   0.17   0.02    -0.06  -0.58   0.04    -0.14  -0.36   0.03
