[Molden Format]
[Title]
[Atoms] AU
C      1     6  0.14870002875591E+01 -0.38386423421408E+00  0.12855246393826E+00
C      2     6 -0.59303359890239E+00  0.14214035077449E+01 -0.54478288516756E-01
O      3     8 -0.89396479892416E+00 -0.10375392735374E+01 -0.74072285702149E-01
[GTO]
           1 0
 s           4   1.0000000000000000     
   51.049363095579913      -0.16312063210127389     
   8.7911227406887544      -0.19911024581000730     
  0.70640422258929825       0.31882047753655751     
  0.26922813413411617       0.12706504184240380     
 p           4   1.0000000000000000     
   5.8263656140800002       0.73716451545209605     
   1.5106896018720002       0.68216371614850257     
  0.53256483288000001       0.35783053929253711     
  0.21202323690600003        5.3983030275847881E-002

           2 0
 s           4   1.0000000000000000     
   51.049363095579913      -0.16312063210127389     
   8.7911227406887544      -0.19911024581000730     
  0.70640422258929825       0.31882047753655751     
  0.26922813413411617       0.12706504184240380     
 p           4   1.0000000000000000     
   5.8263656140800002       0.73716451545209605     
   1.5106896018720002       0.68216371614850257     
  0.53256483288000001       0.35783053929253711     
  0.21202323690600003        5.3983030275847881E-002

           3 0
 s           4   1.0000000000000000     
   69.137961906196551      -0.20478756370077797     
   11.906129132707308      -0.24997023136827334     
  0.95670827744340703       0.40025880240639616     
  0.36462520496073686       0.15952206667693555     
 p           4   1.0000000000000000     
   8.2124193257781641        1.1321556799186829     
   2.1293576997098116        1.0476840782254817     
  0.75066448202360914       0.54956508217158984     
  0.29885246543283073        8.2908486592766617E-002

[MO]
Sym=     1a
Ene=  -0.82673103181471808     
Spin= Alpha
Occup=     2.00000000
           1 -0.22841691594677194     
           2  0.14941813391579109     
           3   9.5438947075947474E-003
           4   1.2795464628666405E-002
           5 -0.22841684567446355     
           6  -1.2150309799226589E-002
           7  0.14976957356184192     
           8  -1.4216082127743179E-003
           9 -0.62208877683282771     
          10 -0.14695298062850473     
          11 -0.17055400877813218     
          12  -1.2176324110656106E-002
Sym=     2a
Ene=  -0.69874007003226413     
Spin= Alpha
Occup=     2.00000000
           1 -0.27372532377815290     
           2   2.0039213931256100E-002
           3 -0.14816242813889977     
           4   2.0943690174750939E-003
           5 -0.27372662832088657     
           6 -0.14897104231191630     
           7  -1.4768204552469248E-003
           8  -1.2777542520070717E-002
           9  0.63442853938056831     
          10 -0.35278433744090310     
          11 -0.40944495558184602     
          12  -2.9231348728688055E-002
Sym=     3a
Ene=  -0.69619556645534508     
Spin= Alpha
Occup=     2.00000000
           1 -0.31472657889955363     
           2   5.7836364624245365E-002
           3  0.19362215577862066     
           4   4.4720167604446323E-003
           5  0.31472543376007273     
           6 -0.18255638445479114     
           7  -8.5377844086409124E-002
           8  -1.5446644624325068E-002
           9   1.4345520703964330E-006
          10 -0.52013504752724737     
          11  0.45142523473791707     
          12  -4.5768822968766297E-002
Sym=     4a
Ene=  -0.64339884437759753     
Spin= Alpha
Occup=     2.00000000
           1  -1.2415761254075354E-008
           2  -2.6579946210668868E-002
           3   7.8426813197412365E-004
           4  0.30980048479529704     
           5  -1.1795859887608904E-008
           6  -2.6579946597229117E-002
           7   7.8427368676790333E-004
           8  0.30980040181911461     
           9   5.8475428337624583E-008
          10  -6.6462890556038171E-002
          11   1.9610605542942439E-003
          12  0.77465289058197029     
Sym=     5a
Ene=  -0.52174706210713662     
Spin= Alpha
Occup=     2.00000000
           1 -0.37130726234224987     
           2 -0.28072842023198608     
           3 -0.33045803843963656     
           4  -2.3249076146813107E-002
           5 -0.37130691404197563     
           6 -0.28530686688445472     
           7 -0.32648405572518174     
           8  -2.3651953166701590E-002
           9 -0.16816765686457591     
          10  0.34017519726413847     
          11  0.39480833036148338     
          12   2.8186520823225827E-002
Sym=     6a
Ene=  -0.49666808992124217     
Spin= Alpha
Occup=     2.00000000
           1  0.50623964206805394     
           2  0.44256187652072609     
           3   3.0984638239758718E-002
           4   3.7892030783942911E-002
           5 -0.50623988300780187     
           6   3.3309317767547593E-002
           7 -0.44399508956791062     
           8   3.9818379980064546E-003
           9  -1.8789924359936762E-008
          10 -0.26316739265347633     
          11  0.22840399967759717     
          12  -2.3157184358993783E-002
Sym=     7a
Ene=  -0.44876912242487355     
Spin= Alpha
Occup=     2.00000000
           1 -0.36042161511856730     
           2 -0.32811831507386985     
           3  0.50373531200563371     
           4  -2.9426794387487024E-002
           5 -0.36042173476619233     
           6  0.54400173451944811     
           7 -0.25318031597930973     
           8   4.7314643588715156E-002
           9   7.0358667462372085E-002
          10  -4.2160419833015543E-002
          11  -4.8931545281772452E-002
          12  -3.4933633223305678E-003
Sym=     8a
Ene=  -0.36879400114190664     
Spin= Alpha
Occup=     0.00000000
           1  -3.4943274010831176E-009
           2  -5.0981556973879467E-002
           3   1.5042839070481496E-003
           4  0.59421165726853431     
           5  -2.7468596954186946E-009
           6  -5.0981538199626114E-002
           7   1.5042863690447879E-003
           8  0.59421140700544361     
           9  -1.1773792085942133E-008
          10   5.7426680077166233E-002
          11  -1.6944543975738948E-003
          12 -0.66933224430662319     
Sym=     9a
Ene=  -0.33171667392078130     
Spin= Alpha
Occup=     0.00000000
           1   2.5603310163968269E-009
           2   6.6226846880326429E-002
           3  -1.9541224363137902E-003
           4 -0.77190193735387991     
           5  -1.8286683117875611E-009
           6  -6.6226862490456451E-002
           7   1.9541199754553990E-003
           8  0.77190215797863215     
           9  -3.1471682300946534E-012
          10   3.5758030433692389E-009
          11   5.5223413565617713E-010
          12  -4.9961195751335442E-008
Sym=    10a
Ene=   -9.4213342852451323E-002
Spin= Alpha
Occup=     0.00000000
           1   7.9750755979614729E-002
           2   7.8549712605197275E-002
           3  0.81458905380463553     
           4   4.6771393208459517E-003
           5  -7.9750745511595750E-002
           6 -0.79180757621401188     
           7 -0.19555052580076962     
           8  -6.7439637073329298E-002
           9  -3.4853398771093805E-008
          10  0.43890396708090912     
          11 -0.38092613500907807     
          12   3.8620968575597749E-002
Sym=    11a
Ene=   0.20870557735162842     
Spin= Alpha
Occup=     0.00000000
           1 -0.38211373264368287     
           2  0.61644086052733027     
           3  0.23662651635146603     
           4   5.2289718576566682E-002
           5 -0.38211461337437203     
           6  0.14435223656653492     
           7  0.64635409873218519     
           8   1.0748694178764343E-002
           9  0.80817630653558181     
          10  0.55500651447716376     
          11  0.64414289381840106     
          12   4.5987184886739460E-002
Sym=    12a
Ene=   0.28514426059602588     
Spin= Alpha
Occup=     0.00000000
           1 -0.69967902607043819     
           2  0.79668883631880882     
           3 -0.24015563530125394     
           4   6.8961454705125227E-002
           5  0.69967847645340842     
           6  0.35173799293362817     
           7 -0.75656644389204375     
           8   3.2093351326465132E-002
           9   5.8019178451099509E-007
          10  0.42601680451479923     
          11 -0.36974046354397166     
          12   3.7486971956484663E-002
