$hessian                                                                        
        0.5668610483  -0.0602590633   0.0487875065  -0.1845225773   0.2003354399
       -0.0163386400  -0.3823384710  -0.1400763766  -0.0324488665
       -0.0602590633   0.1992257611  -0.0056743986   0.1932256064  -0.1282974883
        0.0169029643  -0.1329665431  -0.0709282728  -0.0112285657
        0.0487875065  -0.0056743986   0.0042001850  -0.0163206409   0.0175129664
       -0.0014445967  -0.0324668656  -0.0118385678  -0.0027555883
       -0.1845225773   0.1932256064  -0.0163206409   0.2226071517  -0.1106664142
        0.0193791774  -0.0380845744  -0.0825591922  -0.0030585364
        0.2003354399  -0.1282974883   0.0175129664  -0.1106664142   0.5459843862
       -0.0108770400  -0.0896690257  -0.4176868979  -0.0066359265
       -0.0163386400   0.0169029643  -0.0014445967   0.0193791774  -0.0108770400
        0.0016902106  -0.0030405374  -0.0060259243  -0.0002456138
       -0.3823384710  -0.1329665431  -0.0324668656  -0.0380845744  -0.0896690257
       -0.0030405374   0.4204230454   0.2226355688   0.0355074030
       -0.1400763766  -0.0709282728  -0.0118385678  -0.0825591922  -0.4176868979
       -0.0060259243   0.2226355688   0.4886151707   0.0178644922
       -0.0324488665  -0.0112285657  -0.0027555883  -0.0030585364  -0.0066359265
       -0.0002456138   0.0355074030   0.0178644922   0.0030012021
