3
 energy: -8.073372553711 gnorm: 0.144898425586 xtb: 6.2.2 (9d81278992624c895f80dd42a50cac0aa55982e2)
C         0.81663900000000   -0.18133600000000    0.07052700000000
C        -0.29663100000000    0.78486500000000   -0.02743600000000
O        -0.52000700000000   -0.60352900000000   -0.04309000000000
3
 energy: -8.084029093505 gnorm: 0.067827249705 xtb: 6.2.2 (9d81278992624c895f80dd42a50cac0aa55982e2)
C         0.79815377546085   -0.19354265745596    0.06897183386201
C        -0.30599862694750    0.76474506952348   -0.02818885613058
O        -0.49215414851335   -0.57120241206751   -0.04078197773143
3
 energy: -8.086079301042 gnorm: 0.026081963877 xtb: 6.2.2 (9d81278992624c895f80dd42a50cac0aa55982e2)
C         0.78269244339551   -0.20556765296559    0.06767565969578
C        -0.31562350919856    0.74765445643711   -0.02897144717628
O        -0.46706793419695   -0.54208680347152   -0.03870321251950
3
 energy: -8.086347388760 gnorm: 0.002800381225 xtb: 6.2.2 (9d81278992624c895f80dd42a50cac0aa55982e2)
C         0.78723683612971   -0.20269830770322    0.06805831317624
C        -0.31345025816266    0.75258175674158   -0.02879744416362
O        -0.47378557796705   -0.54988344903835   -0.03925986901262
3
 energy: -8.086351027671 gnorm: 0.000152924781 xtb: 6.2.2 (9d81278992624c895f80dd42a50cac0aa55982e2)
C         0.78688756391282   -0.20312822227537    0.06802943286375
C        -0.31382373269386    0.75217282073169   -0.02882845410926
O        -0.47306283121896   -0.54904459845632   -0.03919997875449
