 Entering Gaussian System, Link 0=g16
 Initial command:
 /applis/site/cecic/gaussian16/B.01/nehalem/g16/l1.exe "/bettik/tinaccil/g16/12567596_OH_2/Gau-3203.inp" -scrdir="/bettik/tinaccil/g16/12567596_OH_2/"
 Entering Link 1 = /applis/site/cecic/gaussian16/B.01/nehalem/g16/l1.exe PID=      3205.
  
 Copyright (c) 1988-2017, Gaussian, Inc.  All Rights Reserved.
  
 This is part of the Gaussian(R) 16 program.  It is based on
 the Gaussian(R) 09 system (copyright 2009, Gaussian, Inc.),
 the Gaussian(R) 03 system (copyright 2003, Gaussian, Inc.),
 the Gaussian(R) 98 system (copyright 1998, Gaussian, Inc.),
 the Gaussian(R) 94 system (copyright 1995, Gaussian, Inc.),
 the Gaussian 92(TM) system (copyright 1992, Gaussian, Inc.),
 the Gaussian 90(TM) system (copyright 1990, Gaussian, Inc.),
 the Gaussian 88(TM) system (copyright 1988, Gaussian, Inc.),
 the Gaussian 86(TM) system (copyright 1986, Carnegie Mellon
 University), and the Gaussian 82(TM) system (copyright 1983,
 Carnegie Mellon University). Gaussian is a federally registered
 trademark of Gaussian, Inc.
  
 This software contains proprietary and confidential information,
 including trade secrets, belonging to Gaussian, Inc.
  
 This software is provided under written license and may be
 used, copied, transmitted, or stored only in accord with that
 written license.
  
 The following legend is applicable only to US Government
 contracts under FAR:
  
                    RESTRICTED RIGHTS LEGEND
  
 Use, reproduction and disclosure by the US Government is
 subject to restrictions as set forth in subparagraphs (a)
 and (c) of the Commercial Computer Software - Restricted
 Rights clause in FAR 52.227-19.
  
 Gaussian, Inc.
 340 Quinnipiac St., Bldg. 40, Wallingford CT 06492
  
  
 ---------------------------------------------------------------
 Warning -- This program may not be used in any manner that
 competes with the business of Gaussian, Inc. or will provide
 assistance to any competitor of Gaussian, Inc.  The licensee
 of this program is prohibited from giving any competitor of
 Gaussian, Inc. access to this program.  By using this program,
 the user acknowledges that Gaussian, Inc. is engaged in the
 business of creating and licensing software in the field of
 computational chemistry and represents and warrants to the
 licensee that it is not a competitor of Gaussian, Inc. and that
 it will not use this program in any manner prohibited above.
 ---------------------------------------------------------------
  

 Cite this work as:
 Gaussian 16, Revision B.01,
 M. J. Frisch, G. W. Trucks, H. B. Schlegel, G. E. Scuseria, 
 M. A. Robb, J. R. Cheeseman, G. Scalmani, V. Barone, 
 G. A. Petersson, H. Nakatsuji, X. Li, M. Caricato, A. V. Marenich, 
 J. Bloino, B. G. Janesko, R. Gomperts, B. Mennucci, H. P. Hratchian, 
 J. V. Ortiz, A. F. Izmaylov, J. L. Sonnenberg, D. Williams-Young, 
 F. Ding, F. Lipparini, F. Egidi, J. Goings, B. Peng, A. Petrone, 
 T. Henderson, D. Ranasinghe, V. G. Zakrzewski, J. Gao, N. Rega, 
 G. Zheng, W. Liang, M. Hada, M. Ehara, K. Toyota, R. Fukuda, 
 J. Hasegawa, M. Ishida, T. Nakajima, Y. Honda, O. Kitao, H. Nakai, 
 T. Vreven, K. Throssell, J. A. Montgomery, Jr., J. E. Peralta, 
 F. Ogliaro, M. J. Bearpark, J. J. Heyd, E. N. Brothers, K. N. Kudin, 
 V. N. Staroverov, T. A. Keith, R. Kobayashi, J. Normand, 
 K. Raghavachari, A. P. Rendell, J. C. Burant, S. S. Iyengar, 
 J. Tomasi, M. Cossi, J. M. Millam, M. Klene, C. Adamo, R. Cammi, 
 J. W. Ochterski, R. L. Martin, K. Morokuma, O. Farkas, 
 J. B. Foresman, and D. J. Fox, Gaussian, Inc., Wallingford CT, 2016.
 
 ******************************************
 Gaussian 16:  ES64L-G16RevB.01 20-Dec-2017
                 2-Oct-2020 
 ******************************************
 %nosave
 %nproc=8
 Will use up to    8 processors via shared memory.
 %mem=2gb
 %chk=input
 --------------------------------------------------------
 #P M062X/cc-pvtz nosymm opt(noeigentest) optcyc=120 freq
 --------------------------------------------------------
 1/6=120,11=1,18=20,19=15,26=3,38=1/1,3;
 2/9=110,12=2,15=1,17=6,18=5,40=1/2;
 3/5=16,6=1,11=2,25=1,30=1,71=1,74=-55/1,2,3;
 4//1;
 5/5=2,38=5/2;
 6/7=2,8=2,9=2,10=2,28=1/1;
 7/30=1/1,2,3,16;
 1/6=120,11=1,18=20,19=15,26=3/3(2);
 2/9=110,15=1/2;
 99//99;
 2/9=110,15=1/2;
 3/5=16,6=1,11=2,25=1,30=1,71=1,74=-55/1,2,3;
 4/5=5,16=3,69=1/1;
 5/5=2,38=5/2;
 7/30=1/1,2,3,16;
 1/6=120,11=1,18=20,19=15,26=3/3(-5);
 2/9=110,15=1/2;
 6/7=2,8=2,9=2,10=2,19=2,28=1/1;
 99/9=1/99;
 Leave Link    1 at Fri Oct  2 21:28:52 2020, MaxMem=   268435456 cpu:               0.9 elap:               0.2
 (Enter /applis/site/cecic/gaussian16/B.01/nehalem/g16/l101.exe)
 -----
 Title
 -----
 Symbolic Z-matrix:
 Charge =  0 Multiplicity = 2
 O
 H                    1    B1
       Variables:
  B1                    0.97                     
 
 ITRead=  0  0
 MicOpt= -1 -1
 NAtoms=      2 NQM=        2 NQMF=       0 NMMI=      0 NMMIF=      0
                NMic=       0 NMicF=      0.
                    Isotopes and Nuclear Properties:
 (Nuclear quadrupole moments (NQMom) in fm**2, nuclear magnetic moments (NMagM)
  in nuclear magnetons)

  Atom         1           2
 IAtWgt=          16           1
 AtmWgt=  15.9949146   1.0078250
 NucSpn=           0           1
 AtZEff=  -0.0000000  -0.0000000
 NQMom=    0.0000000   0.0000000
 NMagM=    0.0000000   2.7928460
 AtZNuc=   8.0000000   1.0000000
 Leave Link  101 at Fri Oct  2 21:28:53 2020, MaxMem=   268435456 cpu:               2.4 elap:               0.4
 (Enter /applis/site/cecic/gaussian16/B.01/nehalem/g16/l103.exe)

 GradGradGradGradGradGradGradGradGradGradGradGradGradGradGradGradGradGrad
 Berny optimization.
 Initialization pass.
                           ----------------------------
                           !    Initial Parameters    !
                           ! (Angstroms and Degrees)  !
 --------------------------                            --------------------------
 ! Name  Definition              Value          Derivative Info.                !
 --------------------------------------------------------------------------------
 ! R1    R(1,2)                  0.97           estimate D2E/DX2                !
 --------------------------------------------------------------------------------
 Trust Radius=3.00D-01 FncErr=1.00D-07 GrdErr=1.00D-06 EigMax=2.50D+02 EigMin=1.00D-04
 Number of steps in this run=    100 maximum allowed number of steps=    100.
 GradGradGradGradGradGradGradGradGradGradGradGradGradGradGradGradGradGrad

 Leave Link  103 at Fri Oct  2 21:28:53 2020, MaxMem=   268435456 cpu:               0.2 elap:               0.1
 (Enter /applis/site/cecic/gaussian16/B.01/nehalem/g16/l202.exe)
                          Input orientation:                          
 ---------------------------------------------------------------------
 Center     Atomic      Atomic             Coordinates (Angstroms)
 Number     Number       Type             X           Y           Z
 ---------------------------------------------------------------------
      1          8           0        0.000000    0.000000    0.000000
      2          1           0        0.000000    0.000000    0.970000
 ---------------------------------------------------------------------
 Symmetry turned off by external request.
 Stoichiometry    HO(2)
 Framework group  C*V[C*(HO)]
 Deg. of freedom     1
 Full point group                 C*V     NOp   4
 Rotational constants (GHZ):           0.0000000         566.5334626         566.5334626
 Leave Link  202 at Fri Oct  2 21:28:53 2020, MaxMem=   268435456 cpu:               0.1 elap:               0.1
 (Enter /applis/site/cecic/gaussian16/B.01/nehalem/g16/l301.exe)
 Standard basis: CC-pVTZ (5D, 7F)
 Ernie: Thresh=  0.10000D-02 Tol=  0.10000D-05 Strict=F.
 Ernie:  3 primitive shells out of 34 were deleted.
    44 basis functions,    69 primitive gaussians,    50 cartesian basis functions
     5 alpha electrons        4 beta electrons
       nuclear repulsion energy         4.3643481313 Hartrees.
 IExCor= 4336 DFT=T Ex+Corr=M062X ExCW=0 ScaHFX=  0.540000
 ScaDFX=  1.000000  1.000000  1.000000  1.000000 ScalE2=  1.000000  1.000000
 IRadAn=      5 IRanWt=     -1 IRanGd=            0 ICorTp=0 IEmpDi=  4
 NAtoms=    2 NActive=    2 NUniq=    2 SFac= 1.00D+00 NAtFMM=   60 NAOKFM=F Big=F
 Integral buffers will be    131072 words long.
 Raffenetti 2 integral format.
 Two-electron integral symmetry is turned off.
 Leave Link  301 at Fri Oct  2 21:28:53 2020, MaxMem=   268435456 cpu:               0.7 elap:               0.1
 (Enter /applis/site/cecic/gaussian16/B.01/nehalem/g16/l302.exe)
 NPDir=0 NMtPBC=     1 NCelOv=     1 NCel=       1 NClECP=     1 NCelD=      1
         NCelK=      1 NCelE2=     1 NClLst=     1 CellRange=     0.0.
 One-electron integrals computed using PRISM.
 NBasis=    44 RedAO= T EigKep=  4.08D-03  NBF=    44
 NBsUse=    44 1.00D-06 EigRej= -1.00D+00 NBFU=    44
 Precomputing XC quadrature grid using
 IXCGrd= 4 IRadAn=           5 IRanWt=          -1 IRanGd=           0 AccXCQ= 0.00D+00.
 Generated NRdTot=       0 NPtTot=           0 NUsed=           0 NTot=          32
 NSgBfM=    50    50    50    50    50 MxSgAt=     2 MxSgA2=     2.
 Leave Link  302 at Fri Oct  2 21:28:53 2020, MaxMem=   268435456 cpu:               1.6 elap:               0.3
 (Enter /applis/site/cecic/gaussian16/B.01/nehalem/g16/l303.exe)
 DipDrv:  MaxL=1.
 Leave Link  303 at Fri Oct  2 21:28:54 2020, MaxMem=   268435456 cpu:               0.6 elap:               0.1
 (Enter /applis/site/cecic/gaussian16/B.01/nehalem/g16/l401.exe)
 ExpMin= 1.03D-01 ExpMax= 1.53D+04 ExpMxC= 5.22D+02 IAcc=3 IRadAn=         5 AccDes= 0.00D+00
 Harris functional with IExCor= 1009 and IRadAn=       5 diagonalized for initial guess.
 HarFok:  IExCor= 1009 AccDes= 0.00D+00 IRadAn=         5 IDoV= 1 UseB2=F ITyADJ=14
 ICtDFT=  3500011 ScaDFX=  1.000000  1.000000  1.000000  1.000000
 FoFCou: FMM=F IPFlag=           0 FMFlag=      100000 FMFlg1=           0
         NFxFlg=           0 DoJE=T BraDBF=F KetDBF=T FulRan=T
         wScrn=  0.000000 ICntrl=       500 IOpCl=  0 I1Cent=   200000004 NGrid=           0
         NMat0=    1 NMatS0=      1 NMatT0=    0 NMatD0=    1 NMtDS0=    0 NMtDT0=    0
 Symmetry not used in FoFCou.
 Harris En= -75.6569015292388    
 JPrj=0 DoOrth=F DoCkMO=F.
 Initial guess <Sx>= 0.0000 <Sy>= 0.0000 <Sz>= 0.5000 <S**2>= 0.7500 S= 0.5000
 Leave Link  401 at Fri Oct  2 21:28:54 2020, MaxMem=   268435456 cpu:               2.0 elap:               0.3
 (Enter /applis/site/cecic/gaussian16/B.01/nehalem/g16/l502.exe)
 Keep R1 and R2 ints in memory in canonical form, NReq=7968554.
 FoFCou: FMM=F IPFlag=           0 FMFlag=           0 FMFlg1=           0
         NFxFlg=           0 DoJE=F BraDBF=F KetDBF=F FulRan=T
         wScrn=  0.000000 ICntrl=       600 IOpCl=  0 I1Cent=           0 NGrid=           0
         NMat0=    1 NMatS0=    990 NMatT0=    0 NMatD0=    1 NMtDS0=    0 NMtDT0=    0
 Symmetry not used in FoFCou.
 Two-electron integral symmetry not used.
 UHF open shell SCF:
 Using DIIS extrapolation, IDIIS=  1040.
 NGot=   268435456 LenX=   267448500 LenY=   267445559
 Requested convergence on RMS density matrix=1.00D-08 within 128 cycles.
 Requested convergence on MAX density matrix=1.00D-06.
 Requested convergence on             energy=1.00D-06.
 No special actions if energy rises.
 Integral accuracy reduced to 1.0D-05 until final iterations.

 Cycle   1  Pass 0  IDiag  1:
 E= -75.7146977483789    
 DIIS: error= 2.88D-02 at cycle   1 NSaved=   1.
 NSaved= 1 IEnMin= 1 EnMin= -75.7146977483789     IErMin= 1 ErrMin= 2.88D-02
 ErrMax= 2.88D-02  0.00D+00 EMaxC= 1.00D-01 BMatC= 1.11D-01 BMatP= 1.11D-01
 IDIUse=3 WtCom= 7.12D-01 WtEn= 2.88D-01
 Coeff-Com:  0.100D+01
 Coeff-En:   0.100D+01
 Coeff:      0.100D+01
 Gap=     0.514 Goal=   None    Shift=    0.000
 Gap=     0.331 Goal=   None    Shift=    0.000
 GapD=    0.331 DampG=1.000 DampE=0.500 DampFc=0.5000 IDamp=-1.
 Damping current iteration by 5.00D-01
 RMSDP=3.02D-03 MaxDP=5.64D-02              OVMax= 7.92D-02

 Cycle   2  Pass 0  IDiag  1:
 E= -75.7225951532803     Delta-E=       -0.007897404901 Rises=F Damp=T
 DIIS: error= 8.79D-03 at cycle   2 NSaved=   2.
 NSaved= 2 IEnMin= 2 EnMin= -75.7225951532803     IErMin= 2 ErrMin= 8.79D-03
 ErrMax= 8.79D-03  0.00D+00 EMaxC= 1.00D-01 BMatC= 1.50D-02 BMatP= 1.11D-01
 IDIUse=3 WtCom= 9.12D-01 WtEn= 8.79D-02
 Coeff-Com: -0.176D+00 0.118D+01
 Coeff-En:   0.000D+00 0.100D+01
 Coeff:     -0.160D+00 0.116D+01
 Gap=     0.507 Goal=   None    Shift=    0.000
 Gap=     0.311 Goal=   None    Shift=    0.000
 RMSDP=6.77D-04 MaxDP=1.04D-02 DE=-7.90D-03 OVMax= 3.35D-02

 Cycle   3  Pass 0  IDiag  1:
 E= -75.7302681617794     Delta-E=       -0.007673008499 Rises=F Damp=F
 DIIS: error= 3.23D-03 at cycle   3 NSaved=   3.
 NSaved= 3 IEnMin= 3 EnMin= -75.7302681617794     IErMin= 3 ErrMin= 3.23D-03
 ErrMax= 3.23D-03  0.00D+00 EMaxC= 1.00D-01 BMatC= 9.73D-04 BMatP= 1.50D-02
 IDIUse=3 WtCom= 9.68D-01 WtEn= 3.23D-02
 Coeff-Com: -0.104D+00 0.189D+00 0.915D+00
 Coeff-En:   0.000D+00 0.000D+00 0.100D+01
 Coeff:     -0.101D+00 0.183D+00 0.918D+00
 Gap=     0.504 Goal=   None    Shift=    0.000
 Gap=     0.310 Goal=   None    Shift=    0.000
 RMSDP=1.74D-04 MaxDP=3.64D-03 DE=-7.67D-03 OVMax= 6.37D-03

 Cycle   4  Pass 0  IDiag  1:
 E= -75.7304543427102     Delta-E=       -0.000186180931 Rises=F Damp=F
 DIIS: error= 4.58D-04 at cycle   4 NSaved=   4.
 NSaved= 4 IEnMin= 4 EnMin= -75.7304543427102     IErMin= 4 ErrMin= 4.58D-04
 ErrMax= 4.58D-04  0.00D+00 EMaxC= 1.00D-01 BMatC= 2.23D-05 BMatP= 9.73D-04
 IDIUse=3 WtCom= 9.95D-01 WtEn= 4.58D-03
 Coeff-Com:  0.191D-01-0.459D-01-0.150D+00 0.118D+01
 Coeff-En:   0.000D+00 0.000D+00 0.000D+00 0.100D+01
 Coeff:      0.190D-01-0.456D-01-0.149D+00 0.118D+01
 Gap=     0.504 Goal=   None    Shift=    0.000
 Gap=     0.310 Goal=   None    Shift=    0.000
 RMSDP=6.48D-05 MaxDP=1.07D-03 DE=-1.86D-04 OVMax= 1.94D-03

 Cycle   5  Pass 0  IDiag  1:
 E= -75.7304658635833     Delta-E=       -0.000011520873 Rises=F Damp=F
 DIIS: error= 2.06D-04 at cycle   5 NSaved=   5.
 NSaved= 5 IEnMin= 5 EnMin= -75.7304658635833     IErMin= 5 ErrMin= 2.06D-04
 ErrMax= 2.06D-04  0.00D+00 EMaxC= 1.00D-01 BMatC= 2.29D-06 BMatP= 2.23D-05
 IDIUse=3 WtCom= 9.98D-01 WtEn= 2.06D-03
 Coeff-Com:  0.918D-02-0.161D-01-0.792D-01 0.227D-01 0.106D+01
 Coeff-En:   0.000D+00 0.000D+00 0.000D+00 0.000D+00 0.100D+01
 Coeff:      0.916D-02-0.161D-01-0.790D-01 0.226D-01 0.106D+01
 Gap=     0.504 Goal=   None    Shift=    0.000
 Gap=     0.310 Goal=   None    Shift=    0.000
 RMSDP=2.40D-05 MaxDP=3.62D-04 DE=-1.15D-05 OVMax= 6.80D-04

 Cycle   6  Pass 0  IDiag  1:
 E= -75.7304671505673     Delta-E=       -0.000001286984 Rises=F Damp=F
 DIIS: error= 5.80D-05 at cycle   6 NSaved=   6.
 NSaved= 6 IEnMin= 6 EnMin= -75.7304671505673     IErMin= 6 ErrMin= 5.80D-05
 ErrMax= 5.80D-05  0.00D+00 EMaxC= 1.00D-01 BMatC= 1.59D-07 BMatP= 2.29D-06
 IDIUse=1 WtCom= 1.00D+00 WtEn= 0.00D+00
 Coeff-Com: -0.380D-02 0.746D-02 0.341D-01-0.838D-01-0.345D+00 0.139D+01
 Coeff:     -0.380D-02 0.746D-02 0.341D-01-0.838D-01-0.345D+00 0.139D+01
 Gap=     0.504 Goal=   None    Shift=    0.000
 Gap=     0.310 Goal=   None    Shift=    0.000
 RMSDP=9.24D-06 MaxDP=1.53D-04 DE=-1.29D-06 OVMax= 3.03D-04

 Initial convergence to 1.0D-05 achieved.  Increase integral accuracy.
 Cycle   7  Pass 1  IDiag  1:
 E= -75.7304844869945     Delta-E=       -0.000017336427 Rises=F Damp=F
 DIIS: error= 4.51D-05 at cycle   1 NSaved=   1.
 NSaved= 1 IEnMin= 1 EnMin= -75.7304844869945     IErMin= 1 ErrMin= 4.51D-05
 ErrMax= 4.51D-05  0.00D+00 EMaxC= 1.00D-01 BMatC= 2.48D-07 BMatP= 2.48D-07
 IDIUse=1 WtCom= 1.00D+00 WtEn= 0.00D+00
 Coeff-Com:  0.100D+01
 Coeff:      0.100D+01
 Gap=     0.504 Goal=   None    Shift=    0.000
 Gap=     0.310 Goal=   None    Shift=    0.000
 RMSDP=9.24D-06 MaxDP=1.53D-04 DE=-1.73D-05 OVMax= 7.43D-05

 Cycle   8  Pass 1  IDiag  1:
 E= -75.7304845172858     Delta-E=       -0.000000030291 Rises=F Damp=F
 DIIS: error= 6.40D-06 at cycle   2 NSaved=   2.
 NSaved= 2 IEnMin= 2 EnMin= -75.7304845172858     IErMin= 2 ErrMin= 6.40D-06
 ErrMax= 6.40D-06  0.00D+00 EMaxC= 1.00D-01 BMatC= 2.54D-09 BMatP= 2.48D-07
 IDIUse=1 WtCom= 1.00D+00 WtEn= 0.00D+00
 Coeff-Com: -0.511D-01 0.105D+01
 Coeff:     -0.511D-01 0.105D+01
 Gap=     0.504 Goal=   None    Shift=    0.000
 Gap=     0.310 Goal=   None    Shift=    0.000
 RMSDP=4.99D-07 MaxDP=7.53D-06 DE=-3.03D-08 OVMax= 1.85D-05

 Cycle   9  Pass 1  IDiag  1:
 E= -75.7304845182940     Delta-E=       -0.000000001008 Rises=F Damp=F
 DIIS: error= 3.94D-06 at cycle   3 NSaved=   3.
 NSaved= 3 IEnMin= 3 EnMin= -75.7304845182940     IErMin= 3 ErrMin= 3.94D-06
 ErrMax= 3.94D-06  0.00D+00 EMaxC= 1.00D-01 BMatC= 7.43D-10 BMatP= 2.54D-09
 IDIUse=1 WtCom= 1.00D+00 WtEn= 0.00D+00
 Coeff-Com: -0.201D-01 0.309D+00 0.711D+00
 Coeff:     -0.201D-01 0.309D+00 0.711D+00
 Gap=     0.504 Goal=   None    Shift=    0.000
 Gap=     0.310 Goal=   None    Shift=    0.000
 RMSDP=2.10D-07 MaxDP=3.36D-06 DE=-1.01D-09 OVMax= 9.37D-06

 Cycle  10  Pass 1  IDiag  1:
 E= -75.7304845185088     Delta-E=       -0.000000000215 Rises=F Damp=F
 DIIS: error= 1.54D-06 at cycle   4 NSaved=   4.
 NSaved= 4 IEnMin= 4 EnMin= -75.7304845185088     IErMin= 4 ErrMin= 1.54D-06
 ErrMax= 1.54D-06  0.00D+00 EMaxC= 1.00D-01 BMatC= 1.56D-10 BMatP= 7.43D-10
 IDIUse=1 WtCom= 1.00D+00 WtEn= 0.00D+00
 Coeff-Com:  0.102D-01-0.227D+00 0.133D+00 0.108D+01
 Coeff:      0.102D-01-0.227D+00 0.133D+00 0.108D+01
 Gap=     0.504 Goal=   None    Shift=    0.000
 Gap=     0.310 Goal=   None    Shift=    0.000
 RMSDP=2.07D-07 MaxDP=2.77D-06 DE=-2.15D-10 OVMax= 1.14D-05

 Cycle  11  Pass 1  IDiag  1:
 E= -75.7304845186423     Delta-E=       -0.000000000134 Rises=F Damp=F
 DIIS: error= 8.24D-07 at cycle   5 NSaved=   5.
 NSaved= 5 IEnMin= 5 EnMin= -75.7304845186423     IErMin= 5 ErrMin= 8.24D-07
 ErrMax= 8.24D-07  0.00D+00 EMaxC= 1.00D-01 BMatC= 2.75D-11 BMatP= 1.56D-10
 IDIUse=1 WtCom= 1.00D+00 WtEn= 0.00D+00
 Coeff-Com:  0.811D-03 0.187D-01-0.818D-01-0.252D+00 0.131D+01
 Coeff:      0.811D-03 0.187D-01-0.818D-01-0.252D+00 0.131D+01
 Gap=     0.504 Goal=   None    Shift=    0.000
 Gap=     0.310 Goal=   None    Shift=    0.000
 RMSDP=1.51D-07 MaxDP=2.11D-06 DE=-1.34D-10 OVMax= 1.26D-05

 Cycle  12  Pass 1  IDiag  1:
 E= -75.7304845187199     Delta-E=       -0.000000000078 Rises=F Damp=F
 DIIS: error= 8.30D-07 at cycle   6 NSaved=   6.
 NSaved= 6 IEnMin= 6 EnMin= -75.7304845187199     IErMin= 5 ErrMin= 8.24D-07
 ErrMax= 8.30D-07  0.00D+00 EMaxC= 1.00D-01 BMatC= 2.20D-11 BMatP= 2.75D-11
 IDIUse=1 WtCom= 1.00D+00 WtEn= 0.00D+00
 Coeff-Com:  0.131D-02-0.179D-01 0.322D-01 0.136D+00-0.615D+00 0.146D+01
 Coeff:      0.131D-02-0.179D-01 0.322D-01 0.136D+00-0.615D+00 0.146D+01
 Gap=     0.504 Goal=   None    Shift=    0.000
 Gap=     0.310 Goal=   None    Shift=    0.000
 RMSDP=1.44D-07 MaxDP=2.18D-06 DE=-7.76D-11 OVMax= 1.30D-05

 Cycle  13  Pass 1  IDiag  1:
 E= -75.7304845187954     Delta-E=       -0.000000000075 Rises=F Damp=F
 DIIS: error= 8.32D-07 at cycle   7 NSaved=   7.
 NSaved= 7 IEnMin= 7 EnMin= -75.7304845187954     IErMin= 5 ErrMin= 8.24D-07
 ErrMax= 8.32D-07  0.00D+00 EMaxC= 1.00D-01 BMatC= 2.19D-11 BMatP= 2.20D-11
 IDIUse=1 WtCom= 1.00D+00 WtEn= 0.00D+00
 Coeff-Com:  0.162D-02-0.193D-01 0.122D-01 0.754D-01-0.125D+00-0.316D+00
 Coeff-Com:  0.137D+01
 Coeff:      0.162D-02-0.193D-01 0.122D-01 0.754D-01-0.125D+00-0.316D+00
 Coeff:      0.137D+01
 Gap=     0.504 Goal=   None    Shift=    0.000
 Gap=     0.310 Goal=   None    Shift=    0.000
 RMSDP=1.52D-07 MaxDP=2.29D-06 DE=-7.55D-11 OVMax= 1.37D-05

 Cycle  14  Pass 1  IDiag  1:
 E= -75.7304845188751     Delta-E=       -0.000000000080 Rises=F Damp=F
 DIIS: error= 8.32D-07 at cycle   8 NSaved=   8.
 NSaved= 8 IEnMin= 8 EnMin= -75.7304845188751     IErMin= 5 ErrMin= 8.24D-07
 ErrMax= 8.32D-07  0.00D+00 EMaxC= 1.00D-01 BMatC= 2.19D-11 BMatP= 2.19D-11
 IDIUse=1 WtCom= 1.00D+00 WtEn= 0.00D+00
 Coeff-Com:  0.173D-02-0.230D-01 0.189D-01 0.889D-01-0.159D+00-0.714D+00
 Coeff-Com:  0.535D+01-0.357D+01
 Coeff:      0.173D-02-0.230D-01 0.189D-01 0.889D-01-0.159D+00-0.714D+00
 Coeff:      0.535D+01-0.357D+01
 Gap=     0.504 Goal=   None    Shift=    0.000
 Gap=     0.310 Goal=   None    Shift=    0.000
 RMSDP=4.81D-07 MaxDP=7.27D-06 DE=-7.97D-11 OVMax= 4.36D-05

 Cycle  15  Pass 1  IDiag  1:
 E= -75.7304845186227     Delta-E=        0.000000000252 Rises=F Damp=F
 DIIS: error= 8.32D-07 at cycle   9 NSaved=   9.
 NSaved= 9 IEnMin= 8 EnMin= -75.7304845188751     IErMin= 5 ErrMin= 8.24D-07
 ErrMax= 8.32D-07  0.00D+00 EMaxC= 1.00D-01 BMatC= 2.19D-11 BMatP= 2.19D-11
 IDIUse=1 WtCom= 1.00D+00 WtEn= 0.00D+00
 Coeff-Com:  0.171D-02-0.235D-01 0.228D-01 0.102D+00-0.241D+00-0.489D+00
 Coeff-Com:  0.552D+01-0.243D+01-0.146D+01
 Coeff:      0.171D-02-0.235D-01 0.228D-01 0.102D+00-0.241D+00-0.489D+00
 Coeff:      0.552D+01-0.243D+01-0.146D+01
 Gap=     0.504 Goal=   None    Shift=    0.000
 Gap=     0.310 Goal=   None    Shift=    0.000
 RMSDP=6.38D-07 MaxDP=9.64D-06 DE= 2.52D-10 OVMax= 5.78D-05

 Cycle  16  Pass 1  IDiag  1:
 E= -75.7304845189576     Delta-E=       -0.000000000335 Rises=F Damp=F
 DIIS: error= 8.32D-07 at cycle  10 NSaved=  10.
 NSaved=10 IEnMin=10 EnMin= -75.7304845189576     IErMin= 5 ErrMin= 8.24D-07
 ErrMax= 8.32D-07  0.00D+00 EMaxC= 1.00D-01 BMatC= 2.18D-11 BMatP= 2.19D-11
 IDIUse=1 WtCom= 1.00D+00 WtEn= 0.00D+00
 Large coefficients: NSaved= 10 BigCof=   65.91 CofMax=   10.00 Det=-3.79D-17
 Inversion failed.  Reducing to  9 matrices.
 Large coefficients: NSaved=  9 BigCof=   51.71 CofMax=   10.00 Det=-3.89D-17
 Inversion failed.  Reducing to  8 matrices.
 Large coefficients: NSaved=  8 BigCof=   45.92 CofMax=   10.00 Det=-4.32D-17
 Inversion failed.  Reducing to  7 matrices.
 Large coefficients: NSaved=  7 BigCof=   43.95 CofMax=   10.00 Det=-4.34D-17
 Inversion failed.  Reducing to  6 matrices.
 Large coefficients: NSaved=  6 BigCof=   18.01 CofMax=   10.00 Det=-9.44D-17
 Inversion failed.  Reducing to  5 matrices.
 Large coefficients: NSaved=  5 BigCof=   17.50 CofMax=   10.00 Det=-9.55D-17
 Inversion failed.  Reducing to  4 matrices.
 Large coefficients: NSaved=  4 BigCof=   17.48 CofMax=   10.00 Det=-9.55D-17
 Inversion failed.  Reducing to  3 matrices.
 Large coefficients: NSaved=  3 BigCof=   12.14 CofMax=   10.00 Det=-1.27D-16
 Inversion failed.  Reducing to  2 matrices.
 Large coefficients: NSaved=  2 BigCof=   12.11 CofMax=   10.00 Det=-1.40D-16
 Coeff-Com: -0.111D+02 0.121D+02
 Coeff:     -0.111D+02 0.121D+02
 Gap=     0.504 Goal=   None    Shift=    0.000
 Gap=     0.310 Goal=   None    Shift=    0.000
 RMSDP=7.19D-06 MaxDP=1.09D-04 DE=-3.35D-10 OVMax= 6.51D-04

 Cycle  17  Pass 1  IDiag  1:
 E= -75.7304845227284     Delta-E=       -0.000000003771 Rises=F Damp=F
 DIIS: error= 8.31D-07 at cycle  11 NSaved=   3.
 NSaved= 3 IEnMin= 3 EnMin= -75.7304845227284     IErMin= 3 ErrMin= 8.31D-07
 ErrMax= 8.31D-07  0.00D+00 EMaxC= 1.00D-01 BMatC= 2.18D-11 BMatP= 2.18D-11
 IDIUse=1 WtCom= 1.00D+00 WtEn= 0.00D+00
 Large coefficients: NSaved=  3 BigCof=   25.25 CofMax=   10.00 Det=-1.04D-16
 Inversion failed.  Reducing to  2 matrices.
 Coeff-Com: -0.814D-01 0.108D+01
 Coeff:     -0.814D-01 0.108D+01
 Gap=     0.504 Goal=   None    Shift=    0.000
 Gap=     0.310 Goal=   None    Shift=    0.000
 RMSDP=6.82D-07 MaxDP=1.03D-05 DE=-3.77D-09 OVMax= 6.18D-05

 Cycle  18  Pass 1  IDiag  1:
 E= -75.7304845230865     Delta-E=       -0.000000000358 Rises=F Damp=F
 DIIS: error= 8.30D-07 at cycle  12 NSaved=   3.
 NSaved= 3 IEnMin= 3 EnMin= -75.7304845230865     IErMin= 3 ErrMin= 8.30D-07
 ErrMax= 8.30D-07  0.00D+00 EMaxC= 1.00D-01 BMatC= 2.18D-11 BMatP= 2.18D-11
 IDIUse=1 WtCom= 1.00D+00 WtEn= 0.00D+00
 Large coefficients: NSaved=  3 BigCof=   21.66 CofMax=   10.00 Det=-1.26D-15
 Inversion failed.  Reducing to  2 matrices.
 Coeff-Com:  0.122D+00 0.878D+00
 Coeff:      0.122D+00 0.878D+00
 Gap=     0.504 Goal=   None    Shift=    0.000
 Gap=     0.310 Goal=   None    Shift=    0.000
 RMSDP=1.45D-08 MaxDP=2.21D-07 DE=-3.58D-10 OVMax= 1.32D-06

 Cycle  19  Pass 1  IDiag  1:
 E= -75.7304845230941     Delta-E=       -0.000000000008 Rises=F Damp=F
 DIIS: error= 8.30D-07 at cycle  13 NSaved=   3.
 NSaved= 3 IEnMin= 3 EnMin= -75.7304845230941     IErMin= 2 ErrMin= 8.30D-07
 ErrMax= 8.30D-07  0.00D+00 EMaxC= 1.00D-01 BMatC= 2.18D-11 BMatP= 2.18D-11
 IDIUse=1 WtCom= 1.00D+00 WtEn= 0.00D+00
 Coeff-Com: -0.178D+00 0.394D+00 0.784D+00
 Coeff:     -0.178D+00 0.394D+00 0.784D+00
 Gap=     0.504 Goal=   None    Shift=    0.000
 Gap=     0.310 Goal=   None    Shift=    0.000
 RMSDP=2.15D-07 MaxDP=3.26D-06 DE=-7.56D-12 OVMax= 1.95D-05

 Cycle  20  Pass 1  IDiag  1:
 E= -75.7304845232069     Delta-E=       -0.000000000113 Rises=F Damp=F
 DIIS: error= 8.30D-07 at cycle  14 NSaved=   4.
 NSaved= 4 IEnMin= 4 EnMin= -75.7304845232069     IErMin= 4 ErrMin= 8.30D-07
 ErrMax= 8.30D-07  0.00D+00 EMaxC= 1.00D-01 BMatC= 2.18D-11 BMatP= 2.18D-11
 IDIUse=1 WtCom= 1.00D+00 WtEn= 0.00D+00
 Coeff-Com:  0.137D-01-0.171D+01-0.259D+01 0.529D+01
 Coeff:      0.137D-01-0.171D+01-0.259D+01 0.529D+01
 Gap=     0.504 Goal=   None    Shift=    0.000
 Gap=     0.310 Goal=   None    Shift=    0.000
 RMSDP=1.04D-06 MaxDP=1.57D-05 DE=-1.13D-10 OVMax= 9.39D-05

 Cycle  21  Pass 1  IDiag  1:
 E= -75.7304845237503     Delta-E=       -0.000000000543 Rises=F Damp=F
 DIIS: error= 8.30D-07 at cycle  15 NSaved=   5.
 NSaved= 5 IEnMin= 5 EnMin= -75.7304845237503     IErMin= 5 ErrMin= 8.30D-07
 ErrMax= 8.30D-07  0.00D+00 EMaxC= 1.00D-01 BMatC= 2.18D-11 BMatP= 2.18D-11
 IDIUse=1 WtCom= 1.00D+00 WtEn= 0.00D+00
 Large coefficients: NSaved=  5 BigCof=   20.18 CofMax=   10.00 Det=-1.32D-16
 Inversion failed.  Reducing to  4 matrices.
 Large coefficients: NSaved=  4 BigCof=   16.32 CofMax=   10.00 Det=-1.35D-16
 Inversion failed.  Reducing to  3 matrices.
 Large coefficients: NSaved=  3 BigCof=   14.88 CofMax=   10.00 Det=-3.07D-16
 Inversion failed.  Reducing to  2 matrices.
 Large coefficients: NSaved=  2 BigCof=   12.04 CofMax=   10.00 Det=-3.08D-16
 Coeff-Com: -0.110D+02 0.120D+02
 Coeff:     -0.110D+02 0.120D+02
 Gap=     0.504 Goal=   None    Shift=    0.000
 Gap=     0.310 Goal=   None    Shift=    0.000
 RMSDP=1.15D-05 MaxDP=1.74D-04 DE=-5.43D-10 OVMax= 1.04D-03

 Cycle  22  Pass 1  IDiag  1:
 E= -75.7304845297910     Delta-E=       -0.000000006041 Rises=F Damp=F
 DIIS: error= 8.29D-07 at cycle  16 NSaved=   3.
 NSaved= 3 IEnMin= 3 EnMin= -75.7304845297910     IErMin= 3 ErrMin= 8.29D-07
 ErrMax= 8.29D-07  0.00D+00 EMaxC= 1.00D-01 BMatC= 2.18D-11 BMatP= 2.18D-11
 IDIUse=1 WtCom= 1.00D+00 WtEn= 0.00D+00
 Large coefficients: NSaved=  3 BigCof=   18.47 CofMax=   10.00 Det=-2.43D-16
 Inversion failed.  Reducing to  2 matrices.
 Coeff-Com:  0.659D+00 0.341D+00
 Coeff:      0.659D+00 0.341D+00
 Gap=     0.504 Goal=   None    Shift=    0.000
 Gap=     0.310 Goal=   None    Shift=    0.000
 RMSDP=7.51D-06 MaxDP=1.14D-04 DE=-6.04D-09 OVMax= 6.80D-04

 Cycle  23  Pass 1  IDiag  1:
 E= -75.7304845258601     Delta-E=        0.000000003931 Rises=F Damp=F
 DIIS: error= 8.30D-07 at cycle  17 NSaved=   3.
 NSaved= 3 IEnMin= 2 EnMin= -75.7304845297910     IErMin= 2 ErrMin= 8.29D-07
 ErrMax= 8.30D-07  0.00D+00 EMaxC= 1.00D-01 BMatC= 2.18D-11 BMatP= 2.18D-11
 IDIUse=1 WtCom= 1.00D+00 WtEn= 0.00D+00
 Large coefficients: NSaved=  3 BigCof=   16.27 CofMax=   10.00 Det=-1.21D-15
 Inversion failed.  Reducing to  2 matrices.
 Coeff-Com:  0.355D+00 0.645D+00
 Coeff:      0.355D+00 0.645D+00
 Gap=     0.504 Goal=   None    Shift=    0.000
 Gap=     0.310 Goal=   None    Shift=    0.000
 RMSDP=2.77D-06 MaxDP=4.18D-05 DE= 3.93D-09 OVMax= 2.51D-04

 Cycle  24  Pass 1  IDiag  1:
 E= -75.7304845273090     Delta-E=       -0.000000001449 Rises=F Damp=F
 DIIS: error= 8.29D-07 at cycle  18 NSaved=   3.
 NSaved= 3 IEnMin= 1 EnMin= -75.7304845297910     IErMin= 1 ErrMin= 8.29D-07
 ErrMax= 8.29D-07  0.00D+00 EMaxC= 1.00D-01 BMatC= 2.17D-11 BMatP= 2.18D-11
 IDIUse=1 WtCom= 1.00D+00 WtEn= 0.00D+00
 Large coefficients: NSaved=  3 BigCof=   10.02 CofMax=   10.00 Det=-9.54D-16
 Inversion failed.  Reducing to  2 matrices.
 Coeff-Com: -0.256D+01 0.356D+01
 Coeff:     -0.256D+01 0.356D+01
 Gap=     0.504 Goal=   None    Shift=    0.000
 Gap=     0.310 Goal=   None    Shift=    0.000
 RMSDP=7.18D-06 MaxDP=1.09D-04 DE=-1.45D-09 OVMax= 6.51D-04

 Cycle  25  Pass 1  IDiag  1:
 E= -75.7304845310678     Delta-E=       -0.000000003759 Rises=F Damp=F
 DIIS: error= 8.28D-07 at cycle  19 NSaved=   3.
 NSaved= 3 IEnMin= 3 EnMin= -75.7304845310678     IErMin= 3 ErrMin= 8.28D-07
 ErrMax= 8.28D-07  0.00D+00 EMaxC= 1.00D-01 BMatC= 2.17D-11 BMatP= 2.17D-11
 IDIUse=1 WtCom= 1.00D+00 WtEn= 0.00D+00
 Coeff-Com: -0.194D+01 0.228D+01 0.653D+00
 Coeff:     -0.194D+01 0.228D+01 0.653D+00
 Gap=     0.504 Goal=   None    Shift=    0.000
 Gap=     0.310 Goal=   None    Shift=    0.000
 RMSDP=2.97D-06 MaxDP=4.49D-05 DE=-3.76D-09 OVMax= 2.69D-04

 Cycle  26  Pass 1  IDiag  1:
 E= -75.7304845326187     Delta-E=       -0.000000001551 Rises=F Damp=F
 DIIS: error= 8.28D-07 at cycle  20 NSaved=   4.
 NSaved= 4 IEnMin= 4 EnMin= -75.7304845326187     IErMin= 4 ErrMin= 8.28D-07
 ErrMax= 8.28D-07  0.00D+00 EMaxC= 1.00D-01 BMatC= 2.17D-11 BMatP= 2.17D-11
 IDIUse=1 WtCom= 1.00D+00 WtEn= 0.00D+00
 Large coefficients: NSaved=  4 BigCof=   12.41 CofMax=   10.00 Det=-1.85D-16
 Inversion failed.  Reducing to  3 matrices.
 Coeff-Com:  0.393D+00-0.179D+01 0.239D+01
 Coeff:      0.393D+00-0.179D+01 0.239D+01
 Gap=     0.504 Goal=   None    Shift=    0.000
 Gap=     0.310 Goal=   None    Shift=    0.000
 RMSDP=1.40D-06 MaxDP=2.12D-05 DE=-1.55D-09 OVMax= 1.27D-04

 Cycle  27  Pass 1  IDiag  1:
 E= -75.7304845333510     Delta-E=       -0.000000000732 Rises=F Damp=F
 DIIS: error= 8.27D-07 at cycle  21 NSaved=   4.
 NSaved= 4 IEnMin= 4 EnMin= -75.7304845333510     IErMin= 4 ErrMin= 8.27D-07
 ErrMax= 8.27D-07  0.00D+00 EMaxC= 1.00D-01 BMatC= 2.17D-11 BMatP= 2.17D-11
 IDIUse=1 WtCom= 1.00D+00 WtEn= 0.00D+00
 Large coefficients: NSaved=  4 BigCof=   54.42 CofMax=   10.00 Det=-5.91D-16
 Inversion failed.  Reducing to  3 matrices.
 Large coefficients: NSaved=  3 BigCof=   10.33 CofMax=   10.00 Det=-1.65D-15
 Inversion failed.  Reducing to  2 matrices.
 Coeff-Com:  0.244D+00 0.756D+00
 Coeff:      0.244D+00 0.756D+00
 Gap=     0.504 Goal=   None    Shift=    0.000
 Gap=     0.310 Goal=   None    Shift=    0.000
 RMSDP=2.44D-07 MaxDP=3.70D-06 DE=-7.32D-10 OVMax= 2.21D-05

 Cycle  28  Pass 1  IDiag  1:
 E= -75.7304845332235     Delta-E=        0.000000000127 Rises=F Damp=F
 DIIS: error= 8.28D-07 at cycle  22 NSaved=   3.
 NSaved= 3 IEnMin= 2 EnMin= -75.7304845333510     IErMin= 2 ErrMin= 8.27D-07
 ErrMax= 8.28D-07  0.00D+00 EMaxC= 1.00D-01 BMatC= 2.17D-11 BMatP= 2.17D-11
 IDIUse=1 WtCom= 1.00D+00 WtEn= 0.00D+00
 Coeff-Com: -0.680D-01 0.426D+00 0.642D+00
 Coeff:     -0.680D-01 0.426D+00 0.642D+00
 Gap=     0.504 Goal=   None    Shift=    0.000
 Gap=     0.310 Goal=   None    Shift=    0.000
 RMSDP=2.80D-07 MaxDP=4.24D-06 DE= 1.27D-10 OVMax= 2.54D-05

 Cycle  29  Pass 1  IDiag  1:
 E= -75.7304845333697     Delta-E=       -0.000000000146 Rises=F Damp=F
 DIIS: error= 8.27D-07 at cycle  23 NSaved=   4.
 NSaved= 4 IEnMin= 4 EnMin= -75.7304845333697     IErMin= 4 ErrMin= 8.27D-07
 ErrMax= 8.27D-07  0.00D+00 EMaxC= 1.00D-01 BMatC= 2.16D-11 BMatP= 2.17D-11
 IDIUse=1 WtCom= 1.00D+00 WtEn= 0.00D+00
 Coeff-Com: -0.347D+00-0.154D+01-0.239D+01 0.527D+01
 Coeff:     -0.347D+00-0.154D+01-0.239D+01 0.527D+01
 Gap=     0.504 Goal=   None    Shift=    0.000
 Gap=     0.310 Goal=   None    Shift=    0.000
 RMSDP=1.32D-06 MaxDP=2.00D-05 DE=-1.46D-10 OVMax= 1.19D-04

 Cycle  30  Pass 1  IDiag  1:
 E= -75.7304845340587     Delta-E=       -0.000000000689 Rises=F Damp=F
 DIIS: error= 8.27D-07 at cycle  24 NSaved=   5.
 NSaved= 5 IEnMin= 5 EnMin= -75.7304845340587     IErMin= 5 ErrMin= 8.27D-07
 ErrMax= 8.27D-07  0.00D+00 EMaxC= 1.00D-01 BMatC= 2.16D-11 BMatP= 2.16D-11
 IDIUse=1 WtCom= 1.00D+00 WtEn= 0.00D+00
 Large coefficients: NSaved=  5 BigCof=  110.06 CofMax=   10.00 Det=-1.61D-17
 Inversion failed.  Reducing to  4 matrices.
 Large coefficients: NSaved=  4 BigCof=   22.05 CofMax=   10.00 Det=-9.53D-17
 Inversion failed.  Reducing to  3 matrices.
 Large coefficients: NSaved=  3 BigCof=   13.00 CofMax=   10.00 Det=-3.65D-16
 Inversion failed.  Reducing to  2 matrices.
 Coeff-Com: -0.847D+01 0.947D+01
 Coeff:     -0.847D+01 0.947D+01
 Gap=     0.504 Goal=   None    Shift=    0.000
 Gap=     0.310 Goal=   None    Shift=    0.000
 RMSDP=1.13D-05 MaxDP=1.71D-04 DE=-6.89D-10 OVMax= 1.02D-03

 Cycle  31  Pass 1  IDiag  1:
 E= -75.7304845399393     Delta-E=       -0.000000005881 Rises=F Damp=F
 DIIS: error= 8.25D-07 at cycle  25 NSaved=   3.
 NSaved= 3 IEnMin= 3 EnMin= -75.7304845399393     IErMin= 3 ErrMin= 8.25D-07
 ErrMax= 8.25D-07  0.00D+00 EMaxC= 1.00D-01 BMatC= 2.16D-11 BMatP= 2.16D-11
 IDIUse=1 WtCom= 1.00D+00 WtEn= 0.00D+00
 Coeff-Com: -0.846D+01 0.886D+01 0.606D+00
 Coeff:     -0.846D+01 0.886D+01 0.606D+00
 Gap=     0.504 Goal=   None    Shift=    0.000
 Gap=     0.310 Goal=   None    Shift=    0.000
 RMSDP=6.82D-06 MaxDP=1.03D-04 DE=-5.88D-09 OVMax= 6.18D-04

 Cycle  32  Pass 1  IDiag  1:
 E= -75.7304845434890     Delta-E=       -0.000000003550 Rises=F Damp=F
 DIIS: error= 8.24D-07 at cycle  26 NSaved=   4.
 NSaved= 4 IEnMin= 4 EnMin= -75.7304845434890     IErMin= 4 ErrMin= 8.24D-07
 ErrMax= 8.24D-07  0.00D+00 EMaxC= 1.00D-01 BMatC= 2.18D-11 BMatP= 2.16D-11
 IDIUse=1 WtCom= 1.00D+00 WtEn= 0.00D+00
 Coeff-Com: -0.725D+01 0.643D+01 0.310D+01-0.128D+01
 Coeff:     -0.725D+01 0.643D+01 0.310D+01-0.128D+01
 Gap=     0.504 Goal=   None    Shift=    0.000
 Gap=     0.310 Goal=   None    Shift=    0.000
 RMSDP=3.36D-06 MaxDP=5.09D-05 DE=-3.55D-09 OVMax= 3.04D-04

 Cycle  33  Pass 1  IDiag  1:
 E= -75.7304845452352     Delta-E=       -0.000000001746 Rises=F Damp=F
 DIIS: error= 8.23D-07 at cycle  27 NSaved=   5.
 NSaved= 5 IEnMin= 5 EnMin= -75.7304845452352     IErMin= 5 ErrMin= 8.23D-07
 ErrMax= 8.23D-07  0.00D+00 EMaxC= 1.00D-01 BMatC= 2.27D-11 BMatP= 2.16D-11
 IDIUse=1 WtCom= 1.00D+00 WtEn= 0.00D+00
 Large coefficients: NSaved=  5 BigCof=  174.48 CofMax=   10.00 Det=-5.09D-17
 Inversion failed.  Reducing to  4 matrices.
 Coeff-Com:  0.920D+00-0.563D+01 0.849D+01-0.279D+01
 Coeff:      0.920D+00-0.563D+01 0.849D+01-0.279D+01
 Gap=     0.504 Goal=   None    Shift=    0.000
 Gap=     0.310 Goal=   None    Shift=    0.000
 RMSDP=9.10D-06 MaxDP=1.38D-04 DE=-1.75D-09 OVMax= 8.24D-04

 Cycle  34  Pass 1  IDiag  1:
 E= -75.7304845499618     Delta-E=       -0.000000004727 Rises=F Damp=F
 DIIS: error= 8.21D-07 at cycle  28 NSaved=   5.
 NSaved= 5 IEnMin= 5 EnMin= -75.7304845499618     IErMin= 5 ErrMin= 8.21D-07
 ErrMax= 8.21D-07  0.00D+00 EMaxC= 1.00D-01 BMatC= 2.16D-11 BMatP= 2.16D-11
 IDIUse=1 WtCom= 1.00D+00 WtEn= 0.00D+00
 Large coefficients: NSaved=  5 BigCof=  148.05 CofMax=   10.00 Det=-3.68D-16
 Inversion failed.  Reducing to  4 matrices.
 Large coefficients: NSaved=  4 BigCof=   38.73 CofMax=   10.00 Det=-7.18D-16
 Inversion failed.  Reducing to  3 matrices.
 Coeff-Com:  0.725D+00-0.785D+00 0.106D+01
 Coeff:      0.725D+00-0.785D+00 0.106D+01
 Gap=     0.504 Goal=   None    Shift=    0.000
 Gap=     0.310 Goal=   None    Shift=    0.000
 RMSDP=1.79D-06 MaxDP=2.72D-05 DE=-4.73D-09 OVMax= 1.62D-04

 Cycle  35  Pass 1  IDiag  1:
 E= -75.7304845490324     Delta-E=        0.000000000929 Rises=F Damp=F
 DIIS: error= 8.22D-07 at cycle  29 NSaved=   4.
 NSaved= 4 IEnMin= 3 EnMin= -75.7304845499618     IErMin= 3 ErrMin= 8.21D-07
 ErrMax= 8.22D-07  0.00D+00 EMaxC= 1.00D-01 BMatC= 2.14D-11 BMatP= 2.16D-11
 IDIUse=1 WtCom= 1.00D+00 WtEn= 0.00D+00
 Large coefficients: NSaved=  4 BigCof=   66.19 CofMax=   10.00 Det=-4.83D-16
 Inversion failed.  Reducing to  3 matrices.
 Coeff-Com: -0.237D+00 0.692D+00 0.544D+00
 Coeff:     -0.237D+00 0.692D+00 0.544D+00
 Gap=     0.504 Goal=   None    Shift=    0.000
 Gap=     0.310 Goal=   None    Shift=    0.000
 RMSDP=3.07D-06 MaxDP=4.66D-05 DE= 9.29D-10 OVMax= 2.78D-04

 Cycle  36  Pass 1  IDiag  1:
 E= -75.7304845506235     Delta-E=       -0.000000001591 Rises=F Damp=F
 DIIS: error= 8.21D-07 at cycle  30 NSaved=   4.
 NSaved= 4 IEnMin= 4 EnMin= -75.7304845506235     IErMin= 4 ErrMin= 8.21D-07
 ErrMax= 8.21D-07  0.00D+00 EMaxC= 1.00D-01 BMatC= 2.13D-11 BMatP= 2.14D-11
 IDIUse=1 WtCom= 1.00D+00 WtEn= 0.00D+00
 Large coefficients: NSaved=  4 BigCof=  158.50 CofMax=   10.00 Det=-1.88D-16
 Inversion failed.  Reducing to  3 matrices.
 Large coefficients: NSaved=  3 BigCof=   33.55 CofMax=   10.00 Det=-7.93D-16
 Inversion failed.  Reducing to  2 matrices.
 Coeff-Com: -0.385D+00 0.139D+01
 Coeff:     -0.385D+00 0.139D+01
 Gap=     0.504 Goal=   None    Shift=    0.000
 Gap=     0.310 Goal=   None    Shift=    0.000
 RMSDP=1.28D-06 MaxDP=1.94D-05 DE=-1.59D-09 OVMax= 1.16D-04

 Cycle  37  Pass 1  IDiag  1:
 E= -75.7304845512860     Delta-E=       -0.000000000663 Rises=F Damp=F
 DIIS: error= 8.21D-07 at cycle  31 NSaved=   3.
 NSaved= 3 IEnMin= 3 EnMin= -75.7304845512860     IErMin= 3 ErrMin= 8.21D-07
 ErrMax= 8.21D-07  0.00D+00 EMaxC= 1.00D-01 BMatC= 2.13D-11 BMatP= 2.13D-11
 IDIUse=1 WtCom= 1.00D+00 WtEn= 0.00D+00
 Coeff-Com: -0.441D+00-0.716D+01 0.860D+01
 Coeff:     -0.441D+00-0.716D+01 0.860D+01
 Gap=     0.504 Goal=   None    Shift=    0.000
 Gap=     0.310 Goal=   None    Shift=    0.000
 RMSDP=1.12D-05 MaxDP=1.70D-04 DE=-6.63D-10 OVMax= 1.01D-03

 Cycle  38  Pass 1  IDiag  1:
 E= -75.7304845570595     Delta-E=       -0.000000005774 Rises=F Damp=F
 DIIS: error= 8.18D-07 at cycle  32 NSaved=   4.
 NSaved= 4 IEnMin= 4 EnMin= -75.7304845570595     IErMin= 4 ErrMin= 8.18D-07
 ErrMax= 8.18D-07  0.00D+00 EMaxC= 1.00D-01 BMatC= 2.13D-11 BMatP= 2.13D-11
 IDIUse=1 WtCom= 1.00D+00 WtEn= 0.00D+00
 Large coefficients: NSaved=  4 BigCof=  141.15 CofMax=   10.00 Det=-8.79D-17
 Inversion failed.  Reducing to  3 matrices.
 Large coefficients: NSaved=  3 BigCof=   34.53 CofMax=   10.00 Det=-3.76D-16
 Inversion failed.  Reducing to  2 matrices.
 Coeff-Com:  0.349D+00 0.651D+00
 Coeff:      0.349D+00 0.651D+00
 Gap=     0.504 Goal=   None    Shift=    0.000
 Gap=     0.310 Goal=   None    Shift=    0.000
 RMSDP=3.80D-06 MaxDP=5.77D-05 DE=-5.77D-09 OVMax= 3.44D-04

 Cycle  39  Pass 1  IDiag  1:
 E= -75.7304845550966     Delta-E=        0.000000001963 Rises=F Damp=F
 DIIS: error= 8.19D-07 at cycle  33 NSaved=   3.
 NSaved= 3 IEnMin= 2 EnMin= -75.7304845570595     IErMin= 2 ErrMin= 8.18D-07
 ErrMax= 8.19D-07  0.00D+00 EMaxC= 1.00D-01 BMatC= 2.12D-11 BMatP= 2.13D-11
 IDIUse=1 WtCom= 1.00D+00 WtEn= 0.00D+00
 Large coefficients: NSaved=  3 BigCof=  114.52 CofMax=   10.00 Det=-4.04D-16
 Inversion failed.  Reducing to  2 matrices.
 Coeff-Com:  0.302D+00 0.698D+00
 Coeff:      0.302D+00 0.698D+00
 Gap=     0.504 Goal=   None    Shift=    0.000
 Gap=     0.310 Goal=   None    Shift=    0.000
 RMSDP=1.24D-06 MaxDP=1.89D-05 DE= 1.96D-09 OVMax= 1.13D-04

 Cycle  40  Pass 1  IDiag  1:
 E= -75.7304845557391     Delta-E=       -0.000000000642 Rises=F Damp=F
 DIIS: error= 8.19D-07 at cycle  34 NSaved=   3.
 NSaved= 3 IEnMin= 1 EnMin= -75.7304845570595     IErMin= 1 ErrMin= 8.18D-07
 ErrMax= 8.19D-07  0.00D+00 EMaxC= 1.00D-01 BMatC= 2.12D-11 BMatP= 2.12D-11
 IDIUse=1 WtCom= 1.00D+00 WtEn= 0.00D+00
 Large coefficients: NSaved=  3 BigCof=   19.91 CofMax=   10.00 Det=-3.12D-16
 Inversion failed.  Reducing to  2 matrices.
 Coeff-Com: -0.309D+01 0.409D+01
 Coeff:     -0.309D+01 0.409D+01
 Gap=     0.504 Goal=   None    Shift=    0.000
 Gap=     0.310 Goal=   None    Shift=    0.000
 RMSDP=3.93D-06 MaxDP=5.98D-05 DE=-6.42D-10 OVMax= 3.56D-04

 Cycle  41  Pass 1  IDiag  1:
 E= -75.7304845577713     Delta-E=       -0.000000002032 Rises=F Damp=F
 DIIS: error= 8.18D-07 at cycle  35 NSaved=   3.
 NSaved= 3 IEnMin= 3 EnMin= -75.7304845577713     IErMin= 3 ErrMin= 8.18D-07
 ErrMax= 8.18D-07  0.00D+00 EMaxC= 1.00D-01 BMatC= 2.12D-11 BMatP= 2.12D-11
 IDIUse=1 WtCom= 1.00D+00 WtEn= 0.00D+00
 Large coefficients: NSaved=  3 BigCof=   58.88 CofMax=   10.00 Det=-1.27D-16
 Inversion failed.  Reducing to  2 matrices.
 Coeff-Com: -0.758D+01 0.858D+01
 Coeff:     -0.758D+01 0.858D+01
 Gap=     0.504 Goal=   None    Shift=    0.000
 Gap=     0.310 Goal=   None    Shift=    0.000
 RMSDP=2.99D-05 MaxDP=4.55D-04 DE=-2.03D-09 OVMax= 2.71D-03

 Cycle  42  Pass 1  IDiag  1:
 E= -75.7304845731440     Delta-E=       -0.000000015373 Rises=F Damp=F
 DIIS: error= 8.10D-07 at cycle  36 NSaved=   3.
 NSaved= 3 IEnMin= 3 EnMin= -75.7304845731440     IErMin= 3 ErrMin= 8.10D-07
 ErrMax= 8.10D-07  0.00D+00 EMaxC= 1.00D-01 BMatC= 2.66D-11 BMatP= 2.12D-11
 IDIUse=1 WtCom= 1.00D+00 WtEn= 0.00D+00
 Large coefficients: NSaved=  3 BigCof=   24.72 CofMax=   10.00 Det=-7.82D-16
 Inversion failed.  Reducing to  2 matrices.
 Coeff-Com:  0.980D+00 0.204D-01
 Coeff:      0.980D+00 0.204D-01
 Gap=     0.504 Goal=   None    Shift=    0.000
 Gap=     0.310 Goal=   None    Shift=    0.000
 RMSDP=2.92D-05 MaxDP=4.45D-04 DE=-1.54D-08 OVMax= 2.64D-03

 Cycle  43  Pass 1  IDiag  1:
 E= -75.7304845581364     Delta-E=        0.000000015008 Rises=F Damp=F
 DIIS: error= 8.18D-07 at cycle  37 NSaved=   3.
 NSaved= 3 IEnMin= 2 EnMin= -75.7304845731440     IErMin= 2 ErrMin= 8.10D-07
 ErrMax= 8.18D-07  0.00D+00 EMaxC= 1.00D-01 BMatC= 2.11D-11 BMatP= 2.12D-11
 IDIUse=1 WtCom= 1.00D+00 WtEn= 0.00D+00
 Large coefficients: NSaved=  3 BigCof=   90.84 CofMax=   10.00 Det=-1.30D-16
 Inversion failed.  Reducing to  2 matrices.
 Coeff-Com:  0.529D-01 0.947D+00
 Coeff:      0.529D-01 0.947D+00
 Gap=     0.504 Goal=   None    Shift=    0.000
 Gap=     0.310 Goal=   None    Shift=    0.000
 RMSDP=1.64D-06 MaxDP=2.49D-05 DE= 1.50D-08 OVMax= 1.48D-04

 Cycle  44  Pass 1  IDiag  1:
 E= -75.7304845589825     Delta-E=       -0.000000000846 Rises=F Damp=F
 DIIS: error= 8.18D-07 at cycle  38 NSaved=   3.
 NSaved= 3 IEnMin= 1 EnMin= -75.7304845731440     IErMin= 1 ErrMin= 8.10D-07
 ErrMax= 8.18D-07  0.00D+00 EMaxC= 1.00D-01 BMatC= 2.11D-11 BMatP= 2.11D-11
 IDIUse=1 WtCom= 1.00D+00 WtEn= 0.00D+00
 Large coefficients: NSaved=  3 BigCof=  433.75 CofMax=   10.00 Det=-3.37D-17
 Inversion failed.  Reducing to  2 matrices.
 Coeff-Com: -0.133D+01 0.233D+01
 Coeff:     -0.133D+01 0.233D+01
 Gap=     0.504 Goal=   None    Shift=    0.000
 Gap=     0.310 Goal=   None    Shift=    0.000
 RMSDP=2.27D-06 MaxDP=3.45D-05 DE=-8.46D-10 OVMax= 2.05D-04

 Cycle  45  Pass 1  IDiag  1:
 E= -75.7304845601527     Delta-E=       -0.000000001170 Rises=F Damp=F
 DIIS: error= 8.17D-07 at cycle  39 NSaved=   3.
 NSaved= 3 IEnMin= 3 EnMin= -75.7304845601527     IErMin= 3 ErrMin= 8.17D-07
 ErrMax= 8.17D-07  0.00D+00 EMaxC= 1.00D-01 BMatC= 2.11D-11 BMatP= 2.11D-11
 IDIUse=1 WtCom= 1.00D+00 WtEn= 0.00D+00
 Coeff-Com: -0.973D+01 0.712D+01 0.361D+01
 Coeff:     -0.973D+01 0.712D+01 0.361D+01
 Gap=     0.504 Goal=   None    Shift=    0.000
 Gap=     0.310 Goal=   None    Shift=    0.000
 RMSDP=2.20D-05 MaxDP=3.35D-04 DE=-1.17D-09 OVMax= 1.99D-03

 Cycle  46  Pass 1  IDiag  1:
 E= -75.7304845714427     Delta-E=       -0.000000011290 Rises=F Damp=F
 DIIS: error= 8.11D-07 at cycle  40 NSaved=   4.
 NSaved= 4 IEnMin= 4 EnMin= -75.7304845714427     IErMin= 4 ErrMin= 8.11D-07
 ErrMax= 8.11D-07  0.00D+00 EMaxC= 1.00D-01 BMatC= 2.25D-11 BMatP= 2.11D-11
 IDIUse=1 WtCom= 1.00D+00 WtEn= 0.00D+00
 Large coefficients: NSaved=  4 BigCof=  682.99 CofMax=   10.00 Det=-2.46D-17
 Inversion failed.  Reducing to  3 matrices.
 Coeff-Com:  0.657D+00 0.205D+00 0.137D+00
 Coeff:      0.657D+00 0.205D+00 0.137D+00
 Gap=     0.504 Goal=   None    Shift=    0.000
 Gap=     0.310 Goal=   None    Shift=    0.000
 RMSDP=2.03D-05 MaxDP=3.10D-04 DE=-1.13D-08 OVMax= 1.84D-03

 Cycle  47  Pass 1  IDiag  1:
 E= -75.7304845609906     Delta-E=        0.000000010452 Rises=F Damp=F
 DIIS: error= 8.17D-07 at cycle  41 NSaved=   4.
 NSaved= 4 IEnMin= 3 EnMin= -75.7304845714427     IErMin= 3 ErrMin= 8.11D-07
 ErrMax= 8.17D-07  0.00D+00 EMaxC= 1.00D-01 BMatC= 2.11D-11 BMatP= 2.11D-11
 IDIUse=1 WtCom= 1.00D+00 WtEn= 0.00D+00
 Large coefficients: NSaved=  4 BigCof=  440.58 CofMax=   10.00 Det=-6.03D-17
 Inversion failed.  Reducing to  3 matrices.
 Coeff-Com: -0.139D+01 0.348D+00 0.204D+01
 Coeff:     -0.139D+01 0.348D+00 0.204D+01
 Gap=     0.504 Goal=   None    Shift=    0.000
 Gap=     0.310 Goal=   None    Shift=    0.000
 RMSDP=9.43D-06 MaxDP=1.44D-04 DE= 1.05D-08 OVMax= 8.54D-04

 Cycle  48  Pass 1  IDiag  1:
 E= -75.7304845658470     Delta-E=       -0.000000004856 Rises=F Damp=F
 DIIS: error= 8.14D-07 at cycle  42 NSaved=   4.
 NSaved= 4 IEnMin= 2 EnMin= -75.7304845714427     IErMin= 2 ErrMin= 8.11D-07
 ErrMax= 8.14D-07  0.00D+00 EMaxC= 1.00D-01 BMatC= 2.10D-11 BMatP= 2.11D-11
 IDIUse=1 WtCom= 1.00D+00 WtEn= 0.00D+00
 Large coefficients: NSaved=  4 BigCof=   54.26 CofMax=   10.00 Det=-1.15D-15
 Inversion failed.  Reducing to  3 matrices.
 Coeff-Com:  0.698D-01-0.837D+00 0.177D+01
 Coeff:      0.698D-01-0.837D+00 0.177D+01
 Gap=     0.504 Goal=   None    Shift=    0.000
 Gap=     0.310 Goal=   None    Shift=    0.000
 RMSDP=8.75D-06 MaxDP=1.33D-04 DE=-4.86D-09 OVMax= 7.93D-04

 Cycle  49  Pass 1  IDiag  1:
 E= -75.7304845703389     Delta-E=       -0.000000004492 Rises=F Damp=F
 DIIS: error= 8.12D-07 at cycle  43 NSaved=   4.
 NSaved= 4 IEnMin= 1 EnMin= -75.7304845714427     IErMin= 1 ErrMin= 8.11D-07
 ErrMax= 8.12D-07  0.00D+00 EMaxC= 1.00D-01 BMatC= 2.10D-11 BMatP= 2.10D-11
 IDIUse=1 WtCom= 1.00D+00 WtEn= 0.00D+00
 Large coefficients: NSaved=  4 BigCof=  120.56 CofMax=   10.00 Det=-6.64D-16
 Inversion failed.  Reducing to  3 matrices.
 Coeff-Com: -0.119D+00 0.318D+00 0.801D+00
 Coeff:     -0.119D+00 0.318D+00 0.801D+00
 Gap=     0.504 Goal=   None    Shift=    0.000
 Gap=     0.310 Goal=   None    Shift=    0.000
 RMSDP=2.94D-06 MaxDP=4.49D-05 DE=-4.49D-09 OVMax= 2.67D-04

 Cycle  50  Pass 1  IDiag  1:
 E= -75.7304845688293     Delta-E=        0.000000001510 Rises=F Damp=F
 DIIS: error= 8.13D-07 at cycle  44 NSaved=   4.
 NSaved= 4 IEnMin= 1 EnMin= -75.7304845714427     IErMin= 1 ErrMin= 8.11D-07
 ErrMax= 8.13D-07  0.00D+00 EMaxC= 1.00D-01 BMatC= 2.09D-11 BMatP= 2.10D-11
 IDIUse=1 WtCom= 1.00D+00 WtEn= 0.00D+00
 Large coefficients: NSaved=  4 BigCof=  318.94 CofMax=   10.00 Det=-1.28D-16
 Inversion failed.  Reducing to  3 matrices.
 Coeff-Com: -0.772D-01 0.469D+00 0.608D+00
 Coeff:     -0.772D-01 0.469D+00 0.608D+00
 Gap=     0.504 Goal=   None    Shift=    0.000
 Gap=     0.310 Goal=   None    Shift=    0.000
 RMSDP=1.08D-06 MaxDP=1.65D-05 DE= 1.51D-09 OVMax= 9.80D-05

 Cycle  51  Pass 1  IDiag  1:
 E= -75.7304845693844     Delta-E=       -0.000000000555 Rises=F Damp=F
 DIIS: error= 8.12D-07 at cycle  45 NSaved=   4.
 NSaved= 4 IEnMin= 1 EnMin= -75.7304845714427     IErMin= 1 ErrMin= 8.11D-07
 ErrMax= 8.12D-07  0.00D+00 EMaxC= 1.00D-01 BMatC= 2.09D-11 BMatP= 2.09D-11
 IDIUse=1 WtCom= 1.00D+00 WtEn= 0.00D+00
 Large coefficients: NSaved=  4 BigCof=   95.95 CofMax=   10.00 Det=-6.82D-17
 Inversion failed.  Reducing to  3 matrices.
 Coeff-Com: -0.179D-01-0.239D+01 0.341D+01
 Coeff:     -0.179D-01-0.239D+01 0.341D+01
 Gap=     0.504 Goal=   None    Shift=    0.000
 Gap=     0.310 Goal=   None    Shift=    0.000
 RMSDP=2.61D-06 MaxDP=3.98D-05 DE=-5.55D-10 OVMax= 2.36D-04

 Cycle  52  Pass 1  IDiag  1:
 E= -75.7304845707228     Delta-E=       -0.000000001338 Rises=F Damp=F
 DIIS: error= 8.12D-07 at cycle  46 NSaved=   4.
 NSaved= 4 IEnMin= 1 EnMin= -75.7304845714427     IErMin= 1 ErrMin= 8.11D-07
 ErrMax= 8.12D-07  0.00D+00 EMaxC= 1.00D-01 BMatC= 2.08D-11 BMatP= 2.09D-11
 IDIUse=1 WtCom= 1.00D+00 WtEn= 0.00D+00
 Large coefficients: NSaved=  4 BigCof=  316.18 CofMax=   10.00 Det=-7.05D-17
 Inversion failed.  Reducing to  3 matrices.
 Coeff-Com: -0.757D-01-0.212D+01 0.320D+01
 Coeff:     -0.757D-01-0.212D+01 0.320D+01
 Gap=     0.504 Goal=   None    Shift=    0.000
 Gap=     0.310 Goal=   None    Shift=    0.000
 RMSDP=5.53D-06 MaxDP=8.44D-05 DE=-1.34D-09 OVMax= 5.01D-04

 Cycle  53  Pass 1  IDiag  1:
 E= -75.7304845735565     Delta-E=       -0.000000002834 Rises=F Damp=F
 DIIS: error= 8.10D-07 at cycle  47 NSaved=   4.
 NSaved= 4 IEnMin= 4 EnMin= -75.7304845735565     IErMin= 4 ErrMin= 8.10D-07
 ErrMax= 8.10D-07  0.00D+00 EMaxC= 1.00D-01 BMatC= 2.08D-11 BMatP= 2.08D-11
 IDIUse=1 WtCom= 1.00D+00 WtEn= 0.00D+00
 Large coefficients: NSaved=  4 BigCof=  468.66 CofMax=   10.00 Det=-5.73D-17
 Inversion failed.  Reducing to  3 matrices.
 Coeff-Com: -0.439D-01 0.280D+00 0.764D+00
 Coeff:     -0.439D-01 0.280D+00 0.764D+00
 Gap=     0.504 Goal=   None    Shift=    0.000
 Gap=     0.310 Goal=   None    Shift=    0.000
 RMSDP=1.27D-06 MaxDP=1.94D-05 DE=-2.83D-09 OVMax= 1.15D-04

 Cycle  54  Pass 1  IDiag  1:
 E= -75.7304845729056     Delta-E=        0.000000000651 Rises=F Damp=F
 DIIS: error= 8.11D-07 at cycle  48 NSaved=   4.
 NSaved= 4 IEnMin= 3 EnMin= -75.7304845735565     IErMin= 3 ErrMin= 8.10D-07
 ErrMax= 8.11D-07  0.00D+00 EMaxC= 1.00D-01 BMatC= 2.08D-11 BMatP= 2.08D-11
 IDIUse=1 WtCom= 1.00D+00 WtEn= 0.00D+00
 Large coefficients: NSaved=  4 BigCof=  567.27 CofMax=   10.00 Det=-5.23D-17
 Inversion failed.  Reducing to  3 matrices.
 Coeff-Com: -0.391D-01 0.464D+00 0.575D+00
 Coeff:     -0.391D-01 0.464D+00 0.575D+00
 Gap=     0.504 Goal=   None    Shift=    0.000
 Gap=     0.310 Goal=   None    Shift=    0.000
 RMSDP=7.97D-07 MaxDP=1.22D-05 DE= 6.51D-10 OVMax= 7.22D-05

 Cycle  55  Pass 1  IDiag  1:
 E= -75.7304845733132     Delta-E=       -0.000000000408 Rises=F Damp=F
 DIIS: error= 8.10D-07 at cycle  49 NSaved=   4.
 NSaved= 4 IEnMin= 2 EnMin= -75.7304845735565     IErMin= 2 ErrMin= 8.10D-07
 ErrMax= 8.10D-07  0.00D+00 EMaxC= 1.00D-01 BMatC= 2.08D-11 BMatP= 2.08D-11
 IDIUse=1 WtCom= 1.00D+00 WtEn= 0.00D+00
 Large coefficients: NSaved=  4 BigCof=  327.55 CofMax=   10.00 Det=-1.64D-17
 Inversion failed.  Reducing to  3 matrices.
 Large coefficients: NSaved=  3 BigCof=   15.61 CofMax=   10.00 Det=-4.27D-16
 Inversion failed.  Reducing to  2 matrices.
 Coeff-Com: -0.137D+01 0.237D+01
 Coeff:     -0.137D+01 0.237D+01
 Gap=     0.504 Goal=   None    Shift=    0.000
 Gap=     0.310 Goal=   None    Shift=    0.000
 RMSDP=1.18D-06 MaxDP=1.81D-05 DE=-4.08D-10 OVMax= 1.07D-04

 Cycle  56  Pass 1  IDiag  1:
 E= -75.7304845739193     Delta-E=       -0.000000000606 Rises=F Damp=F
 DIIS: error= 8.10D-07 at cycle  50 NSaved=   3.
 NSaved= 3 IEnMin= 3 EnMin= -75.7304845739193     IErMin= 3 ErrMin= 8.10D-07
 ErrMax= 8.10D-07  0.00D+00 EMaxC= 1.00D-01 BMatC= 2.07D-11 BMatP= 2.08D-11
 IDIUse=1 WtCom= 1.00D+00 WtEn= 0.00D+00
 Large coefficients: NSaved=  3 BigCof=   90.69 CofMax=   10.00 Det=-3.35D-16
 Inversion failed.  Reducing to  2 matrices.
 Coeff-Com: -0.526D+01 0.626D+01
 Coeff:     -0.526D+01 0.626D+01
 Gap=     0.504 Goal=   None    Shift=    0.000
 Gap=     0.310 Goal=   None    Shift=    0.000
 RMSDP=6.33D-06 MaxDP=9.66D-05 DE=-6.06D-10 OVMax= 5.73D-04

 Cycle  57  Pass 1  IDiag  1:
 E= -75.7304845771517     Delta-E=       -0.000000003232 Rises=F Damp=F
 DIIS: error= 8.08D-07 at cycle  51 NSaved=   3.
 NSaved= 3 IEnMin= 3 EnMin= -75.7304845771517     IErMin= 3 ErrMin= 8.08D-07
 ErrMax= 8.08D-07  0.00D+00 EMaxC= 1.00D-01 BMatC= 2.07D-11 BMatP= 2.07D-11
 IDIUse=1 WtCom= 1.00D+00 WtEn= 0.00D+00
 Large coefficients: NSaved=  3 BigCof=   37.26 CofMax=   10.00 Det=-3.45D-16
 Inversion failed.  Reducing to  2 matrices.
 Coeff-Com:  0.153D+00 0.847D+00
 Coeff:      0.153D+00 0.847D+00
 Gap=     0.504 Goal=   None    Shift=    0.000
 Gap=     0.310 Goal=   None    Shift=    0.000
 RMSDP=8.74D-07 MaxDP=1.33D-05 DE=-3.23D-09 OVMax= 7.92D-05

 Cycle  58  Pass 1  IDiag  1:
 E= -75.7304845767057     Delta-E=        0.000000000446 Rises=F Damp=F
 DIIS: error= 8.08D-07 at cycle  52 NSaved=   3.
 NSaved= 3 IEnMin= 2 EnMin= -75.7304845771517     IErMin= 2 ErrMin= 8.08D-07
 ErrMax= 8.08D-07  0.00D+00 EMaxC= 1.00D-01 BMatC= 2.07D-11 BMatP= 2.07D-11
 IDIUse=1 WtCom= 1.00D+00 WtEn= 0.00D+00
 Large coefficients: NSaved=  3 BigCof=  111.98 CofMax=   10.00 Det=-3.58D-16
 Inversion failed.  Reducing to  2 matrices.
 Coeff-Com:  0.423D+00 0.577D+00
 Coeff:      0.423D+00 0.577D+00
 Gap=     0.504 Goal=   None    Shift=    0.000
 Gap=     0.310 Goal=   None    Shift=    0.000
 RMSDP=4.65D-07 MaxDP=7.10D-06 DE= 4.46D-10 OVMax= 4.21D-05

 Cycle  59  Pass 1  IDiag  1:
 E= -75.7304845769430     Delta-E=       -0.000000000237 Rises=F Damp=F
 DIIS: error= 8.08D-07 at cycle  53 NSaved=   3.
 NSaved= 3 IEnMin= 1 EnMin= -75.7304845771517     IErMin= 1 ErrMin= 8.08D-07
 ErrMax= 8.08D-07  0.00D+00 EMaxC= 1.00D-01 BMatC= 2.07D-11 BMatP= 2.07D-11
 IDIUse=1 WtCom= 1.00D+00 WtEn= 0.00D+00
 Coeff-Com: -0.340D+00-0.813D+00 0.215D+01
 Coeff:     -0.340D+00-0.813D+00 0.215D+01
 Gap=     0.504 Goal=   None    Shift=    0.000
 Gap=     0.310 Goal=   None    Shift=    0.000
 RMSDP=3.34D-07 MaxDP=5.09D-06 DE=-2.37D-10 OVMax= 3.02D-05

 Cycle  60  Pass 1  IDiag  1:
 E= -75.7304845771133     Delta-E=       -0.000000000170 Rises=F Damp=F
 DIIS: error= 8.08D-07 at cycle  54 NSaved=   4.
 NSaved= 4 IEnMin= 1 EnMin= -75.7304845771517     IErMin= 1 ErrMin= 8.08D-07
 ErrMax= 8.08D-07  0.00D+00 EMaxC= 1.00D-01 BMatC= 2.06D-11 BMatP= 2.07D-11
 IDIUse=1 WtCom= 1.00D+00 WtEn= 0.00D+00
 Large coefficients: NSaved=  4 BigCof=   33.26 CofMax=   10.00 Det=-1.08D-16
 Inversion failed.  Reducing to  3 matrices.
 Large coefficients: NSaved=  3 BigCof=   19.81 CofMax=   10.00 Det=-1.22D-16
 Inversion failed.  Reducing to  2 matrices.
 Coeff-Com: -0.224D+01 0.324D+01
 Coeff:     -0.224D+01 0.324D+01
 Gap=     0.504 Goal=   None    Shift=    0.000
 Gap=     0.310 Goal=   None    Shift=    0.000
 RMSDP=8.42D-07 MaxDP=1.29D-05 DE=-1.70D-10 OVMax= 7.63D-05

 Cycle  61  Pass 1  IDiag  1:
 E= -75.7304845775432     Delta-E=       -0.000000000430 Rises=F Damp=F
 DIIS: error= 8.08D-07 at cycle  55 NSaved=   3.
 NSaved= 3 IEnMin= 3 EnMin= -75.7304845775432     IErMin= 3 ErrMin= 8.08D-07
 ErrMax= 8.08D-07  0.00D+00 EMaxC= 1.00D-01 BMatC= 2.06D-11 BMatP= 2.06D-11
 IDIUse=1 WtCom= 1.00D+00 WtEn= 0.00D+00
 Large coefficients: NSaved=  3 BigCof=   32.27 CofMax=   10.00 Det=-1.20D-16
 Inversion failed.  Reducing to  2 matrices.
 Coeff-Com:  0.176D+00 0.824D+00
 Coeff:      0.176D+00 0.824D+00
 Gap=     0.504 Goal=   None    Shift=    0.000
 Gap=     0.310 Goal=   None    Shift=    0.000
 RMSDP=5.34D-08 MaxDP=8.17D-07 DE=-4.30D-10 OVMax= 4.84D-06

 Cycle  62  Pass 1  IDiag  1:
 E= -75.7304845775158     Delta-E=        0.000000000027 Rises=F Damp=F
 DIIS: error= 8.08D-07 at cycle  56 NSaved=   3.
 NSaved= 3 IEnMin= 2 EnMin= -75.7304845775432     IErMin= 2 ErrMin= 8.08D-07
 ErrMax= 8.08D-07  0.00D+00 EMaxC= 1.00D-01 BMatC= 2.06D-11 BMatP= 2.06D-11
 IDIUse=1 WtCom= 1.00D+00 WtEn= 0.00D+00
 Large coefficients: NSaved=  3 BigCof=  997.36 CofMax=   10.00 Det=-5.91D-18
 Inversion failed.  Reducing to  2 matrices.
 Coeff-Com:  0.430D+00 0.570D+00
 Coeff:      0.430D+00 0.570D+00
 Gap=     0.504 Goal=   None    Shift=    0.000
 Gap=     0.310 Goal=   None    Shift=    0.000
 RMSDP=1.18D-07 MaxDP=1.80D-06 DE= 2.73D-11 OVMax= 1.07D-05

 Cycle  63  Pass 1  IDiag  1:
 E= -75.7304845775760     Delta-E=       -0.000000000060 Rises=F Damp=F
 DIIS: error= 8.08D-07 at cycle  57 NSaved=   3.
 NSaved= 3 IEnMin= 3 EnMin= -75.7304845775760     IErMin= 3 ErrMin= 8.08D-07
 ErrMax= 8.08D-07  0.00D+00 EMaxC= 1.00D-01 BMatC= 2.06D-11 BMatP= 2.06D-11
 IDIUse=1 WtCom= 1.00D+00 WtEn= 0.00D+00
 Large coefficients: NSaved=  3 BigCof=  114.93 CofMax=   10.00 Det=-1.69D-17
 Inversion failed.  Reducing to  2 matrices.
 Coeff-Com: -0.398D+00 0.140D+01
 Coeff:     -0.398D+00 0.140D+01
 Gap=     0.504 Goal=   None    Shift=    0.000
 Gap=     0.310 Goal=   None    Shift=    0.000
 RMSDP=1.42D-07 MaxDP=2.16D-06 DE=-6.02D-11 OVMax= 1.28D-05

 Cycle  64  Pass 1  IDiag  1:
 E= -75.7304845776483     Delta-E=       -0.000000000072 Rises=F Damp=F
 DIIS: error= 8.08D-07 at cycle  58 NSaved=   3.
 NSaved= 3 IEnMin= 3 EnMin= -75.7304845776483     IErMin= 3 ErrMin= 8.08D-07
 ErrMax= 8.08D-07  0.00D+00 EMaxC= 1.00D-01 BMatC= 2.06D-11 BMatP= 2.06D-11
 IDIUse=1 WtCom= 1.00D+00 WtEn= 0.00D+00
 Large coefficients: NSaved=  3 BigCof=  825.20 CofMax=   10.00 Det=-2.83D-18
 Inversion failed.  Reducing to  2 matrices.
 Coeff-Com: -0.480D+01 0.580D+01
 Coeff:     -0.480D+01 0.580D+01
 Gap=     0.504 Goal=   None    Shift=    0.000
 Gap=     0.310 Goal=   None    Shift=    0.000
 RMSDP=7.75D-07 MaxDP=1.18D-05 DE=-7.23D-11 OVMax= 7.02D-05

 Cycle  65  Pass 1  IDiag  1:
 E= -75.7304845780437     Delta-E=       -0.000000000395 Rises=F Damp=F
 DIIS: error= 8.08D-07 at cycle  59 NSaved=   3.
 NSaved= 3 IEnMin= 3 EnMin= -75.7304845780437     IErMin= 3 ErrMin= 8.08D-07
 ErrMax= 8.08D-07  0.00D+00 EMaxC= 1.00D-01 BMatC= 2.06D-11 BMatP= 2.06D-11
 IDIUse=1 WtCom= 1.00D+00 WtEn= 0.00D+00
 Large coefficients: NSaved=  3 BigCof=  853.91 CofMax=   10.00 Det=-2.24D-18
 Inversion failed.  Reducing to  2 matrices.
 Coeff-Com:  0.671D-01 0.933D+00
 Coeff:      0.671D-01 0.933D+00
 Gap=     0.504 Goal=   None    Shift=    0.000
 Gap=     0.310 Goal=   None    Shift=    0.000
 RMSDP=4.28D-08 MaxDP=6.52D-07 DE=-3.95D-10 OVMax= 3.88D-06

 Cycle  66  Pass 1  IDiag  1:
 E= -75.7304845780656     Delta-E=       -0.000000000022 Rises=F Damp=F
 DIIS: error= 8.08D-07 at cycle  60 NSaved=   3.
 NSaved= 3 IEnMin= 3 EnMin= -75.7304845780656     IErMin= 3 ErrMin= 8.08D-07
 ErrMax= 8.08D-07  0.00D+00 EMaxC= 1.00D-01 BMatC= 2.06D-11 BMatP= 2.06D-11
 IDIUse=1 WtCom= 1.00D+00 WtEn= 0.00D+00
 Large coefficients: NSaved=  3 BigCof= 1251.26 CofMax=   10.00 Det=-4.76D-18
 Inversion failed.  Reducing to  2 matrices.
 Coeff-Com:  0.437D+00 0.563D+00
 Coeff:      0.437D+00 0.563D+00
 Gap=     0.504 Goal=   None    Shift=    0.000
 Gap=     0.310 Goal=   None    Shift=    0.000
 RMSDP=7.61D-08 MaxDP=1.16D-06 DE=-2.19D-11 OVMax= 6.90D-06

 Cycle  67  Pass 1  IDiag  1:
 E= -75.7304845781044     Delta-E=       -0.000000000039 Rises=F Damp=F
 DIIS: error= 8.08D-07 at cycle  61 NSaved=   3.
 NSaved= 3 IEnMin= 3 EnMin= -75.7304845781044     IErMin= 3 ErrMin= 8.08D-07
 ErrMax= 8.08D-07  0.00D+00 EMaxC= 1.00D-01 BMatC= 2.06D-11 BMatP= 2.06D-11
 IDIUse=1 WtCom= 1.00D+00 WtEn= 0.00D+00
 Large coefficients: NSaved=  3 BigCof=  769.64 CofMax=   10.00 Det=-3.32D-18
 Inversion failed.  Reducing to  2 matrices.
 Coeff-Com: -0.113D+00 0.111D+01
 Coeff:     -0.113D+00 0.111D+01
 Gap=     0.504 Goal=   None    Shift=    0.000
 Gap=     0.310 Goal=   None    Shift=    0.000
 RMSDP=1.03D-07 MaxDP=1.58D-06 DE=-3.88D-11 OVMax= 9.37D-06

 Cycle  68  Pass 1  IDiag  1:
 E= -75.7304845781572     Delta-E=       -0.000000000053 Rises=F Damp=F
 DIIS: error= 8.08D-07 at cycle  62 NSaved=   3.
 NSaved= 3 IEnMin= 3 EnMin= -75.7304845781572     IErMin= 3 ErrMin= 8.08D-07
 ErrMax= 8.08D-07  0.00D+00 EMaxC= 1.00D-01 BMatC= 2.06D-11 BMatP= 2.06D-11
 IDIUse=1 WtCom= 1.00D+00 WtEn= 0.00D+00
 Large coefficients: NSaved=  3 BigCof= 6701.22 CofMax=   10.00 Det=-1.87D-19
 Inversion failed.  Reducing to  2 matrices.
 Coeff-Com: -0.611D+01 0.711D+01
 Coeff:     -0.611D+01 0.711D+01
 Gap=     0.504 Goal=   None    Shift=    0.000
 Gap=     0.310 Goal=   None    Shift=    0.000
 RMSDP=7.27D-07 MaxDP=1.11D-05 DE=-5.28D-11 OVMax= 6.59D-05

 Cycle  69  Pass 1  IDiag  1:
 E= -75.7304845785280     Delta-E=       -0.000000000371 Rises=F Damp=F
 DIIS: error= 8.07D-07 at cycle  63 NSaved=   3.
 NSaved= 3 IEnMin= 3 EnMin= -75.7304845785280     IErMin= 3 ErrMin= 8.07D-07
 ErrMax= 8.07D-07  0.00D+00 EMaxC= 1.00D-01 BMatC= 2.06D-11 BMatP= 2.06D-11
 IDIUse=1 WtCom= 1.00D+00 WtEn= 0.00D+00
 Large coefficients: NSaved=  3 BigCof= 6180.19 CofMax=   10.00 Det=-2.48D-19
 Inversion failed.  Reducing to  2 matrices.
 Coeff-Com: -0.960D-01 0.110D+01
 Coeff:     -0.960D-01 0.110D+01
 Gap=     0.504 Goal=   None    Shift=    0.000
 Gap=     0.310 Goal=   None    Shift=    0.000
 RMSDP=1.65D-07 MaxDP=2.51D-06 DE=-3.71D-10 OVMax= 1.49D-05

 Cycle  70  Pass 1  IDiag  1:
 E= -75.7304845786119     Delta-E=       -0.000000000084 Rises=F Damp=F
 DIIS: error= 8.07D-07 at cycle  64 NSaved=   3.
 NSaved= 3 IEnMin= 3 EnMin= -75.7304845786119     IErMin= 3 ErrMin= 8.07D-07
 ErrMax= 8.07D-07  0.00D+00 EMaxC= 1.00D-01 BMatC= 2.06D-11 BMatP= 2.06D-11
 IDIUse=1 WtCom= 1.00D+00 WtEn= 0.00D+00
 Large coefficients: NSaved=  3 BigCof= 2429.51 CofMax=   10.00 Det=-2.51D-18
 Inversion failed.  Reducing to  2 matrices.
 Coeff-Com:  0.433D+00 0.567D+00
 Coeff:      0.433D+00 0.567D+00
 Gap=     0.504 Goal=   None    Shift=    0.000
 Gap=     0.310 Goal=   None    Shift=    0.000
 RMSDP=2.36D-08 MaxDP=3.61D-07 DE=-8.39D-11 OVMax= 2.14D-06

 Cycle  71  Pass 1  IDiag  1:
 E= -75.7304845786239     Delta-E=       -0.000000000012 Rises=F Damp=F
 DIIS: error= 8.07D-07 at cycle  65 NSaved=   3.
 NSaved= 3 IEnMin= 3 EnMin= -75.7304845786239     IErMin= 3 ErrMin= 8.07D-07
 ErrMax= 8.07D-07  0.00D+00 EMaxC= 1.00D-01 BMatC= 2.06D-11 BMatP= 2.06D-11
 IDIUse=1 WtCom= 1.00D+00 WtEn= 0.00D+00
 Large coefficients: NSaved=  3 BigCof= 2416.97 CofMax=   10.00 Det=-1.12D-18
 Inversion failed.  Reducing to  2 matrices.
 Coeff-Com:  0.806D-01 0.919D+00
 Coeff:      0.806D-01 0.919D+00
 Gap=     0.504 Goal=   None    Shift=    0.000
 Gap=     0.310 Goal=   None    Shift=    0.000
 RMSDP=9.29D-08 MaxDP=1.42D-06 DE=-1.21D-11 OVMax= 8.41D-06

 Cycle  72  Pass 1  IDiag  1:
 E= -75.7304845786712     Delta-E=       -0.000000000047 Rises=F Damp=F
 DIIS: error= 8.07D-07 at cycle  66 NSaved=   3.
 NSaved= 3 IEnMin= 3 EnMin= -75.7304845786712     IErMin= 3 ErrMin= 8.07D-07
 ErrMax= 8.07D-07  0.00D+00 EMaxC= 1.00D-01 BMatC= 2.06D-11 BMatP= 2.06D-11
 IDIUse=1 WtCom= 1.00D+00 WtEn= 0.00D+00
 Large coefficients: NSaved=  3 BigCof=24357.09 CofMax=   10.00 Det=-4.00D-20
 Inversion failed.  Reducing to  2 matrices.
 Coeff-Com: -0.594D+01 0.694D+01
 Coeff:     -0.594D+01 0.694D+01
 Gap=     0.504 Goal=   None    Shift=    0.000
 Gap=     0.310 Goal=   None    Shift=    0.000
 RMSDP=6.47D-07 MaxDP=9.88D-06 DE=-4.73D-11 OVMax= 5.86D-05

 Cycle  73  Pass 1  IDiag  1:
 E= -75.7304845790008     Delta-E=       -0.000000000330 Rises=F Damp=F
 DIIS: error= 8.07D-07 at cycle  67 NSaved=   3.
 NSaved= 3 IEnMin= 3 EnMin= -75.7304845790008     IErMin= 3 ErrMin= 8.07D-07
 ErrMax= 8.07D-07  0.00D+00 EMaxC= 1.00D-01 BMatC= 2.06D-11 BMatP= 2.06D-11
 IDIUse=1 WtCom= 1.00D+00 WtEn= 0.00D+00
 Large coefficients: NSaved=  3 BigCof= 8984.14 CofMax=   10.00 Det=-1.70D-19
 Inversion failed.  Reducing to  2 matrices.
 Coeff-Com: -0.325D+00 0.132D+01
 Coeff:     -0.325D+00 0.132D+01
 Gap=     0.504 Goal=   None    Shift=    0.000
 Gap=     0.310 Goal=   None    Shift=    0.000
 RMSDP=3.05D-07 MaxDP=4.65D-06 DE=-3.30D-10 OVMax= 2.76D-05

 Cycle  74  Pass 1  IDiag  1:
 E= -75.7304845791562     Delta-E=       -0.000000000155 Rises=F Damp=F
 DIIS: error= 8.07D-07 at cycle  68 NSaved=   3.
 NSaved= 3 IEnMin= 3 EnMin= -75.7304845791562     IErMin= 3 ErrMin= 8.07D-07
 ErrMax= 8.07D-07  0.00D+00 EMaxC= 1.00D-01 BMatC= 2.06D-11 BMatP= 2.06D-11
 IDIUse=1 WtCom= 1.00D+00 WtEn= 0.00D+00
 Large coefficients: NSaved=  3 BigCof= 2218.43 CofMax=   10.00 Det=-2.66D-18
 Inversion failed.  Reducing to  2 matrices.
 Coeff-Com:  0.417D+00 0.583D+00
 Coeff:      0.417D+00 0.583D+00
 Gap=     0.504 Goal=   None    Shift=    0.000
 Gap=     0.310 Goal=   None    Shift=    0.000
 RMSDP=3.23D-08 MaxDP=4.93D-07 DE=-1.55D-10 OVMax= 2.93D-06

 Cycle  75  Pass 1  IDiag  1:
 E= -75.7304845791397     Delta-E=        0.000000000017 Rises=F Damp=F
 DIIS: error= 8.07D-07 at cycle  69 NSaved=   3.
 NSaved= 3 IEnMin= 2 EnMin= -75.7304845791562     IErMin= 2 ErrMin= 8.07D-07
 ErrMax= 8.07D-07  0.00D+00 EMaxC= 1.00D-01 BMatC= 2.06D-11 BMatP= 2.06D-11
 IDIUse=1 WtCom= 1.00D+00 WtEn= 0.00D+00
 Large coefficients: NSaved=  3 BigCof= 2774.59 CofMax=   10.00 Det=-1.03D-18
 Inversion failed.  Reducing to  2 matrices.
 Coeff-Com:  0.211D+00 0.789D+00
 Coeff:      0.211D+00 0.789D+00
 Gap=     0.504 Goal=   None    Shift=    0.000
 Gap=     0.310 Goal=   None    Shift=    0.000
 RMSDP=1.02D-07 MaxDP=1.55D-06 DE= 1.65D-11 OVMax= 9.20D-06

 Cycle  76  Pass 1  IDiag  1:
 E= -75.7304845791915     Delta-E=       -0.000000000052 Rises=F Damp=F
 DIIS: error= 8.07D-07 at cycle  70 NSaved=   3.
 NSaved= 3 IEnMin= 3 EnMin= -75.7304845791915     IErMin= 3 ErrMin= 8.07D-07
 ErrMax= 8.07D-07  0.00D+00 EMaxC= 1.00D-01 BMatC= 2.06D-11 BMatP= 2.06D-11
 IDIUse=1 WtCom= 1.00D+00 WtEn= 0.00D+00
 Large coefficients: NSaved=  3 BigCof=23734.77 CofMax=   10.00 Det=-4.24D-20
 Inversion failed.  Reducing to  2 matrices.
 Coeff-Com: -0.443D+01 0.543D+01
 Coeff:     -0.443D+01 0.543D+01
 Gap=     0.504 Goal=   None    Shift=    0.000
 Gap=     0.310 Goal=   None    Shift=    0.000
 RMSDP=5.45D-07 MaxDP=8.33D-06 DE=-5.19D-11 OVMax= 4.94D-05

 Cycle  77  Pass 1  IDiag  1:
 E= -75.7304845794693     Delta-E=       -0.000000000278 Rises=F Damp=F
 DIIS: error= 8.07D-07 at cycle  71 NSaved=   3.
 NSaved= 3 IEnMin= 3 EnMin= -75.7304845794693     IErMin= 3 ErrMin= 8.07D-07
 ErrMax= 8.07D-07  0.00D+00 EMaxC= 1.00D-01 BMatC= 2.06D-11 BMatP= 2.06D-11
 IDIUse=1 WtCom= 1.00D+00 WtEn= 0.00D+00
 Large coefficients: NSaved=  3 BigCof= 7782.77 CofMax=   10.00 Det=-2.41D-19
 Inversion failed.  Reducing to  2 matrices.
 Coeff-Com: -0.651D+00 0.165D+01
 Coeff:     -0.651D+00 0.165D+01
 Gap=     0.504 Goal=   None    Shift=    0.000
 Gap=     0.310 Goal=   None    Shift=    0.000
 RMSDP=4.50D-07 MaxDP=6.87D-06 DE=-2.78D-10 OVMax= 4.07D-05

 Cycle  78  Pass 1  IDiag  1:
 E= -75.7304845796982     Delta-E=       -0.000000000229 Rises=F Damp=F
 DIIS: error= 8.07D-07 at cycle  72 NSaved=   3.
 NSaved= 3 IEnMin= 3 EnMin= -75.7304845796982     IErMin= 3 ErrMin= 8.07D-07
 ErrMax= 8.07D-07  0.00D+00 EMaxC= 1.00D-01 BMatC= 2.06D-11 BMatP= 2.06D-11
 IDIUse=1 WtCom= 1.00D+00 WtEn= 0.00D+00
 Large coefficients: NSaved=  3 BigCof= 2447.80 CofMax=   10.00 Det=-2.20D-18
 Inversion failed.  Reducing to  2 matrices.
 Coeff-Com:  0.390D+00 0.610D+00
 Coeff:      0.390D+00 0.610D+00
 Gap=     0.504 Goal=   None    Shift=    0.000
 Gap=     0.310 Goal=   None    Shift=    0.000
 RMSDP=8.06D-08 MaxDP=1.23D-06 DE=-2.29D-10 OVMax= 7.30D-06

 Cycle  79  Pass 1  IDiag  1:
 E= -75.7304845796572     Delta-E=        0.000000000041 Rises=F Damp=F
 DIIS: error= 8.07D-07 at cycle  73 NSaved=   3.
 NSaved= 3 IEnMin= 2 EnMin= -75.7304845796982     IErMin= 2 ErrMin= 8.07D-07
 ErrMax= 8.07D-07  0.00D+00 EMaxC= 1.00D-01 BMatC= 2.06D-11 BMatP= 2.06D-11
 IDIUse=1 WtCom= 1.00D+00 WtEn= 0.00D+00
 Large coefficients: NSaved=  3 BigCof= 4156.72 CofMax=   10.00 Det=-7.98D-19
 Inversion failed.  Reducing to  2 matrices.
 Coeff-Com:  0.300D+00 0.700D+00
 Coeff:      0.300D+00 0.700D+00
 Gap=     0.504 Goal=   None    Shift=    0.000
 Gap=     0.310 Goal=   None    Shift=    0.000
 RMSDP=1.19D-07 MaxDP=1.82D-06 DE= 4.10D-11 OVMax= 1.08D-05

 Cycle  80  Pass 1  IDiag  1:
 E= -75.7304845797178     Delta-E=       -0.000000000061 Rises=F Damp=F
 DIIS: error= 8.07D-07 at cycle  74 NSaved=   3.
 NSaved= 3 IEnMin= 3 EnMin= -75.7304845797178     IErMin= 3 ErrMin= 8.07D-07
 ErrMax= 8.07D-07  0.00D+00 EMaxC= 1.00D-01 BMatC= 2.06D-11 BMatP= 2.06D-11
 IDIUse=1 WtCom= 1.00D+00 WtEn= 0.00D+00
 Large coefficients: NSaved=  3 BigCof=23780.54 CofMax=   10.00 Det=-4.96D-20
 Inversion failed.  Reducing to  2 matrices.
 Coeff-Com: -0.287D+01 0.387D+01
 Coeff:     -0.287D+01 0.387D+01
 Gap=     0.504 Goal=   None    Shift=    0.000
 Gap=     0.310 Goal=   None    Shift=    0.000
 RMSDP=4.36D-07 MaxDP=6.65D-06 DE=-6.06D-11 OVMax= 3.95D-05

 Cycle  81  Pass 1  IDiag  1:
 E= -75.7304845799396     Delta-E=       -0.000000000222 Rises=F Damp=F
 DIIS: error= 8.07D-07 at cycle  75 NSaved=   3.
 NSaved= 3 IEnMin= 3 EnMin= -75.7304845799396     IErMin= 3 ErrMin= 8.07D-07
 ErrMax= 8.07D-07  0.00D+00 EMaxC= 1.00D-01 BMatC= 2.06D-11 BMatP= 2.06D-11
 IDIUse=1 WtCom= 1.00D+00 WtEn= 0.00D+00
 Large coefficients: NSaved=  3 BigCof= 5629.95 CofMax=   10.00 Det=-4.44D-19
 Inversion failed.  Reducing to  2 matrices.
 Coeff-Com: -0.113D+01 0.213D+01
 Coeff:     -0.113D+01 0.213D+01
 Gap=     0.504 Goal=   None    Shift=    0.000
 Gap=     0.310 Goal=   None    Shift=    0.000
 RMSDP=5.85D-07 MaxDP=8.93D-06 DE=-2.22D-10 OVMax= 5.30D-05

 Cycle  82  Pass 1  IDiag  1:
 E= -75.7304845802375     Delta-E=       -0.000000000298 Rises=F Damp=F
 DIIS: error= 8.06D-07 at cycle  76 NSaved=   3.
 NSaved= 3 IEnMin= 3 EnMin= -75.7304845802375     IErMin= 3 ErrMin= 8.06D-07
 ErrMax= 8.06D-07  0.00D+00 EMaxC= 1.00D-01 BMatC= 2.06D-11 BMatP= 2.06D-11
 IDIUse=1 WtCom= 1.00D+00 WtEn= 0.00D+00
 Large coefficients: NSaved=  3 BigCof= 2746.22 CofMax=   10.00 Det=-1.69D-18
 Inversion failed.  Reducing to  2 matrices.
 Coeff-Com:  0.351D+00 0.649D+00
 Coeff:      0.351D+00 0.649D+00
 Gap=     0.504 Goal=   None    Shift=    0.000
 Gap=     0.310 Goal=   None    Shift=    0.000
 RMSDP=1.10D-07 MaxDP=1.69D-06 DE=-2.98D-10 OVMax= 1.00D-05

 Cycle  83  Pass 1  IDiag  1:
 E= -75.7304845801811     Delta-E=        0.000000000056 Rises=F Damp=F
 DIIS: error= 8.06D-07 at cycle  77 NSaved=   3.
 NSaved= 3 IEnMin= 2 EnMin= -75.7304845802375     IErMin= 2 ErrMin= 8.06D-07
 ErrMax= 8.06D-07  0.00D+00 EMaxC= 1.00D-01 BMatC= 2.06D-11 BMatP= 2.06D-11
 IDIUse=1 WtCom= 1.00D+00 WtEn= 0.00D+00
 Large coefficients: NSaved=  3 BigCof= 5022.96 CofMax=   10.00 Det=-7.63D-19
 Inversion failed.  Reducing to  2 matrices.
 Coeff-Com:  0.361D+00 0.639D+00
 Coeff:      0.361D+00 0.639D+00
 Gap=     0.504 Goal=   None    Shift=    0.000
 Gap=     0.310 Goal=   None    Shift=    0.000
 RMSDP=1.34D-07 MaxDP=2.05D-06 DE= 5.64D-11 OVMax= 1.22D-05

 Cycle  84  Pass 1  IDiag  1:
 E= -75.7304845802496     Delta-E=       -0.000000000068 Rises=F Damp=F
 DIIS: error= 8.06D-07 at cycle  78 NSaved=   3.
 NSaved= 3 IEnMin= 3 EnMin= -75.7304845802496     IErMin= 3 ErrMin= 8.06D-07
 ErrMax= 8.06D-07  0.00D+00 EMaxC= 1.00D-01 BMatC= 2.06D-11 BMatP= 2.06D-11
 IDIUse=1 WtCom= 1.00D+00 WtEn= 0.00D+00
 Large coefficients: NSaved=  3 BigCof=18855.10 CofMax=   10.00 Det=-7.41D-20
 Inversion failed.  Reducing to  2 matrices.
 Coeff-Com: -0.175D+01 0.275D+01
 Coeff:     -0.175D+01 0.275D+01
 Gap=     0.504 Goal=   None    Shift=    0.000
 Gap=     0.310 Goal=   None    Shift=    0.000
 RMSDP=3.30D-07 MaxDP=5.04D-06 DE=-6.85D-11 OVMax= 2.99D-05

 Cycle  85  Pass 1  IDiag  1:
 E= -75.7304845804177     Delta-E=       -0.000000000168 Rises=F Damp=F
 DIIS: error= 8.06D-07 at cycle  79 NSaved=   3.
 NSaved= 3 IEnMin= 3 EnMin= -75.7304845804177     IErMin= 3 ErrMin= 8.06D-07
 ErrMax= 8.06D-07  0.00D+00 EMaxC= 1.00D-01 BMatC= 2.06D-11 BMatP= 2.06D-11
 IDIUse=1 WtCom= 1.00D+00 WtEn= 0.00D+00
 Large coefficients: NSaved=  3 BigCof= 4344.38 CofMax=   10.00 Det=-7.59D-19
 Inversion failed.  Reducing to  2 matrices.
 Coeff-Com: -0.183D+01 0.283D+01
 Coeff:     -0.183D+01 0.283D+01
 Gap=     0.504 Goal=   None    Shift=    0.000
 Gap=     0.310 Goal=   None    Shift=    0.000
 RMSDP=6.98D-07 MaxDP=1.07D-05 DE=-1.68D-10 OVMax= 6.32D-05

 Cycle  86  Pass 1  IDiag  1:
 E= -75.7304845807729     Delta-E=       -0.000000000355 Rises=F Damp=F
 DIIS: error= 8.06D-07 at cycle  80 NSaved=   3.
 NSaved= 3 IEnMin= 3 EnMin= -75.7304845807729     IErMin= 3 ErrMin= 8.06D-07
 ErrMax= 8.06D-07  0.00D+00 EMaxC= 1.00D-01 BMatC= 2.05D-11 BMatP= 2.06D-11
 IDIUse=1 WtCom= 1.00D+00 WtEn= 0.00D+00
 Large coefficients: NSaved=  3 BigCof= 3382.26 CofMax=   10.00 Det=-1.12D-18
 Inversion failed.  Reducing to  2 matrices.
 Coeff-Com:  0.298D+00 0.702D+00
 Coeff:      0.298D+00 0.702D+00
 Gap=     0.504 Goal=   None    Shift=    0.000
 Gap=     0.310 Goal=   None    Shift=    0.000
 RMSDP=1.13D-07 MaxDP=1.73D-06 DE=-3.55D-10 OVMax= 1.03D-05

 Cycle  87  Pass 1  IDiag  1:
 E= -75.7304845807153     Delta-E=        0.000000000058 Rises=F Damp=F
 DIIS: error= 8.06D-07 at cycle  81 NSaved=   3.
 NSaved= 3 IEnMin= 2 EnMin= -75.7304845807729     IErMin= 2 ErrMin= 8.06D-07
 ErrMax= 8.06D-07  0.00D+00 EMaxC= 1.00D-01 BMatC= 2.05D-11 BMatP= 2.05D-11
 IDIUse=1 WtCom= 1.00D+00 WtEn= 0.00D+00
 Large coefficients: NSaved=  3 BigCof= 4487.50 CofMax=   10.00 Det=-9.97D-19
 Inversion failed.  Reducing to  2 matrices.
 Coeff-Com:  0.400D+00 0.600D+00
 Coeff:      0.400D+00 0.600D+00
 Gap=     0.504 Goal=   None    Shift=    0.000
 Gap=     0.310 Goal=   None    Shift=    0.000
 RMSDP=1.40D-07 MaxDP=2.14D-06 DE= 5.75D-11 OVMax= 1.27D-05

 Cycle  88  Pass 1  IDiag  1:
 E= -75.7304845807866     Delta-E=       -0.000000000071 Rises=F Damp=F
 DIIS: error= 8.06D-07 at cycle  82 NSaved=   3.
 NSaved= 3 IEnMin= 3 EnMin= -75.7304845807866     IErMin= 3 ErrMin= 8.06D-07
 ErrMax= 8.06D-07  0.00D+00 EMaxC= 1.00D-01 BMatC= 2.05D-11 BMatP= 2.05D-11
 IDIUse=1 WtCom= 1.00D+00 WtEn= 0.00D+00
 Large coefficients: NSaved=  3 BigCof=11791.27 CofMax=   10.00 Det=-1.37D-19
 Inversion failed.  Reducing to  2 matrices.
 Coeff-Com: -0.103D+01 0.203D+01
 Coeff:     -0.103D+01 0.203D+01
 Gap=     0.504 Goal=   None    Shift=    0.000
 Gap=     0.310 Goal=   None    Shift=    0.000
 RMSDP=2.39D-07 MaxDP=3.65D-06 DE=-7.12D-11 OVMax= 2.16D-05

 Cycle  89  Pass 1  IDiag  1:
 E= -75.7304845809080     Delta-E=       -0.000000000121 Rises=F Damp=F
 DIIS: error= 8.06D-07 at cycle  83 NSaved=   3.
 NSaved= 3 IEnMin= 3 EnMin= -75.7304845809080     IErMin= 3 ErrMin= 8.06D-07
 ErrMax= 8.06D-07  0.00D+00 EMaxC= 1.00D-01 BMatC= 2.05D-11 BMatP= 2.05D-11
 IDIUse=1 WtCom= 1.00D+00 WtEn= 0.00D+00
 Large coefficients: NSaved=  3 BigCof= 6251.86 CofMax=   10.00 Det=-1.12D-18
 Inversion failed.  Reducing to  2 matrices.
 Coeff-Com: -0.286D+01 0.386D+01
 Coeff:     -0.286D+01 0.386D+01
 Gap=     0.504 Goal=   None    Shift=    0.000
 Gap=     0.310 Goal=   None    Shift=    0.000
 RMSDP=7.78D-07 MaxDP=1.19D-05 DE=-1.21D-10 OVMax= 7.05D-05

 Cycle  90  Pass 1  IDiag  1:
 E= -75.7304845813037     Delta-E=       -0.000000000396 Rises=F Damp=F
 DIIS: error= 8.06D-07 at cycle  84 NSaved=   3.
 NSaved= 3 IEnMin= 3 EnMin= -75.7304845813037     IErMin= 3 ErrMin= 8.06D-07
 ErrMax= 8.06D-07  0.00D+00 EMaxC= 1.00D-01 BMatC= 2.05D-11 BMatP= 2.05D-11
 IDIUse=1 WtCom= 1.00D+00 WtEn= 0.00D+00
 Large coefficients: NSaved=  3 BigCof= 4473.48 CofMax=   10.00 Det=-6.63D-19
 Inversion failed.  Reducing to  2 matrices.
 Coeff-Com:  0.229D+00 0.771D+00
 Coeff:      0.229D+00 0.771D+00
 Gap=     0.504 Goal=   None    Shift=    0.000
 Gap=     0.310 Goal=   None    Shift=    0.000
 RMSDP=8.32D-08 MaxDP=1.27D-06 DE=-3.96D-10 OVMax= 7.53D-06

 Cycle  91  Pass 1  IDiag  1:
 E= -75.7304845812615     Delta-E=        0.000000000042 Rises=F Damp=F
 DIIS: error= 8.06D-07 at cycle  85 NSaved=   3.
 NSaved= 3 IEnMin= 2 EnMin= -75.7304845813037     IErMin= 2 ErrMin= 8.06D-07
 ErrMax= 8.06D-07  0.00D+00 EMaxC= 1.00D-01 BMatC= 2.05D-11 BMatP= 2.05D-11
 IDIUse=1 WtCom= 1.00D+00 WtEn= 0.00D+00
 Large coefficients: NSaved=  3 BigCof= 3524.95 CofMax=   10.00 Det=-1.53D-18
 Inversion failed.  Reducing to  2 matrices.
 Coeff-Com:  0.425D+00 0.575D+00
 Coeff:      0.425D+00 0.575D+00
 Gap=     0.504 Goal=   None    Shift=    0.000
 Gap=     0.310 Goal=   None    Shift=    0.000
 RMSDP=1.30D-07 MaxDP=1.99D-06 DE= 4.22D-11 OVMax= 1.18D-05

 Cycle  92  Pass 1  IDiag  1:
 E= -75.7304845813276     Delta-E=       -0.000000000066 Rises=F Damp=F
 DIIS: error= 8.06D-07 at cycle  86 NSaved=   3.
 NSaved= 3 IEnMin= 3 EnMin= -75.7304845813276     IErMin= 3 ErrMin= 8.06D-07
 ErrMax= 8.06D-07  0.00D+00 EMaxC= 1.00D-01 BMatC= 2.05D-11 BMatP= 2.05D-11
 IDIUse=1 WtCom= 1.00D+00 WtEn= 0.00D+00
 Large coefficients: NSaved=  3 BigCof= 5914.52 CofMax=   10.00 Det=-3.10D-19
 Inversion failed.  Reducing to  2 matrices.
 Coeff-Com: -0.562D+00 0.156D+01
 Coeff:     -0.562D+00 0.156D+01
 Gap=     0.504 Goal=   None    Shift=    0.000
 Gap=     0.310 Goal=   None    Shift=    0.000
 RMSDP=1.68D-07 MaxDP=2.56D-06 DE=-6.61D-11 OVMax= 1.52D-05

 Cycle  93  Pass 1  IDiag  1:
 E= -75.7304845814130     Delta-E=       -0.000000000085 Rises=F Damp=F
 DIIS: error= 8.06D-07 at cycle  87 NSaved=   3.
 NSaved= 3 IEnMin= 3 EnMin= -75.7304845814130     IErMin= 3 ErrMin= 8.06D-07
 ErrMax= 8.06D-07  0.00D+00 EMaxC= 1.00D-01 BMatC= 2.05D-11 BMatP= 2.05D-11
 IDIUse=1 WtCom= 1.00D+00 WtEn= 0.00D+00
 Large coefficients: NSaved=  3 BigCof=10483.99 CofMax=   10.00 Det=-3.38D-19
 Inversion failed.  Reducing to  2 matrices.
 Coeff-Com: -0.432D+01 0.532D+01
 Coeff:     -0.432D+01 0.532D+01
 Gap=     0.504 Goal=   None    Shift=    0.000
 Gap=     0.310 Goal=   None    Shift=    0.000
 RMSDP=8.19D-07 MaxDP=1.25D-05 DE=-8.54D-11 OVMax= 7.42D-05

 Cycle  94  Pass 1  IDiag  1:
 E= -75.7304845818296     Delta-E=       -0.000000000417 Rises=F Damp=F
 DIIS: error= 8.05D-07 at cycle  88 NSaved=   3.
 NSaved= 3 IEnMin= 3 EnMin= -75.7304845818296     IErMin= 3 ErrMin= 8.05D-07
 ErrMax= 8.05D-07  0.00D+00 EMaxC= 1.00D-01 BMatC= 2.05D-11 BMatP= 2.05D-11
 IDIUse=1 WtCom= 1.00D+00 WtEn= 0.00D+00
 Large coefficients: NSaved=  3 BigCof= 6217.25 CofMax=   10.00 Det=-3.62D-19
 Inversion failed.  Reducing to  2 matrices.
 Coeff-Com:  0.138D+00 0.862D+00
 Coeff:      0.138D+00 0.862D+00
 Gap=     0.504 Goal=   None    Shift=    0.000
 Gap=     0.310 Goal=   None    Shift=    0.000
 RMSDP=1.88D-08 MaxDP=2.86D-07 DE=-4.17D-10 OVMax= 1.70D-06

 Cycle  95  Pass 1  IDiag  1:
 E= -75.7304845818200     Delta-E=        0.000000000010 Rises=F Damp=F
 DIIS: error= 8.05D-07 at cycle  89 NSaved=   3.
 NSaved= 3 IEnMin= 2 EnMin= -75.7304845818296     IErMin= 2 ErrMin= 8.05D-07
 ErrMax= 8.05D-07  0.00D+00 EMaxC= 1.00D-01 BMatC= 2.05D-11 BMatP= 2.05D-11
 IDIUse=1 WtCom= 1.00D+00 WtEn= 0.00D+00
 Large coefficients: NSaved=  3 BigCof= 2743.89 CofMax=   10.00 Det=-2.24D-18
 Inversion failed.  Reducing to  2 matrices.
 Coeff-Com:  0.438D+00 0.562D+00
 Coeff:      0.438D+00 0.562D+00
 Gap=     0.504 Goal=   None    Shift=    0.000
 Gap=     0.310 Goal=   None    Shift=    0.000
 RMSDP=1.03D-07 MaxDP=1.57D-06 DE= 9.62D-12 OVMax= 9.31D-06

 Cycle  96  Pass 1  IDiag  1:
 E= -75.7304845818722     Delta-E=       -0.000000000052 Rises=F Damp=F
 DIIS: error= 8.05D-07 at cycle  90 NSaved=   3.
 NSaved= 3 IEnMin= 3 EnMin= -75.7304845818722     IErMin= 3 ErrMin= 8.05D-07
 ErrMax= 8.05D-07  0.00D+00 EMaxC= 1.00D-01 BMatC= 2.05D-11 BMatP= 2.05D-11
 IDIUse=1 WtCom= 1.00D+00 WtEn= 0.00D+00
 Large coefficients: NSaved=  3 BigCof= 3042.27 CofMax=   10.00 Det=-7.16D-19
 Inversion failed.  Reducing to  2 matrices.
 Coeff-Com: -0.252D+00 0.125D+01
 Coeff:     -0.252D+00 0.125D+01
 Gap=     0.504 Goal=   None    Shift=    0.000
 Gap=     0.310 Goal=   None    Shift=    0.000
 RMSDP=1.20D-07 MaxDP=1.84D-06 DE=-5.22D-11 OVMax= 1.09D-05

 Cycle  97  Pass 1  IDiag  1:
 E= -75.7304845819335     Delta-E=       -0.000000000061 Rises=F Damp=F
 DIIS: error= 8.05D-07 at cycle  91 NSaved=   3.
 NSaved= 3 IEnMin= 3 EnMin= -75.7304845819335     IErMin= 3 ErrMin= 8.05D-07
 ErrMax= 8.05D-07  0.00D+00 EMaxC= 1.00D-01 BMatC= 2.05D-11 BMatP= 2.05D-11
 IDIUse=1 WtCom= 1.00D+00 WtEn= 0.00D+00
 Large coefficients: NSaved=  3 BigCof=16886.05 CofMax=   10.00 Det=-9.92D-20
 Inversion failed.  Reducing to  2 matrices.
 Coeff-Com: -0.601D+01 0.701D+01
 Coeff:     -0.601D+01 0.701D+01
 Gap=     0.504 Goal=   None    Shift=    0.000
 Gap=     0.310 Goal=   None    Shift=    0.000
 RMSDP=8.18D-07 MaxDP=1.25D-05 DE=-6.13D-11 OVMax= 7.41D-05

 Cycle  98  Pass 1  IDiag  1:
 E= -75.7304845823498     Delta-E=       -0.000000000416 Rises=F Damp=F
 DIIS: error= 8.05D-07 at cycle  92 NSaved=   3.
 NSaved= 3 IEnMin= 3 EnMin= -75.7304845823498     IErMin= 3 ErrMin= 8.05D-07
 ErrMax= 8.05D-07  0.00D+00 EMaxC= 1.00D-01 BMatC= 2.05D-11 BMatP= 2.05D-11
 IDIUse=1 WtCom= 1.00D+00 WtEn= 0.00D+00
 Large coefficients: NSaved=  3 BigCof= 8439.95 CofMax=   10.00 Det=-2.07D-19
 Inversion failed.  Reducing to  2 matrices.
 Coeff-Com:  0.207D-01 0.979D+00
 Coeff:      0.207D-01 0.979D+00
 Gap=     0.504 Goal=   None    Shift=    0.000
 Gap=     0.310 Goal=   None    Shift=    0.000
[...]
 Coeff:     -0.105D+00 0.121D+01
 Gap=     0.195 Goal=   None    Shift=    0.000
 RMSDP=4.84D-07 MaxDP=1.40D-05 DE=-4.79D-09 OVMax= 1.06D-05

 Cycle   9  Pass 1  IDiag  1:
 Density matrix breaks symmetry, PCut= 1.00D-07
 Density matrix has no symmetry -- integrals replicated.
 E= -75.4165927762283     Delta-E=       -0.000000000428 Rises=F Damp=F
 DIIS: error= 5.20D-07 at cycle   9 NSaved=   9.
 NSaved= 9 IEnMin= 9 EnMin= -75.4165927762283     IErMin= 9 ErrMin= 5.20D-07
 ErrMax= 5.20D-07  0.00D+00 EMaxC= 1.00D-01 BMatC= 9.59D-12 BMatP= 1.93D-10
 IDIUse=1 WtCom= 1.00D+00 WtEn= 0.00D+00
 Coeff-Com:  0.476D-05-0.101D-03-0.123D-03 0.909D-03 0.453D-02-0.409D-02
 Coeff-Com: -0.523D-01-0.578D-01 0.111D+01
 Coeff:      0.476D-05-0.101D-03-0.123D-03 0.909D-03 0.453D-02-0.409D-02
 Coeff:     -0.523D-01-0.578D-01 0.111D+01
 Gap=     0.195 Goal=   None    Shift=    0.000
 RMSDP=8.60D-08 MaxDP=2.94D-06 DE=-4.28D-10 OVMax= 2.28D-06

 Cycle  10  Pass 1  IDiag  1:
 Density matrix breaks symmetry, PCut= 1.00D-07
 Density matrix has no symmetry -- integrals replicated.
 E= -75.4165927762472     Delta-E=       -0.000000000019 Rises=F Damp=F
 DIIS: error= 1.19D-07 at cycle  10 NSaved=  10.
 NSaved=10 IEnMin=10 EnMin= -75.4165927762472     IErMin=10 ErrMin= 1.19D-07
 ErrMax= 1.19D-07  0.00D+00 EMaxC= 1.00D-01 BMatC= 4.03D-13 BMatP= 9.59D-12
 IDIUse=1 WtCom= 1.00D+00 WtEn= 0.00D+00
 Coeff-Com:  0.135D-05 0.668D-05-0.458D-04-0.258D-03-0.585D-03 0.589D-02
 Coeff-Com:  0.935D-02-0.512D-01-0.136D+00 0.117D+01
 Coeff:      0.135D-05 0.668D-05-0.458D-04-0.258D-03-0.585D-03 0.589D-02
 Coeff:      0.935D-02-0.512D-01-0.136D+00 0.117D+01
 Gap=     0.195 Goal=   None    Shift=    0.000
 RMSDP=1.24D-08 MaxDP=1.84D-07 DE=-1.89D-11 OVMax= 4.94D-07

 Cycle  11  Pass 1  IDiag  1:
 Density matrix breaks symmetry, PCut= 1.00D-07
 Density matrix has no symmetry -- integrals replicated.
 E= -75.4165927762480     Delta-E=       -0.000000000001 Rises=F Damp=F
 DIIS: error= 1.81D-08 at cycle  11 NSaved=  11.
 NSaved=11 IEnMin=11 EnMin= -75.4165927762480     IErMin=11 ErrMin= 1.81D-08
 ErrMax= 1.81D-08  0.00D+00 EMaxC= 1.00D-01 BMatC= 7.12D-15 BMatP= 4.03D-13
 IDIUse=1 WtCom= 1.00D+00 WtEn= 0.00D+00
 Coeff-Com: -0.290D-06 0.182D-05 0.919D-05 0.131D-04-0.320D-04-0.810D-03
 Coeff-Com:  0.173D-03 0.867D-02-0.158D-01-0.137D+00 0.115D+01
 Coeff:     -0.290D-06 0.182D-05 0.919D-05 0.131D-04-0.320D-04-0.810D-03
 Coeff:      0.173D-03 0.867D-02-0.158D-01-0.137D+00 0.115D+01
 Gap=     0.195 Goal=   None    Shift=    0.000
 RMSDP=1.65D-09 MaxDP=2.90D-08 DE=-8.10D-13 OVMax= 5.96D-08

 Density matrix breaks symmetry, PCut= 1.00D-07
 Density matrix has no symmetry -- integrals replicated.
 SCF Done:  E(ROHF) =  -75.4165927762     A.U. after   11 cycles
            NFock= 11  Conv=0.16D-08     -V/T= 2.0010
 <Sx>= 0.0000 <Sy>= 0.0000 <Sz>= 0.5000 <S**2>= 0.7500 S= 0.5000
 <L.S>= 0.000000000000E+00
 KE= 7.534220670816D+01 PE=-1.879864427335D+02 EE= 3.286944270115D+01
 Annihilation of the first spin contaminant:
 S**2 before annihilation     0.7500,   after     0.7500
 Leave Link  502 at Fri Oct  2 21:29:28 2020, MaxMem=   327680000 cpu:               6.1 elap:               0.9
 (Enter /applis/site/cecic/gaussian16/B.01/nehalem/g16/l801.exe)
 Windowed orbitals will be sorted by symmetry type.
 An orbital has undefined symmetry, so N**3 symmetry is turned off.
 Density matrix breaks symmetry, PCut= 1.00D-07
 Density matrix has no symmetry -- integrals replicated.
 GenMOA:  NOpAll=  4 NOp2=4 NOpUse=  1 JSym2X=2
 FoFJK:  IHMeth= 1 ICntrl=       0 DoSepK=F KAlg= 0 I1Cent=           0 FoldK=F
 IRaf=         0 NMat=       1 IRICut=       1 DoRegI=T DoRafI=F ISym2E= 2 IDoP0=0 IntGTp=1.
 FoFCou: FMM=F IPFlag=           0 FMFlag=      100000 FMFlg1=           0
         NFxFlg=           0 DoJE=F BraDBF=F KetDBF=F FulRan=T
         wScrn=  0.000000 ICntrl=         0 IOpCl=  1 I1Cent=           0 NGrid=           0
         NMat0=    1 NMatS0=      1 NMatT0=    0 NMatD0=    1 NMtDS0=    0 NMtDT0=    0
 Integrals replicated using symmetry in FoFCou.
 <Sx>= 0.0000 <Sy>= 0.0000 <Sz>= 0.5000 <S**2>= 0.7500 S= 0.5000
 ExpMin= 2.53D-02 ExpMax= 1.53D+04 ExpMxC= 5.22D+02 IAcc=3 IRadAn=         5 AccDes= 0.00D+00
 HarFok:  IExCor=  205 AccDes= 0.00D+00 IRadAn=         5 IDoV=-2 UseB2=F ITyADJ=14
 ICtDFT= 12500011 ScaDFX=  1.000000  1.000000  1.000000  1.000000
 Largest valence mixing into a core orbital is  1.07D-04
 Largest core mixing into a valence orbital is  1.50D-05
 Largest valence mixing into a core orbital is  1.25D-04
 Largest core mixing into a valence orbital is  3.03D-05
 Range of M.O.s used for correlation:     2    69
 NBasis=    69 NAE=     5 NBE=     4 NFC=     1 NFV=     0
 NROrb=     68 NOA=     4 NOB=     3 NVA=    64 NVB=    65

 **** Warning!!: The largest alpha MO coefficient is  0.13591971D+02


 **** Warning!!: The largest beta MO coefficient is  0.13807632D+02

 Singles contribution to E2=   -0.3365666310D-02
 Leave Link  801 at Fri Oct  2 21:29:29 2020, MaxMem=   327680000 cpu:               2.9 elap:               0.4
 (Enter /applis/site/cecic/gaussian16/B.01/nehalem/g16/l804.exe)
 Open-shell transformation, MDV=   327680000 ITran=4 ISComp=1.
 Unit  1 TFree=         24353 TCopy=        308363.
 Semi-Direct transformation.
 ModeAB=           2 MOrb=             4 LenV=     327358014
 LASXX=       595285 LTotXX=      595285 LenRXX=      595285
 LTotAB=      624036 MaxLAS=      881280 LenRXY=      881280
 NonZer=     1190570 LenScr=     2359296 LnRSAI=           0
 LnScr1=           0 LExtra=           0 Total=      3835861
 MaxDsk=          -1 SrtSym=           F ITran=            4
 DoSDTr:  NPSUse=  8
 JobTyp=1 Pass  1:  I=   1 to   4.
 (rs|ai) integrals will be sorted in core.
 Complete sort for first half transformation.
 First half transformation complete.
 Complete sort for second half transformation.
 Second half transformation complete.
 ModeAB=           2 MOrb=             3 LenV=     327358014
 LASXX=       450456 LTotXX=      450456 LenRXX=      660960
 LTotAB=      418080 MaxLAS=      660960 LenRXY=      418080
 NonZer=      900912 LenScr=     1966080 LnRSAI=           0
 LnScr1=           0 LExtra=           0 Total=      3045120
 MaxDsk=          -1 SrtSym=           F ITran=            4
 DoSDTr:  NPSUse=  8
 JobTyp=2 Pass  1:  I=   1 to   3.
 (rs|ai) integrals will be sorted in core.
 Complete sort for first half transformation.
 First half transformation complete.
 Complete sort for second half transformation.
 Second half transformation complete.
 SymMOI:  orbitals are not symmetric.
 Spin components of T(2) and E(2):
     alpha-alpha T2 =       0.7495076677D-02 E2=     -0.3281870815D-01
     alpha-beta  T2 =       0.3500230036D-01 E2=     -0.1585852226D+00
     beta-beta   T2 =       0.3680703714D-02 E2=     -0.1533988612D-01
 ANorm=    0.1023422786D+01
 E2 =    -0.2101094831D+00 EUMP2 =    -0.75626702259395D+02
 (S**2,0)=  0.75000D+00           (S**2,1)=  0.75000D+00
 E(PUHF)=      -0.75416592776D+02        E(PMP2)=      -0.75626702259D+02
 Leave Link  804 at Fri Oct  2 21:29:30 2020, MaxMem=   327680000 cpu:               6.8 elap:               1.0
 (Enter /applis/site/cecic/gaussian16/B.01/nehalem/g16/l913.exe)
 CIDS:  MDV=   327680000.
 Frozen-core window:  NFC=   1 NFV=   0.
 IFCWin=0 IBDFC=1 NFBD=     0     0 NFCmp=     0     0 NFFFC=     0     0
 Using original routines for 1st iteration.
 Using DD4UQ or CC4UQ for 2nd and later iterations.
 Keep R2 and R3 ints in memory in symmetry-blocked form, NReq=6833836.
 FoFCou: FMM=F IPFlag=           0 FMFlag=           0 FMFlg1=           0
         NFxFlg=           0 DoJE=F BraDBF=F KetDBF=F FulRan=T
         wScrn=  0.000000 ICntrl=       600 IOpCl=  0 I1Cent=           0 NGrid=           0
         NMat0=    1 NMatS0=   2415 NMatT0=    0 NMatD0=    1 NMtDS0=    0 NMtDT0=    0
 Petite list used in FoFCou.
 CIDS: In Core Option IDoMem=           1.
 CCSD(T)
 =======
 Iterations=  50 Convergence= 0.100D-06
 Produce multiple copies of IABC intergrals
 Iteration Nr.   1
 **********************
 DD1Dir will call FoFMem   1 times, MxPair=        34
 NAB=    12 NAA=     6 NBB=     3.
 DD1Dir will call FoFMem   1 times, MxPair=        34
 NAB=    12 NAA=     6 NBB=     3.
 MP4(R+Q)=  0.14830425D-01
 Maximum subspace dimension=  5
 A-vector RMS=  1.8751818D-04 Max=  6.8668099D-04 conv= 1.00D-05.
 RLE energy=       -0.2068045139
 E3=       -0.11486743D-01        EROMP3=      -0.75638189003D+02
 E4(SDQ)=  -0.11698537D-02        ROMP4(SDQ)=  -0.75639358856D+02
 VARIATIONAL ENERGIES WITH THE FIRST-ORDER WAVEFUNCTION:
 DE(Corr)= -0.20675017     E(Corr)=     -75.623342943    
 NORM(A)=   0.10224712D+01
 Iteration Nr.   2
 **********************
 DD1Dir will call FoFMem   1 times, MxPair=        34
 NAB=    12 NAA=     6 NBB=     3.
 A-vector RMS=  2.7820596D-03 Max=  1.1895071D-02 conv= 1.00D-05.
 RLE energy=       -0.2090658284
 DE(Corr)= -0.21802428     E(CORR)=     -75.634617055     Delta=-1.13D-02
 NORM(A)=   0.10230128D+01
 Iteration Nr.   3
 **********************
 DD1Dir will call FoFMem   1 times, MxPair=        34
 NAB=    12 NAA=     6 NBB=     3.
 A-vector RMS=  2.3036526D-03 Max=  9.9567701D-03 conv= 1.00D-05.
 RLE energy=       -0.2133795443
 DE(Corr)= -0.21876643     E(CORR)=     -75.635359208     Delta=-7.42D-04
 NORM(A)=   0.10243807D+01
 Iteration Nr.   4
 **********************
 DD1Dir will call FoFMem   1 times, MxPair=        34
 NAB=    12 NAA=     6 NBB=     3.
 A-vector RMS=  1.7636217D-03 Max=  7.8750757D-03 conv= 1.00D-05.
 RLE energy=       -0.2303707285
 DE(Corr)= -0.21993425     E(CORR)=     -75.636527028     Delta=-1.17D-03
 NORM(A)=   0.10321402D+01
 Iteration Nr.   5
 **********************
 DD1Dir will call FoFMem   1 times, MxPair=        34
 NAB=    12 NAA=     6 NBB=     3.
 A-vector RMS=  1.3657860D-03 Max=  5.7940214D-03 conv= 1.00D-05.
 RLE energy=       -0.2221693923
 DE(Corr)= -0.22523607     E(CORR)=     -75.641828846     Delta=-5.30D-03
 NORM(A)=   0.10280808D+01
 Iteration Nr.   6
 **********************
 DD1Dir will call FoFMem   1 times, MxPair=        34
 NAB=    12 NAA=     6 NBB=     3.
 A-vector RMS=  1.6739365D-04 Max=  8.1027676D-04 conv= 1.00D-05.
 RLE energy=       -0.2230106028
 DE(Corr)= -0.22273214     E(CORR)=     -75.639324919     Delta= 2.50D-03
 NORM(A)=   0.10285187D+01
 Iteration Nr.   7
 **********************
 DD1Dir will call FoFMem   1 times, MxPair=        34
 NAB=    12 NAA=     6 NBB=     3.
 A-vector RMS=  1.8950329D-05 Max=  1.0876278D-04 conv= 1.00D-05.
 RLE energy=       -0.2230016127
 DE(Corr)= -0.22300489     E(CORR)=     -75.639597664     Delta=-2.73D-04
 NORM(A)=   0.10285164D+01
 Iteration Nr.   8
 **********************
 DD1Dir will call FoFMem   1 times, MxPair=        34
 NAB=    12 NAA=     6 NBB=     3.
 A-vector RMS=  8.2483182D-06 Max=  3.5326369D-05 conv= 1.00D-05.
 RLE energy=       -0.2230031740
 DE(Corr)= -0.22300469     E(CORR)=     -75.639597467     Delta= 1.98D-07
 NORM(A)=   0.10285130D+01
 Iteration Nr.   9
 **********************
 DD1Dir will call FoFMem   1 times, MxPair=        34
 NAB=    12 NAA=     6 NBB=     3.
 A-vector RMS=  3.1633251D-06 Max=  1.4910651D-05 conv= 1.00D-05.
 RLE energy=       -0.2230034225
 DE(Corr)= -0.22300276     E(CORR)=     -75.639595537     Delta= 1.93D-06
 NORM(A)=   0.10285129D+01
 Iteration Nr.  10
 **********************
 DD1Dir will call FoFMem   1 times, MxPair=        34
 NAB=    12 NAA=     6 NBB=     3.
 A-vector RMS=  1.2395224D-06 Max=  5.1250925D-06 conv= 1.00D-05.
 RLE energy=       -0.2230034767
 DE(Corr)= -0.22300334     E(CORR)=     -75.639596112     Delta=-5.76D-07
 NORM(A)=   0.10285129D+01
 Iteration Nr.  11
 **********************
 DD1Dir will call FoFMem   1 times, MxPair=        34
 NAB=    12 NAA=     6 NBB=     3.
 A-vector RMS=  5.2657122D-07 Max=  2.1586615D-06 conv= 1.00D-05.
 RLE energy=       -0.2230034330
 DE(Corr)= -0.22300336     E(CORR)=     -75.639596138     Delta=-2.56D-08
 NORM(A)=   0.10285130D+01
 CI/CC converged in   11 iterations to DelEn=-2.56D-08 Conv= 1.00D-07 ErrA1= 5.27D-07 Conv= 1.00D-05
 Wavefunction amplitudes converged. E(Corr)=     -75.639596138    
 Largest amplitude= 2.26D-02
 Time for triples=       46.77 seconds.
 T4(CCSD)= -0.61316533D-02
 T5(CCSD)=  0.17706500D-03
 CCSD(T)= -0.75645550726D+02
 Discarding MO integrals.
 Leave Link  913 at Fri Oct  2 21:29:43 2020, MaxMem=   327680000 cpu:              97.3 elap:              13.1
 (Enter /applis/site/cecic/gaussian16/B.01/nehalem/g16/l601.exe)
 Copying SCF densities to generalized density rwf, IOpCl= 0 IROHF=1.
 SCF density gives NOpUse=  1 NOpAll=  4.
 Marking SCF density as not fully symmetric.

 **********************************************************************

            Population analysis using the SCF Density.

 **********************************************************************

 Orbital symmetries:
       Occupied  (SG) (SG) (SG) (PI) (PI)
       Virtual   (SG) (SG) (PI) (PI) (SG) (SG) (PI) (PI) (SG) (?A)
                 (?A) (?A) (PI) (PI) (PI) (?B) (PI) (?B) (?B) (?B)
                 (PI) (SG) (PI) (PI) (PI) (SG) (?C) (PHI) (PHI)
                 (DLTA) (DLTA) (PI) (PI) (?C) (?C) (?C) (?C) (PI)
                 (PI) (SG) (DLTA) (DLTA) (PI) (PI) (PI) (PI) (SG)
                 (SG) (PI) (PI) (?D) (PHI) (PHI) (?D) (?D) (DLTA)
                 (DLTA) (PI) (PI) (PI) (PI) (SG) (SG) (SG)
 Unable to determine electronic state:  partially filled degenerate orbitals.
 Alpha  occ. eigenvalues --  -20.63918  -1.37896  -0.68128  -0.64698  -0.55691
 Alpha virt. eigenvalues --    0.02977   0.13659   0.15314   0.16239   0.18346
 Alpha virt. eigenvalues --    0.26203   0.26841   0.27463   0.42668   0.62781
 Alpha virt. eigenvalues --    0.63778   0.64658   0.71372   0.72704   0.85513
 Alpha virt. eigenvalues --    0.87433   0.88164   0.92722   0.93726   0.93818
 Alpha virt. eigenvalues --    0.98160   0.99981   1.00802   1.49476   1.51263
 Alpha virt. eigenvalues --    1.69643   2.02750   2.04278   2.04279   2.09870
 Alpha virt. eigenvalues --    2.10011   2.25248   2.28730   2.31914   2.32035
 Alpha virt. eigenvalues --    2.44699   2.48481   2.72887   2.76554   3.57410
 Alpha virt. eigenvalues --    4.02236   4.02739   4.02755   4.07920   4.29630
 Alpha virt. eigenvalues --    4.30851   4.63575   5.10719   5.25111   5.28901
 Alpha virt. eigenvalues --    6.13526   6.43364   6.43367   6.59468   6.59581
 Alpha virt. eigenvalues --    6.96901   6.96997   7.12961   7.16718   7.17879
 Alpha virt. eigenvalues --    7.22973   7.36497   7.68836  12.87551
          Condensed to atoms (all electrons):
               1          2
     1  O    8.034727   0.239394
     2  H    0.239394   0.486485
          Atomic-Atomic Spin Densities.
               1          2
     1  O    0.958027   0.020257
     2  H    0.020257   0.001460
 Mulliken charges and spin densities:
               1          2
     1  O   -0.274121   0.978283
     2  H    0.274121   0.021717
 Sum of Mulliken charges =  -0.00000   1.00000
 Mulliken charges and spin densities with hydrogens summed into heavy atoms:
               1          2
     1  O   -0.000000   1.000000
 Electronic spatial extent (au):  <R**2>=             15.3935
 Charge=             -0.0000 electrons
 Dipole moment (field-independent basis, Debye):
    X=              0.0000    Y=             -0.0000    Z=             -1.7624  Tot=              1.7624
 Quadrupole moment (field-independent basis, Debye-Ang):
   XX=             -5.4473   YY=             -6.7059   ZZ=             -4.5231
   XY=             -0.1391   XZ=             -0.0000   YZ=              0.0000
 Traceless Quadrupole moment (field-independent basis, Debye-Ang):
   XX=              0.1115   YY=             -1.1472   ZZ=              1.0357
   XY=             -0.1391   XZ=             -0.0000   YZ=              0.0000
 Octapole moment (field-independent basis, Debye-Ang**2):
  XXX=              0.0000  YYY=             -0.0000  ZZZ=             -2.0637  XYY=              0.0000
  XXY=             -0.0000  XXZ=             -0.1677  XZZ=              0.0000  YZZ=             -0.0000
  YYZ=             -0.2310  XYZ=             -0.0070
 Hexadecapole moment (field-independent basis, Debye-Ang**3):
 XXXX=             -3.8403 YYYY=             -5.7938 ZZZZ=             -5.3355 XXXY=             -0.1081
 XXXZ=             -0.0000 YYYX=             -0.1078 YYYZ=              0.0000 ZZZX=             -0.0000
 ZZZY=              0.0000 XXYY=             -1.6060 XXZZ=             -1.7820 YYZZ=             -2.1310
 XXYZ=              0.0000 YYXZ=             -0.0000 ZZXY=             -0.0386
 N-N= 4.358200547982D+00 E-N=-1.879864427180D+02  KE= 7.534220670816D+01
                          Isotropic Fermi Contact Couplings
        Atom                 a.u.       MegaHertz       Gauss      10(-4) cm-1
     1  O(17)              0.00000      -0.00000      -0.00000      -0.00000
     2  H(1)              -0.00000      -0.00000      -0.00000      -0.00000
 --------------------------------------------------------
       Center         ----  Spin Dipole Couplings  ----
                      3XX-RR        3YY-RR        3ZZ-RR
 --------------------------------------------------------
     1   Atom        3.737281     -1.841038     -1.896243
     2   Atom       -0.030095     -0.118712      0.148807
 --------------------------------------------------------
                        XY            XZ            YZ
 --------------------------------------------------------
     1   Atom       -0.616536     -0.000000      0.000000
     2   Atom       -0.009794      0.000000     -0.000000
 --------------------------------------------------------


 ---------------------------------------------------------------------------------
              Anisotropic Spin Dipole Couplings in Principal Axis System
 ---------------------------------------------------------------------------------

       Atom             a.u.   MegaHertz   Gauss  10(-4) cm-1        Axes

              Baa    -1.9084   138.088    49.273    46.061  0.1086  0.9941  0.0000
     1 O(17)  Bbb    -1.8962   137.211    48.960    45.769 -0.0000 -0.0000  1.0000
              Bcc     3.8046  -275.299   -98.233   -91.830  0.9941 -0.1086 -0.0000
 
              Baa    -0.1198   -63.910   -22.805   -21.318  0.1086  0.9941 -0.0000
     2 H(1)   Bbb    -0.0290   -15.487    -5.526    -5.166  0.9941 -0.1086 -0.0000
              Bcc     0.1488    79.396    28.331    26.484  0.0000 -0.0000  1.0000
 

 ---------------------------------------------------------------------------------

 No NMR shielding tensors so no spin-rotation constants.
 Leave Link  601 at Fri Oct  2 21:29:43 2020, MaxMem=   327680000 cpu:               1.8 elap:               0.3
 (Enter /applis/site/cecic/gaussian16/B.01/nehalem/g16/l9999.exe)
 1\1\GINC-DAHU75\SP\ROCCSD(T)-FC\Aug-CC-pVTZ\H1O1(2)\TINACCIL\02-Oct-20
 20\0\\#P ROCCSD(T)/aug-cc-pvtz geom=allcheck guess=read\\Title\\0,2\O,
 0,0.,0.,-0.0006841305\H,0,0.,0.,0.9706841305\\Version=ES64L-G16RevB.01
 \HF=-75.4165928\MP2=-75.6267023\MP3=-75.638189\PUHF=-75.4165928\PMP2-0
 =-75.6267023\MP4SDQ=-75.6393589\CCSD=-75.6395961\CCSD(T)=-75.6455507\R
 MSD=1.646e-09\PG=C*V [C*(H1O1)]\\@


 IT WAS A GAME, A VERY INTERESTING GAME ONE COULD
 PLAY.  WHENEVER ONE SOLVED ONE OF THE LITTLE PROBLEMS,
 ONE COULD WRITE A PAPER ABOUT IT.  IT WAS VERY EASY IN
 THOSE DAYS FOR ANY SECOND-RATE PHYSICIST TO DO
 FIRST-RATE WORK.  THERE HAS NOT BEEN SUCH A GLORIOUS
 TIME SINCE.  IT IS VERY DIFFICULT NOW FOR A FIRST-RATE
 PHYSICIST TO DO SECOND-RATE WORK.
     P.A.M. DIRAC, ON THE EARLY DAYS OF QUANTUM MECHANICS
                   DIRECTIONS IN PHYSICS, 1978, P. 7
 Job cpu time:       0 days  0 hours  2 minutes  2.9 seconds.
 Elapsed time:       0 days  0 hours  0 minutes 17.1 seconds.
 File lengths (MBytes):  RWF=    139 Int=      0 D2E=      0 Chk=      2 Scr=      1
 Normal termination of Gaussian 16 at Fri Oct  2 21:29:43 2020.
