$hessian                                                                        
        0.8294273372   0.0050463738  -0.0263982853  -0.7522870668  -0.0050258020
        0.0244786496  -0.0257215193  -0.0006774125  -0.0001882461  -0.0514187512
        0.0006568407   0.0021078818
        0.0050463738   0.0032875286   0.0010607373  -0.0048273536  -0.0054203922
       -0.0008960888   0.0004979385   0.0011814914  -0.0015923856  -0.0007169587
        0.0009513722   0.0014277372
       -0.0263982853   0.0010607373   0.0043705832   0.0239454238  -0.0032846905
       -0.0078850682   0.0003912584   0.0034369511   0.0039409107   0.0020616031
       -0.0012129979  -0.0004264256
       -0.7522870668  -0.0048273536   0.0239454238   1.1609866230   0.0049462138
       -0.0405572780  -0.3829788209   0.0001895240   0.0162744822  -0.0257207353
       -0.0003083842   0.0003373720
       -0.0050258020  -0.0054203922  -0.0032846905   0.0049462138   0.0116554278
        0.0028447969  -0.0009220504  -0.0075959609   0.0043926077   0.0010016385
        0.0013609253  -0.0039527141
        0.0244786496  -0.0008960888  -0.0078850682  -0.0405572780   0.0028447969
        0.0180901289   0.0162323384  -0.0030303445  -0.0134818186  -0.0001537099
        0.0010816365   0.0032767579
       -0.0257215193   0.0004979385   0.0003912584  -0.3829788209  -0.0009220504
        0.0162323384   1.1609565354  -0.0052823940  -0.0410177437  -0.7522561952
        0.0057065058   0.0243941469
       -0.0006774125   0.0011814914   0.0034369511   0.0001895240  -0.0075959609
       -0.0030303445  -0.0052823940   0.0122247332  -0.0040611021   0.0057702825
       -0.0058102637   0.0036544955
       -0.0001882461  -0.0015923856   0.0039409107   0.0162744822   0.0043926077
       -0.0134818186  -0.0410177437  -0.0040611021   0.0160688791   0.0249315076
        0.0012608800  -0.0065279712
       -0.0514187512  -0.0007169587   0.0020616031  -0.0257207353   0.0010016385
       -0.0001537099  -0.7522561952   0.0057702825   0.0249315076   0.8293956817
       -0.0060549623  -0.0268394007
        0.0006568407   0.0009513722  -0.0012129979  -0.0003083842   0.0013609253
        0.0010816365   0.0057065058  -0.0058102637   0.0012608800  -0.0060549623
        0.0034979662  -0.0011295186
        0.0021078818   0.0014277372  -0.0004264256   0.0003373720  -0.0039527141
        0.0032767579   0.0243941469   0.0036544955  -0.0065279712  -0.0268394007
       -0.0011295186   0.0036776389
