      -----------------------------------------------------------      
     |                   =====================                   |     
     |                           x T B                           |     
     |                   =====================                   |     
     |                         S. Grimme                         |     
     |          Mulliken Center for Theoretical Chemistry        |     
     |                    University of Bonn                     |     
      -----------------------------------------------------------      

   * xtb version 6.2.2 (9d81278992624c895f80dd42a50cac0aa55982e2) compiled by '@Darwin' on 04/03/2020

   xtb is free software: you can redistribute it and/or modify it under
   the terms of the GNU Lesser General Public License as published by
   the Free Software Foundation, either version 3 of the License, or
   (at your option) any later version.
   
   xtb is distributed in the hope that it will be useful,
   but WITHOUT ANY WARRANTY; without even the implied warranty of
   MERCHANTABILITY or FITNESS FOR A PARTICULAR PURPOSE.  See the
   GNU Lesser General Public License for more details.
   
   Cite this work as:
   * S. Grimme, C. Bannwarth, P. Shushkov, J. Chem. Theory Comput., 2017,
     13, 1989-2009. DOI: 10.1021/acs.jctc.7b00118
   * C. Bannwarth, S. Ehlert and S. Grimme., J. Chem. Theory Comput., 2019,
     15, 1652-1671. DOI: 10.1021/acs.jctc.8b01176
   * P. Pracht, E. Caldeweyher, S. Ehlert, S. Grimme, ChemRxiv, 2019, preprint.
     DOI: 10.26434/chemrxiv.8326202.v1
   
   for DFT-D4:
   * E. Caldeweyher, C. Bannwarth and S. Grimme, J. Chem. Phys., 2017,
     147, 034112. DOI: 10.1063/1.4993215
   * E. Caldeweyher, S. Ehlert, A. Hansen, H. Neugebauer, S. Spicher,
     C. Bannwarth and S. Grimme, J. Chem. Phys., 2019, 150, 154122.
     DOI: 10.1063/1.5090222
   
   for sTDA-xTB:
   * S. Grimme and C. Bannwarth, J. Chem. Phys., 2016, 145, 054103.
     DOI: 10.1063/1.4959605
   
   in the mass-spec context:
   * V. Asgeirsson, C. Bauer and S. Grimme, Chem. Sci., 2017, 8, 4879.
     DOI: 10.1039/c7sc00601b
   
   for metadynamics refer to:
   * S. Grimme, J. Chem. Theory Comput., 2019, 155, 2847-2862
     DOI: 10.1021/acs.jctc.9b00143
   
   with help from (in alphabetical order)
   C. Bannwarth, F. Bohle, G. Brandenburg, E. Caldeweyher, M. Checinski,
   S. Dohm, S. Ehlert, S. Ehrlich, F. März, H. Neugebauer, J. Pisarek,
   P. Pracht, P. Shushkov, and S. Spicher.
   
 * started run on 2020/05/12 at 14:38:39.730     

           -------------------------------------------------
          |                Calculation Setup                |
           -------------------------------------------------

          program call               : xtb --input C4_1_S_2.input C4_1_S_2.xyz --ohess --molden --namespace C4_1_S_2 output.out
          calculation namespace      : C4_1_S_2
          coordinate file            : C4_1_S_2.xyz
          number of atoms            :                     4
          number of electrons        :                    16
          charge                     :                     0
          spin                       :                   1.0
          first test random number   :      0.99152681205168

   ID    Z sym.   atoms
    1    6 C      1-4

           -------------------------------------------------
          |                 G F N 2 - x T B                 |
           -------------------------------------------------

        Reference                      10.1021/acs.jctc.8b01176
      * Hamiltonian:
        H0-scaling (s, p, d)           1.850000    2.230000    2.230000
        zeta-weighting                 0.500000
      * Dispersion:
        s8                             2.700000
        a1                             0.520000
        a2                             5.000000
        s9                             5.000000
      * Repulsion:
        kExp                           1.500000    1.000000
        rExp                           1.000000
      * Coulomb:
        alpha                          2.000000
        third order                    shell-resolved
        anisotropic                    true
        a3                             3.000000
        a5                             4.000000
        cn-shift                       1.200000
        cn-exp                         4.000000
        max-rad                        5.000000

q/qsh data taken from xtbrestart
CAMM data taken from xtbrestart

          ...................................................
          :                      SETUP                      :
          :.................................................:
          :  # basis functions                  16          :
          :  # atomic orbitals                  16          :
          :  # shells                            8          :
          :  # electrons                        16          :
          :  max. iterations                   250          :
          :  Hamiltonian                  GFN2-xTB          :
          :  restarted?                       true          :
          :  GBSA solvation                  false          :
          :  PC potential                    false          :
          :  electronic temp.          300.0000000     K    :
          :  accuracy                    1.0000000          :
          :  -> integral cutoff          0.2500000E+02      :
          :  -> integral neglect         0.1000000E-07      :
          :  -> SCF convergence          0.1000000E-05 Eh   :
          :  -> wf. convergence          0.1000000E-03 e    :
          :  Broyden damping             0.4000000          :
          ...................................................

 iter      E             dE          RMSdq      gap      omega  full diag
   1     -7.9645894 -0.796459E+01  0.152E+01    1.23       0.0  T
   2     -7.1345087  0.830081E+00  0.131E+01    1.39       1.0  T
   3     -6.3310272  0.803481E+00  0.164E+01    2.28       1.0  T
   4     -7.9654252 -0.163440E+01  0.416E+00    1.19       1.0  T
   5     -8.0373508 -0.719256E-01  0.198E+00    1.09       1.0  T
   6     -8.0393645 -0.201368E-02  0.176E+00    1.08       1.0  T
   7     -8.0448518 -0.548734E-02  0.124E+00    1.07       1.0  T
   8     -8.0486882 -0.383638E-02  0.306E-01    1.04       1.0  T
   9     -8.0492053 -0.517112E-03  0.205E-01    1.04       1.0  T
  10     -8.0492977 -0.924018E-04  0.386E-02    1.05       1.3  T
  11     -8.0492979 -0.158049E-06  0.847E-03    1.05       5.9  T
  12     -8.0492981 -0.254708E-06  0.209E-03    1.05      23.9  T
  13     -8.0492981 -0.195330E-07  0.329E-04    1.05     152.1  T
  14     -8.0492981 -0.845084E-10  0.198E-05    1.05    2524.0  T

   *** convergence criteria satisfied after 14 iterations ***

         #    Occupation            Energy/Eh            Energy/eV
      -------------------------------------------------------------
         1        2.0000           -0.6937290             -18.8773
       ...           ...                  ...                  ...
         3        2.0000           -0.6168366             -16.7850
         4        2.0000           -0.5394753             -14.6799
         5        2.0000           -0.5021868             -13.6652
         6        2.0000           -0.5006656             -13.6238
         7        2.0000           -0.4945799             -13.4582
         8        1.0000           -0.4388946             -11.9429
         9        1.0000           -0.4350460             -11.8382 (HOMO)
        10                         -0.3965720             -10.7913 (LUMO)
        11                         -0.3612146              -9.8292
        12                         -0.3334937              -9.0748
        13                         -0.3148874              -8.5685
        14                          0.0625689               1.7026
       ...                                ...                  ...
        16                          0.0919672               2.5026
      -------------------------------------------------------------
                  HL-Gap            0.0384740 Eh            1.0469 eV
             Fermi-level           -0.4412735 Eh          -12.0077 eV

 transition dipole moment (au) for excitation:           8           9
     X       Y       Z   
  -0.1842  -0.0007   0.1935  total (au/Debye):    0.267   0.679
 dE (eV)             :    0.105
 oscillator strength :  0.25900E-03

 SCC (total)                   0 d,  0 h,  0 min,  0.004 sec
 SCC setup                      ...        0 min,  0.000 sec (  1.898%)
 Dispersion                     ...        0 min,  0.000 sec (  0.386%)
 integral evaluation            ...        0 min,  0.001 sec ( 26.565%)
 zeroth order Hamiltonian       ...        0 min,  0.000 sec (  0.360%)
 iterations                     ...        0 min,  0.001 sec ( 28.969%)
 molecular gradient             ...        0 min,  0.001 sec ( 20.318%)
 printout                       ...        0 min,  0.001 sec ( 21.391%)

         :::::::::::::::::::::::::::::::::::::::::::::::::::::
         ::                     SUMMARY                     ::
         :::::::::::::::::::::::::::::::::::::::::::::::::::::
         :: total energy              -8.005542749698 Eh    ::
         :: gradient norm              0.325698173976 Eh/a0 ::
         :: HOMO-LUMO gap              1.046930451589 eV    ::
         ::.................................................::
         :: SCC energy                -8.049298144414 Eh    ::
         :: -> isotropic ES           -0.030005591923 Eh    ::
         :: -> anisotropic ES         -0.000683079300 Eh    ::
         :: -> anisotropic XC          0.010315896960 Eh    ::
         :: -> dispersion             -0.001975472093 Eh    ::
         :: repulsion energy           0.043755355753 Eh    ::
         :: add. restraining           0.000000000000 Eh    ::
         :::::::::::::::::::::::::::::::::::::::::::::::::::::

      ----------------------------------------------------------- 
     |                   =====================                   |
     |                        A N C O P T                        |
     |                   =====================                   |
     |               Approximate Normal Coordinate               |
     |                Rational Function Optimizer                |
      ----------------------------------------------------------- 

          ...................................................
          :                      SETUP                      :
          :.................................................:
          :   optimization level            normal          :
          :   max. optcycles                   200          :
          :   ANC micro-cycles                  20          :
          :   degrees of freedom                 6          :
          :.................................................:
          :   RF solver                   davidson          :
          :   write xtbopt.log                true          :
          :   linear?                        false          :
          :   energy convergence         0.5000000E-05 Eh   :
          :   grad. convergence          0.1000000E-02 Eh/α :
          :   maximium RF displ.         1.0000000          :
          :   Hlow (freq-cutoff)         0.1000000E-01      :
          :   Hmax (freq-cutoff)         5.0000000          :
          :   S6 in model hess.         20.0000000          :
          ...................................................

generating ANC from model Hessian ...
Using Lindh-Hessian (1995)
 Shifting diagonal of input Hessian by    3.8100594837271540E-003
 Lowest  eigenvalues of input Hessian
   -0.000000   -0.000000   -0.000000   -0.000000    0.000000    0.000000
    0.010000    0.054248    0.091505    0.640308    0.823305    1.007239
 Highest eigenvalues
    0.010000    0.054248    0.091505    0.640308    0.823305    1.007239


........................................................................
.............................. CYCLE    1 ..............................
........................................................................
   1     -8.0492981 -0.804930E+01  0.120E-05    1.05       0.0  T
   2     -8.0492981  0.603961E-13  0.701E-06    1.05    7127.7  T
   3     -8.0492981  0.172840E-11  0.157E-05    1.05    3184.0  T
     SCC iter.                  ...        0 min,  0.001 sec
     gradient                   ...        0 min,  0.001 sec
 * total energy  :    -8.0055427 Eh     change       -0.1181810E-09 Eh
   gradient norm :     0.3256980 Eh/α   predicted     0.0000000E+00 (-100.00%)
   displ. norm   :     0.4162717 α      lambda       -0.1336364E+00
   maximum displ.:     0.4000391 α      in ANC's #4, #6, #2, ...

........................................................................
.............................. CYCLE    2 ..............................
........................................................................
   1     -8.2174383 -0.821744E+01  0.254E+00    2.00       0.0  T
   2     -8.1573427  0.600956E-01  0.367E+00    2.01       1.0  T
   3     -8.2306233 -0.732806E-01  0.122E+00    2.00       1.0  T
   4     -8.2315115 -0.888249E-03  0.246E-01    2.00       1.0  T
   5     -8.2316828 -0.171293E-03  0.108E-01    2.00       1.0  T
   6     -8.2317125 -0.296765E-04  0.981E-03    2.00       5.1  T
   7     -8.2317104  0.214212E-05  0.168E-02    2.00       3.0  T
   8     -8.2317129 -0.252473E-05  0.901E-04    2.00      55.5  T
   9     -8.2317129 -0.575081E-09  0.218E-04    2.00     229.7  T
  10     -8.2317129  0.404761E-10  0.132E-04    2.00     378.6  T
     SCC iter.                  ...        0 min,  0.001 sec
     gradient                   ...        0 min,  0.001 sec
 * total energy  :    -8.1157909 Eh     change       -0.1102481E+00 Eh
   gradient norm :     0.1938071 Eh/α   predicted    -0.7839664E-01 ( -28.89%)
   displ. norm   :     0.4944027 α      lambda       -0.9013128E-01
   maximum displ.:     0.4233466 α      in ANC's #4, #6, #1, ...

........................................................................
.............................. CYCLE    3 ..............................
........................................................................
   1     -8.4402944 -0.844029E+01  0.343E+00    3.67       0.0  T
   2     -8.4349901  0.530424E-02  0.254E+00    3.60       1.0  T
   3     -8.4211852  0.138049E-01  0.238E+00    3.68       1.0  T
   4     -8.4442609 -0.230756E-01  0.343E-01    3.60       1.0  T
   5     -8.4445060 -0.245177E-03  0.738E-02    3.59       1.0  T
   6     -8.4445137 -0.771102E-05  0.780E-03    3.59       6.4  T
   7     -8.4445135  0.227186E-06  0.654E-03    3.59       7.6  T
   8     -8.4445138 -0.249962E-06  0.272E-03    3.59      18.4  T
   9     -8.4445138 -0.185677E-07  0.179E-04    3.59     280.1  T
  10     -8.4445138 -0.325073E-11  0.703E-05    3.59     711.5  T
     SCC iter.                  ...        0 min,  0.001 sec
     gradient                   ...        0 min,  0.001 sec
 * total energy  :    -8.1382151 Eh     change       -0.2242420E-01 Eh
   gradient norm :     0.2236890 Eh/α   predicted    -0.5608120E-01 ( 150.09%)
   displ. norm   :     0.5414115 α      lambda       -0.6198518E-01
   maximum displ.:     0.4031266 α      in ANC's #2, #1, #6, ...

........................................................................
.............................. CYCLE    4 ..............................
........................................................................
   1     -8.3414684 -0.834147E+01  0.183E+00    3.35       0.0  T
   2     -8.3387333  0.273514E-02  0.138E+00    3.38       1.0  T
   3     -8.3344559  0.427733E-02  0.144E+00    3.36       1.0  T
   4     -8.3430177 -0.856175E-02  0.152E-01    3.40       1.0  T
   5     -8.3430148  0.293727E-05  0.481E-02    3.40       1.0  T
   6     -8.3430192 -0.441251E-05  0.987E-03    3.40       5.1  T
   7     -8.3430190  0.176942E-06  0.101E-02    3.40       4.9  T
   8     -8.3430198 -0.787831E-06  0.150E-03    3.40      33.4  T
   9     -8.3430198 -0.114348E-07  0.145E-04    3.40     344.3  T
  10     -8.3430198  0.325304E-10  0.102E-04    3.40     488.3  T
     SCC iter.                  ...        0 min,  0.001 sec
     gradient                   ...        0 min,  0.001 sec
 * total energy  :    -8.1620137 Eh     change       -0.2379864E-01 Eh
   gradient norm :     0.0702174 Eh/α   predicted    -0.4007734E-01 (  68.40%)
   displ. norm   :     0.4849338 α      lambda       -0.8522702E-02
   maximum displ.:     0.4682290 α      in ANC's #1, #4, #6, ...

........................................................................
.............................. CYCLE    5 ..............................
........................................................................
   1     -8.3374618 -0.833746E+01  0.167E+00    3.02       0.0  T
   2     -8.3374893 -0.274695E-04  0.104E+00    3.02       1.0  T
   3     -8.3366012  0.888094E-03  0.408E-01    3.02       1.0  T
   4     -8.3375507 -0.949485E-03  0.862E-02    3.02       1.0  T
   5     -8.3375510 -0.366917E-06  0.117E-02    3.02       4.3  T
   6     -8.3375511 -0.546222E-07  0.712E-03    3.02       7.0  T
   7     -8.3375503  0.808949E-06  0.109E-02    3.02       4.6  T
   8     -8.3375514 -0.108560E-05  0.199E-04    3.02     250.9  T
   9     -8.3375514 -0.365450E-10  0.116E-04    3.02     430.4  T
  10     -8.3375514 -0.564970E-10  0.263E-05    3.02    1900.3  T
     SCC iter.                  ...        0 min,  0.001 sec
     gradient                   ...        0 min,  0.001 sec
 * total energy  :    -8.1639057 Eh     change       -0.1891976E-02 Eh
   gradient norm :     0.1003000 Eh/α   predicted    -0.5263458E-02 ( 178.20%)
   displ. norm   :     0.3069140 α      lambda       -0.1762921E-01
   maximum displ.:     0.2168863 α      in ANC's #2, #4, #6, ...

........................................................................
.............................. CYCLE    6 ..............................
........................................................................
   1     -8.3904331 -0.839043E+01  0.218E+00    4.00       0.0  T
   2     -8.3904636 -0.305414E-04  0.142E+00    3.98       1.0  T
   3     -8.3833260  0.713764E-02  0.117E+00    3.99       1.0  T
   4     -8.3908297 -0.750373E-02  0.212E-01    3.95       1.0  T
   5     -8.3908450 -0.152783E-04  0.451E-02    3.95       1.1  T
   6     -8.3908288  0.162209E-04  0.527E-02    3.95       1.0  T
   7     -8.3908554 -0.266770E-04  0.535E-03    3.95       9.3  T
   8     -8.3908555 -0.469419E-07  0.120E-03    3.95      41.8  T
   9     -8.3908555 -0.178165E-09  0.153E-04    3.95     327.3  T
  10     -8.3908555  0.246008E-10  0.114E-04    3.95     439.8  T
     SCC iter.                  ...        0 min,  0.001 sec
     gradient                   ...        0 min,  0.001 sec
 * total energy  :    -8.1713952 Eh     change       -0.7489491E-02 Eh
   gradient norm :     0.0230363 Eh/α   predicted    -0.9644907E-02 (  28.78%)
   displ. norm   :     0.0924396 α      lambda       -0.1152011E-02
   maximum displ.:     0.0765602 α      in ANC's #1, #4, #2, ...

........................................................................
.............................. CYCLE    7 ..............................
........................................................................
   1     -8.3936905 -0.839369E+01  0.392E-01    3.87       0.0  T
   2     -8.3936480  0.424196E-04  0.273E-01    3.87       1.0  T
   3     -8.3932747  0.373344E-03  0.296E-01    3.88       1.0  T
   4     -8.3937205 -0.445829E-03  0.232E-02    3.87       2.2  T
   5     -8.3936980  0.225424E-04  0.486E-02    3.88       1.0  T
   6     -8.3937206 -0.226108E-04  0.336E-03    3.88      14.9  T
   7     -8.3937207 -0.766533E-07  0.127E-03    3.88      39.5  T
   8     -8.3937207 -0.263542E-08  0.632E-05    3.88     791.6  T
   9     -8.3937207 -0.444267E-11  0.426E-05    3.88    1172.6  T
     SCC iter.                  ...        0 min,  0.001 sec
     gradient                   ...        0 min,  0.001 sec
 * total energy  :    -8.1722386 Eh     change       -0.8434064E-03 Eh
   gradient norm :     0.0066789 Eh/α   predicted    -0.5809262E-03 ( -31.12%)
   displ. norm   :     0.2189188 α      lambda       -0.1000143E-02
   maximum displ.:     0.1846162 α      in ANC's #1, #4, #2, ...

........................................................................
.............................. CYCLE    8 ..............................
........................................................................
   1     -8.3815488 -0.838155E+01  0.935E-01    3.79       0.0  T
   2     -8.3815369  0.119174E-04  0.596E-01    3.79       1.0  T
   3     -8.3804363  0.110065E-02  0.435E-01    3.80       1.0  T
   4     -8.3814328 -0.996532E-03  0.135E-01    3.79       1.0  T
   5     -8.3815483 -0.115491E-03  0.769E-02    3.79       1.0  T
   6     -8.3815876 -0.393538E-04  0.677E-03    3.79       7.4  T
   7     -8.3815877 -0.581337E-07  0.341E-03    3.79      14.7  T
   8     -8.3815877  0.700967E-08  0.229E-03    3.79      21.9  T
   9     -8.3815877 -0.213309E-07  0.382E-04    3.79     130.9  T
  10     -8.3815877 -0.315444E-09  0.500E-05    3.79     999.9  T
     SCC iter.                  ...        0 min,  0.001 sec
     gradient                   ...        0 min,  0.001 sec
 * total energy  :    -8.1725121 Eh     change       -0.2734999E-03 Eh
   gradient norm :     0.0331555 Eh/α   predicted    -0.5240385E-03 (  91.60%)
   displ. norm   :     0.0628617 α      lambda       -0.1018126E-02
   maximum displ.:     0.0384241 α      in ANC's #2, #4, #6, ...

........................................................................
.............................. CYCLE    9 ..............................
........................................................................
   1     -8.3968174 -0.839682E+01  0.247E-01    3.83       0.0  T
   2     -8.3967777  0.397573E-04  0.184E-01    3.83       1.0  T
   3     -8.3967179  0.597592E-04  0.172E-01    3.83       1.0  T
   4     -8.3962884  0.429459E-03  0.241E-01    3.82       1.0  T
   5     -8.3968464 -0.558005E-03  0.179E-02    3.82       2.8  T
   6     -8.3968469 -0.455882E-06  0.524E-03    3.82       9.5  T
   7     -8.3968470 -0.121102E-06  0.212E-03    3.82      23.6  T
   8     -8.3968470 -0.268547E-08  0.163E-03    3.82      30.6  T
   9     -8.3968470 -0.181068E-07  0.394E-04    3.82     126.9  T
  10     -8.3968470 -0.106345E-08  0.120E-05    3.82    4159.3  T
     SCC iter.                  ...        0 min,  0.001 sec
     gradient                   ...        0 min,  0.001 sec
 * total energy  :    -8.1729909 Eh     change       -0.4787739E-03 Eh
   gradient norm :     0.0126971 Eh/α   predicted    -0.5110745E-03 (   6.75%)
   displ. norm   :     0.0887274 α      lambda       -0.3329784E-03
   maximum displ.:     0.0624251 α      in ANC's #1, #4, #6, ...

........................................................................
.............................. CYCLE   10 ..............................
........................................................................
   1     -8.3949965 -0.839500E+01  0.474E-01    3.86       0.0  T
   2     -8.3949780  0.184636E-04  0.269E-01    3.86       1.0  T
   3     -8.3915903  0.338771E-02  0.591E-01    3.85       1.0  T
   4     -8.3949223 -0.333206E-02  0.101E-01    3.86       1.0  T
   5     -8.3949970 -0.746532E-04  0.336E-02    3.86       1.5  T
   6     -8.3949997 -0.265132E-05  0.123E-02    3.86       4.1  T
   7     -8.3950008 -0.109852E-05  0.469E-03    3.86      10.7  T
   8     -8.3950008 -0.730904E-07  0.272E-03    3.86      18.4  T
   9     -8.3950009 -0.474247E-07  0.415E-04    3.86     120.6  T
  10     -8.3950009 -0.902020E-09  0.132E-04    3.86     377.4  T
     SCC iter.                  ...        0 min,  0.001 sec
     gradient                   ...        0 min,  0.001 sec
 * total energy  :    -8.1732485 Eh     change       -0.2575883E-03 Eh
   gradient norm :     0.0092903 Eh/α   predicted    -0.1677996E-03 ( -34.86%)
   displ. norm   :     0.4750670 α      lambda       -0.1454809E-02
   maximum displ.:     0.3305627 α      in ANC's #1, #4, #6, ...

........................................................................
.............................. CYCLE   11 ..............................
........................................................................
   1     -8.3563714 -0.835637E+01  0.254E+00    3.84       0.0  T
   2     -8.3559223  0.449140E-03  0.132E+00    3.86       1.0  T
   3     -8.3122975  0.436247E-01  0.211E+00    3.76       1.0  T
   4     -8.3338717 -0.215742E-01  0.147E+00    3.85       1.0  T
   5     -8.3560870 -0.222153E-01  0.366E-01    3.86       1.0  T
   6     -8.3563962 -0.309243E-03  0.179E-01    3.85       1.0  T
   7     -8.3566415 -0.245312E-03  0.779E-02    3.85       1.0  T
   8     -8.3566799 -0.384164E-04  0.342E-02    3.86       1.5  T
   9     -8.3566892 -0.921478E-05  0.264E-03    3.86      19.0  T
  10     -8.3566892 -0.210828E-07  0.710E-04    3.86      70.5  T
  11     -8.3566892 -0.411033E-09  0.219E-04    3.86     228.5  T
     SCC iter.                  ...        0 min,  0.001 sec
     gradient                   ...        0 min,  0.001 sec
 * total energy  :    -8.1695237 Eh     change        0.3724802E-02 Eh
   gradient norm :     0.0794168 Eh/α   predicted    -0.8915577E-03 (-123.94%)
   displ. norm   :     0.3114782 α      lambda       -0.1022739E-01
   maximum displ.:     0.2294929 α      in ANC's #1, #4, #6, ...

........................................................................
.............................. CYCLE   12 ..............................
........................................................................
   1     -8.3962852 -0.839629E+01  0.141E+00    3.96       0.0  T
   2     -8.3959911  0.294130E-03  0.863E-01    3.95       1.0  T
   3     -8.3880401  0.795102E-02  0.110E+00    3.97       1.0  T
   4     -8.3770113  0.110287E-01  0.136E+00    3.94       1.0  T
   5     -8.3964656 -0.194543E-01  0.168E-01    3.95       1.0  T
   6     -8.3964916 -0.259379E-04  0.995E-02    3.95       1.0  T
   7     -8.3965627 -0.711072E-04  0.412E-02    3.95       1.2  T
   8     -8.3965722 -0.948967E-05  0.963E-03    3.94       5.2  T
   9     -8.3965725 -0.309253E-06  0.180E-03    3.94      27.8  T
  10     -8.3965725  0.100954E-08  0.101E-03    3.94      49.4  T
  11     -8.3965725 -0.953830E-08  0.943E-05    3.94     530.4  T
  12     -8.3965725 -0.113296E-10  0.393E-05    3.94    1272.4  T
     SCC iter.                  ...        0 min,  0.001 sec
     gradient                   ...        0 min,  0.001 sec
 * total energy  :    -8.1735977 Eh     change       -0.4074014E-02 Eh
   gradient norm :     0.0136742 Eh/α   predicted    -0.5609820E-02 (  37.70%)
   displ. norm   :     0.0521164 α      lambda       -0.2212018E-03
   maximum displ.:     0.0374325 α      in ANC's #1, #4, #3, ...

........................................................................
.............................. CYCLE   13 ..............................
........................................................................
   1     -8.3936932 -0.839369E+01  0.280E-01    3.90       0.0  T
   2     -8.3936683  0.249642E-04  0.166E-01    3.90       1.0  T
   3     -8.3899534  0.371489E-02  0.596E-01    3.89       1.0  T
   4     -8.3936862 -0.373280E-02  0.458E-02    3.90       1.1  T
   5     -8.3936884 -0.221670E-05  0.327E-02    3.90       1.5  T
   6     -8.3936954 -0.696238E-05  0.119E-02    3.90       4.2  T
   7     -8.3936962 -0.805341E-06  0.581E-03    3.90       8.6  T
   8     -8.3936963 -0.127080E-06  0.345E-03    3.90      14.5  T
   9     -8.3936964 -0.859633E-07  0.251E-04    3.90     198.9  T
  10     -8.3936964 -0.579892E-10  0.104E-04    3.90     479.2  T
     SCC iter.                  ...        0 min,  0.001 sec
     gradient                   ...        0 min,  0.001 sec
 * total energy  :    -8.1736600 Eh     change       -0.6232313E-04 Eh
   gradient norm :     0.0156703 Eh/α   predicted    -0.1109013E-03 (  77.95%)
   displ. norm   :     0.0584249 α      lambda       -0.3004357E-03
   maximum displ.:     0.0427676 α      in ANC's #4, #1, #2, ...

........................................................................
.............................. CYCLE   14 ..............................
........................................................................
   1     -8.3933600 -0.839336E+01  0.431E-01    3.92       0.0  T
   2     -8.3932887  0.713637E-04  0.220E-01    3.92       1.0  T
   3     -8.3853021  0.798661E-02  0.871E-01    3.91       1.0  T
   4     -8.3933645 -0.806247E-02  0.510E-02    3.92       1.0  T
   5     -8.3933413  0.232166E-04  0.581E-02    3.92       1.0  T
   6     -8.3933638 -0.224466E-04  0.207E-02    3.92       2.4  T
   7     -8.3933664 -0.262579E-05  0.114E-02    3.92       4.4  T
   8     -8.3933669 -0.474284E-06  0.725E-03    3.92       6.9  T
   9     -8.3933673 -0.425570E-06  0.253E-04    3.92     197.6  T
  10     -8.3933673 -0.462030E-11  0.397E-05    3.92    1259.7  T
     SCC iter.                  ...        0 min,  0.001 sec
     gradient                   ...        0 min,  0.001 sec
 * total energy  :    -8.1738462 Eh     change       -0.1862047E-03 Eh
   gradient norm :     0.0114270 Eh/α   predicted    -0.1507305E-03 ( -19.05%)
   displ. norm   :     0.1178301 α      lambda       -0.3044732E-03
   maximum displ.:     0.0908878 α      in ANC's #4, #2, #1, ...

........................................................................
.............................. CYCLE   15 ..............................
........................................................................
   1     -8.3927963 -0.839280E+01  0.671E-01    3.96       0.0  T
   2     -8.3928035 -0.725693E-05  0.336E-01    3.96       1.0  T
   3     -8.3927392  0.643084E-04  0.121E-01    3.96       1.0  T
   4     -8.3904616  0.227764E-02  0.468E-01    3.96       1.0  T
   5     -8.3927894 -0.232781E-02  0.496E-02    3.96       1.0  T
   6     -8.3928059 -0.165504E-04  0.441E-03    3.96      11.3  T
   7     -8.3928060 -0.308910E-07  0.254E-03    3.96      19.7  T
   8     -8.3928060 -0.721867E-08  0.155E-03    3.96      32.3  T
   9     -8.3928060 -0.162404E-07  0.177E-04    3.96     282.5  T
  10     -8.3928060 -0.221506E-09  0.258E-05    3.96    1934.4  T
     SCC iter.                  ...        0 min,  0.001 sec
     gradient                   ...        0 min,  0.001 sec
 * total energy  :    -8.1740181 Eh     change       -0.1718687E-03 Eh
   gradient norm :     0.0095986 Eh/α   predicted    -0.1543504E-03 ( -10.19%)
   displ. norm   :     0.0235175 α      lambda       -0.1169493E-03
   maximum displ.:     0.0223734 α      in ANC's #4, #6, #3, ...

........................................................................
.............................. CYCLE   16 ..............................
........................................................................
   1     -8.3963932 -0.839639E+01  0.952E-02    3.98       0.0  T
   2     -8.3963893  0.392092E-05  0.640E-02    3.97       1.0  T
   3     -8.3962977  0.915894E-04  0.106E-01    3.98       1.0  T
   4     -8.3961515  0.146170E-03  0.152E-01    3.97       1.0  T
   5     -8.3963953 -0.243723E-03  0.101E-02    3.97       5.0  T
   6     -8.3963955 -0.188864E-06  0.582E-03    3.97       8.6  T
   7     -8.3963957 -0.237606E-06  0.277E-03    3.97      18.1  T
   8     -8.3963957 -0.392718E-07  0.125E-03    3.97      39.9  T
   9     -8.3963957 -0.123720E-07  0.184E-04    3.97     272.1  T
  10     -8.3963957 -0.217074E-09  0.844E-06    3.97    5923.3  T
     SCC iter.                  ...        0 min,  0.001 sec
     gradient                   ...        0 min,  0.001 sec
 * total energy  :    -8.1740982 Eh     change       -0.8013003E-04 Eh
   gradient norm :     0.0045288 Eh/α   predicted    -0.5850866E-04 ( -26.98%)
   displ. norm   :     0.0642872 α      lambda       -0.8545133E-04
   maximum displ.:     0.0542105 α      in ANC's #4, #1, #6, ...

........................................................................
.............................. CYCLE   17 ..............................
........................................................................
   1     -8.3966768 -0.839668E+01  0.239E-01    3.95       0.0  T
   2     -8.3966759  0.922230E-06  0.148E-01    3.96       1.0  T
   3     -8.3961929  0.483003E-03  0.214E-01    3.96       1.0  T
   4     -8.3966754 -0.482517E-03  0.186E-02    3.96       2.7  T
   5     -8.3966756 -0.253740E-06  0.162E-02    3.96       3.1  T
   6     -8.3966776 -0.198970E-05  0.487E-03    3.96      10.3  T
   7     -8.3966777 -0.123216E-06  0.286E-03    3.96      17.5  T
   8     -8.3966778 -0.304845E-07  0.836E-04    3.96      59.8  T
   9     -8.3966778 -0.438486E-08  0.414E-04    3.96     120.9  T
     SCC iter.                  ...        0 min,  0.000 sec
     gradient                   ...        0 min,  0.001 sec
 * total energy  :    -8.1741251 Eh     change       -0.2685893E-04 Eh
   gradient norm :     0.0059766 Eh/α   predicted    -0.4290430E-04 (  59.74%)
   displ. norm   :     0.0157630 α      lambda       -0.2053491E-04
   maximum displ.:     0.0109995 α      in ANC's #4, #1, #6, ...

........................................................................
.............................. CYCLE   18 ..............................
........................................................................
   1     -8.3982985 -0.839830E+01  0.597E-02    3.97       0.0  T
   2     -8.3982975  0.949141E-06  0.397E-02    3.97       1.3  T
   3     -8.3982526  0.449624E-04  0.724E-02    3.97       1.0  T
   4     -8.3982172  0.353923E-04  0.881E-02    3.97       1.0  T
   5     -8.3982990 -0.818498E-04  0.386E-03    3.97      12.9  T
   6     -8.3982990 -0.324728E-08  0.294E-03    3.97      17.0  T
   7     -8.3982991 -0.693378E-07  0.569E-04    3.97      87.9  T
   8     -8.3982991 -0.866960E-09  0.336E-04    3.97     148.7  T
     SCC iter.                  ...        0 min,  0.000 sec
     gradient                   ...        0 min,  0.001 sec
 * total energy  :    -8.1741336 Eh     change       -0.8517669E-05 Eh
   gradient norm :     0.0006276 Eh/α   predicted    -0.1026901E-04 (  20.56%)
   displ. norm   :     0.0082107 α      lambda       -0.1537038E-05
   maximum displ.:     0.0053170 α      in ANC's #1, #4, #6, ...

........................................................................
.............................. CYCLE   19 ..............................
........................................................................
   1     -8.3976623 -0.839766E+01  0.295E-02    3.97       0.0  T
   2     -8.3976622  0.581345E-07  0.190E-02    3.97       2.6  T
   3     -8.3976606  0.158443E-05  0.179E-02    3.97       2.8  T
   4     -8.3976623 -0.168097E-05  0.207E-03    3.97      24.1  T
   5     -8.3976622  0.654929E-07  0.316E-03    3.97      15.8  T
   6     -8.3976624 -0.100977E-06  0.177E-04    3.97     281.9  T
   7     -8.3976624 -0.192895E-10  0.111E-04    3.97     450.9  T
     SCC iter.                  ...        0 min,  0.001 sec
     gradient                   ...        0 min,  0.001 sec
 * total energy  :    -8.1741346 Eh     change       -0.9889508E-06 Eh
   gradient norm :     0.0006822 Eh/α   predicted    -0.7679589E-06 ( -22.35%)
   displ. norm   :     0.0044075 α      lambda       -0.7777167E-06
   maximum displ.:     0.0029992 α      in ANC's #1, #2, #6, ...

   *** GEOMETRY OPTIMIZATION CONVERGED AFTER 19 ITERATIONS ***

------------------------------------------------------------------------
 total energy gain   :        -0.1685918 Eh     -105.7930 kcal/mol
 total RMSD          :         1.2704250 a0        0.6723 Å
 total power (kW/mol):       -23.2967232 (step)-8373.4693 (real)
------------------------------------------------------------------------

 ANCopt (total)                0 d,  0 h,  0 min,  0.053 sec
 optimizer setup                ...        0 min,  0.000 sec (  0.151%)
 model hessian                  ...        0 min,  0.000 sec (  0.104%)
 ANC generation                 ...        0 min,  0.000 sec (  0.074%)
 coordinate transformation      ...        0 min,  0.000 sec (  0.117%)
 single point calculation       ...        0 min,  0.051 sec ( 96.120%)
 optimization log               ...        0 min,  0.001 sec (  1.386%)
 hessian update                 ...        0 min,  0.000 sec (  0.069%)
 rational function              ...        0 min,  0.000 sec (  0.822%)

================
 final structure:
================
4
 xtb: 6.2.2 (9d81278992624c895f80dd42a50cac0aa55982e2)
C         1.90622601292902    0.00327922817829   -0.06418881114912
C         0.67007148593117   -0.00382193572192   -0.02579509833818
C        -0.67008668119749   -0.00416893924434    0.02549069085315
C        -1.90621081766270    0.00471164678795    0.06449221863415

 Bond Distances (Angstroems)
 ---------------------------
C1-C2=1.2368         C2-C1=1.2368         C2-C3=1.3411         C3-C2=1.3411         C3-C4=1.2368         C4-C3=1.2368         
 C  C  Rav=1.2716 sigma=0.0492  Rmin=1.2368  Rmax=1.3411     3

 selected bond angles (degree)
 --------------------
C3-C2-C1=179.48                C4-C3-C2=179.43                

 selected dihedral angles (degree)
 ---------------------------------
C4-C3-C2-C1= 94.76            
           -------------------------------------------------
          |                Final Singlepoint                |
           -------------------------------------------------

          ...................................................
          :                      SETUP                      :
          :.................................................:
          :  # basis functions                  16          :
          :  # atomic orbitals                  16          :
          :  # shells                            8          :
          :  # electrons                        16          :
          :  max. iterations                   250          :
          :  Hamiltonian                  GFN2-xTB          :
          :  restarted?                      false          :
          :  GBSA solvation                  false          :
          :  PC potential                    false          :
          :  electronic temp.          300.0000000     K    :
          :  accuracy                    1.0000000          :
          :  -> integral cutoff          0.2500000E+02      :
          :  -> integral neglect         0.1000000E-07      :
          :  -> SCF convergence          0.1000000E-05 Eh   :
          :  -> wf. convergence          0.1000000E-03 e    :
          :  Broyden damping             0.4000000          :
          ...................................................

 iter      E             dE          RMSdq      gap      omega  full diag
   1     -8.3976624 -0.839766E+01  0.646E-05    3.97       0.0  T
   2     -8.3976624  0.149806E-09  0.108E-04    3.97     464.1  T
   3     -8.3976624  0.181540E-09  0.190E-04    3.97     262.9  T

   *** convergence criteria satisfied after 3 iterations ***

         #    Occupation            Energy/Eh            Energy/eV
      -------------------------------------------------------------
         1        2.0000           -0.6764659             -18.4076
       ...           ...                  ...                  ...
         3        2.0000           -0.6127360             -16.6734
         4        2.0000           -0.5160035             -14.0412
         5        2.0000           -0.5160027             -14.0411
         6        2.0000           -0.4618425             -12.5674
         7        1.5006           -0.4451596             -12.1134
         8        1.4994           -0.4451553             -12.1133
         9        1.0000           -0.4291541             -11.6779 (HOMO)
        10                         -0.2834004              -7.7117 (LUMO)
        11                         -0.2833980              -7.7117
        12                         -0.1284153              -3.4944
        13                         -0.1284040              -3.4940
        14                          0.1583694               4.3095
       ...                                ...                  ...
        16                          1.3176696              35.8556
      -------------------------------------------------------------
                  HL-Gap            0.1457537 Eh            3.9662 eV
             Fermi-level           -0.4007173 Eh          -10.9041 eV

 transition dipole moment (au) for excitation:           8           9
     X       Y       Z   
   0.0495  -0.0000  -0.0017  total (au/Debye):    0.050   0.126
 dE (eV)             :    0.435
 oscillator strength :  0.36973E-04

 SCC (total)                   0 d,  0 h,  0 min,  0.003 sec
 SCC setup                      ...        0 min,  0.000 sec (  3.778%)
 Dispersion                     ...        0 min,  0.000 sec (  0.303%)
 integral evaluation            ...        0 min,  0.001 sec ( 32.662%)
 zeroth order Hamiltonian       ...        0 min,  0.000 sec (  0.410%)
 iterations                     ...        0 min,  0.000 sec (  9.756%)
 molecular gradient             ...        0 min,  0.001 sec ( 30.818%)
 printout                       ...        0 min,  0.001 sec ( 21.998%)

         :::::::::::::::::::::::::::::::::::::::::::::::::::::
         ::                     SUMMARY                     ::
         :::::::::::::::::::::::::::::::::::::::::::::::::::::
         :: total energy              -8.174134560787 Eh    ::
         :: gradient norm              0.000688148648 Eh/a0 ::
         :: HOMO-LUMO gap              3.966159648038 eV    ::
         ::.................................................::
         :: SCC energy                -8.397662350171 Eh    ::
         :: -> isotropic ES           -0.007543390840 Eh    ::
         :: -> anisotropic ES          0.000128798165 Eh    ::
         :: -> anisotropic XC          0.012294885791 Eh    ::
         :: -> dispersion             -0.001878309249 Eh    ::
         :: repulsion energy           0.223527902643 Eh    ::
         :: add. restraining           0.000000000000 Eh    ::
         :::::::::::::::::::::::::::::::::::::::::::::::::::::

           ------------------------------------------------- 
          |                Numerical Hessian                |
           ------------------------------------------------- 
step length          :   0.00500
SCC accuracy         :   0.30000
Hessian scale factor :   1.00000
frozen atoms in %    :   0.00000    0
RMS gradient         :   0.00069
estimated CPU  time      0.00 min
estimated wall time      0.00 min

writing file <hessian>.

 projected vibrational frequencies (cm-1)
eigval :       -0.00    -0.00    -0.00     0.00     0.00     0.00
eigval :      137.57   245.34   265.83   954.76  1851.17  2104.79
           -------------------------------------------------
          |                Property Printout                |
           -------------------------------------------------

    * Orbital Energies and Occupations

         #    Occupation            Energy/Eh            Energy/eV
      -------------------------------------------------------------
         1        2.0000           -0.6764658             -18.4076
         2        2.0000           -0.6653664             -18.1055
         3        2.0000           -0.6127359             -16.6734
         4        2.0000           -0.5160035             -14.0412
         5        2.0000           -0.5160026             -14.0411
         6        2.0000           -0.4618426             -12.5674
         7        1.5006           -0.4451596             -12.1134
         8        1.4994           -0.4451553             -12.1133
         9        1.0000           -0.4291541             -11.6779 (HOMO)
        10                         -0.2834004              -7.7117 (LUMO)
        11                         -0.2833981              -7.7117
        12                         -0.1284153              -3.4944
        13                         -0.1284039              -3.4940
        14                          0.1583695               4.3095
        15                          0.8362171              22.7546
        16                          1.3176697              35.8556
      -------------------------------------------------------------
                  HL-Gap            0.1457537 Eh            3.9662 eV
             Fermi-level           -0.4007174 Eh          -10.9041 eV

     #   Z        covCN         q      C6AA      α(0)
     1   6 C      0.982    -0.069    38.079    10.365
     2   6 C      1.963     0.069    29.328     8.746
     3   6 C      1.963     0.069    29.328     8.746
     4   6 C      0.982    -0.069    38.079    10.365

 Mol. C6AA /au·bohr⁶  :        536.887788
 Mol. C8AA /au·bohr⁸  :      15527.727816
 Mol. α(0) /au        :         38.221580


Wiberg/Mayer (AO) data.
largest (>0.10) Wiberg bond orders for each atom
          total WBO             WBO to atom ...
     1  C   2.548        C    2 2.258    C    4 0.247
Molecule has the following symmetry elements: (i) (Cinf) (C2) 2*(sigma) 
It seems to be the Dinfh point group
     2  C   3.640        C    1 2.258    C    3 1.339
     3  C   3.640        C    4 2.258    C    2 1.339
     4  C   2.548        C    3 2.258    C    1 0.247

MOs/occ written to file <molden.input>


molecular dipole:
                 x           y           z       tot (Debye)
 q only:       -0.000      -0.002      -0.000
   full:       -0.000      -0.006      -0.000       0.014
molecular quadrupole (traceless):
                xx          xy          yy          xz          yz          zz
 q only:       -1.571       0.001       0.787       0.078      -0.000       0.784
  q+dip:       -0.091       0.002       0.045      -0.008      -0.000       0.046
   full:       -4.072       0.005       2.039       0.187      -0.000       2.032

           -------------------------------------------------
          |                Geometry Summary                 |
           -------------------------------------------------

      molecular mass/u    :       48.0429436
   center of mass at/Å    :       -0.0000000      -0.0000000      -0.0000003
  moments of inertia/u·Å² :        0.9674172E-03   0.9818710E+02   0.9818768E+02
rotational constants/cm⁻¹ :        0.1742540E+05   0.1716889E+00   0.1716879E+00

 * 2 selected distances

     #   Z        #   Z                                     value/Å
     1   6 C      2   6 C                                 1.2367710 (min)
     3   6 C      4   6 C                                 1.2367711 (max)

 * 1 distinct bonds (by element types)

   Z      Z             #   av. dist./Å        max./Å        min./Å
   6 C    6 C           2     1.2367711     1.2367711     1.2367710

           -------------------------------------------------
          |               Frequency Printout                |
           -------------------------------------------------
 projected vibrational frequencies (cm-1)
eigval :       -0.00    -0.00    -0.00     0.00     0.00     0.00
eigval :      137.57   245.34   265.83   954.76  1851.17  2104.79
 reduced masses (amu)
   1: 12.01   2: 12.01   3: 12.01   4: 12.01   5: 12.01   6: 12.01   7: 12.01   8: 12.01
   9: 12.01  10: 12.01  11: 12.01  12: 12.01
 IR intensities (amu)
   1:  0.06   2:  0.15   3:  0.10   4:  0.02   5:  0.27   6:  0.06   7:  0.37   8:  0.17
   9:  0.00  10:  0.00  11:  2.61  12:  0.02
 Raman intensities (amu)
   1:  0.00   2:  0.00   3:  0.00   4:  0.00   5:  0.00   6:  0.00   7:  0.00   8:  0.00
   9:  0.00  10:  0.00  11:  0.00  12:  0.00
 output can be read by thermo (or use thermo option).
 writing <g98.out> molden fake output.
 recommended (thermochemical) frequency scaling factor: 1.0
           -------------------------------------------------
          |             Thermodynamic Functions             |
           -------------------------------------------------

din symmetry found (for desy threshold:  0.10E+00) used in thermo

          ...................................................
          :                      SETUP                      :
          :.................................................:
          :  # frequencies                           6      :
          :  # imaginary freq.                       0      :
          :  linear?                             false      :
          :  only rotor calc.                    false      :
          :  symmetry                              din      :
          :  rotational number                       1      :
          :  scaling factor                  1.0000000      :
          :  rotor cutoff                   50.0000000 cm⁻¹ :
          :  imag. cutoff                  -20.0000000 cm⁻¹ :
          :.................................................:

    mode    ω/cm⁻¹     T·S(HO)/kcal·mol⁻¹    T·S(FR)/kcal·mol⁻¹   T·S(vib)
   ------------------------------------------------------------------------
       1    137.57    -0.00000 ( 98.28%)     0.00837 (  1.72%)     0.00014
       2    245.34    -0.00000 ( 99.83%)     0.01411 (  0.17%)     0.00002
       3    265.83    -0.00000 ( 99.87%)     0.01491 (  0.13%)     0.00002
   ------------------------------------------------------------------------

   temp. (K)  partition function   enthalpy   heat capacity  entropy
                                   cal/mol     cal/K/mol   cal/K/mol   J/K/mol
 298.15  VIB   4.15                 1046.864      5.881      6.336
         ROT   233.                  888.752      2.981     13.816
         INT   969.                 1935.616      8.861     20.152
         TR   0.322E+27             1481.254      4.968     37.516
         TOT                        3416.8699    13.8296    57.6677   241.2815

   temp. (K)  partition function   enthalpy   heat capacity  entropy
                                   cal/mol     cal/K/mol   cal/K/mol   J/K/mol
 120.00  VIB   1.36                  165.415      3.513      2.003
         ROT   59.6                  357.707      2.981     11.103
         INT   81.2                  523.122      6.494     13.106
         TR   0.823E+26              596.178      4.968     32.997
         TOT                        1119.3002    11.4622    46.1029   192.8946

   temp. (K)  partition function   enthalpy   heat capacity  entropy
                                   cal/mol     cal/K/mol   cal/K/mol   J/K/mol
 100.00  VIB   1.22                  101.201      2.882      1.421
         ROT   45.3                  298.089      2.981     10.560
         INT   55.4                  399.290      5.863     11.981
         TR   0.626E+26              496.815      4.968     32.091
         TOT                         896.1055    10.8310    44.0720   184.3974

   temp. (K)  partition function   enthalpy   heat capacity  entropy
                                   cal/mol     cal/K/mol   cal/K/mol   J/K/mol
  80.00  VIB   1.11                   51.223      2.090      0.868
         ROT   32.4                  238.471      2.981      9.894
         INT   36.1                  289.695      5.071     10.762
         TR   0.448E+26              397.452      4.968     30.983
         TOT                         687.1465    10.0392    41.7455   174.6632

   temp. (K)  partition function   enthalpy   heat capacity  entropy
                                   cal/mol     cal/K/mol   cal/K/mol   J/K/mol
  60.00  VIB   1.04                   18.339      1.192      0.401
         ROT   21.1                  178.853      2.981      9.037
         INT   22.0                  197.193      4.173      9.438
         TR   0.291E+26              298.089      4.968     29.555
         TOT                         495.2819     9.1408    38.9923   163.1437

   temp. (K)  partition function   enthalpy   heat capacity  entropy
                                   cal/mol     cal/K/mol   cal/K/mol   J/K/mol
  40.00  VIB   1.01                    2.968      0.386      0.096
         ROT   11.5                  119.236      2.981      7.828
         INT   11.5                  122.203      3.367      7.925
         TR   0.158E+26              198.726      4.968     27.541
         TOT                         320.9294     8.3348    35.4657   148.3887

   temp. (K)  partition function   enthalpy   heat capacity  entropy
                                   cal/mol     cal/K/mol   cal/K/mol   J/K/mol
  20.00  VIB   1.00                    0.020      0.010     -0.004
         ROT   4.05                   59.618      2.981      5.762
         INT   4.05                   59.638      2.991      5.758
         TR   0.560E+25               99.363      4.968     24.099
         TOT                         159.0006     7.9589    29.8575   124.9236

   temp. (K)  partition function   enthalpy   heat capacity  entropy
                                   cal/mol     cal/K/mol   cal/K/mol   J/K/mol
  10.00  VIB   1.00                    0.000      0.000     -0.019
         ROT   1.43                   29.809      2.981      3.696
         INT   1.43                   29.809      2.981      3.677
         TR   0.198E+25               49.681      4.968     20.657
         TOT                          79.4904     7.9490    24.3343   101.8149

       T/K    H(0)-H(T)+PV         H(T)/Eh          T*S/Eh         G(T)/Eh
   ------------------------------------------------------------------------
    298.15    0.544513E-02    0.181105E-01    0.273998E-01   -0.928926E-02
    120.00    0.178372E-02    0.144491E-01    0.881636E-02    0.563274E-02
    100.00    0.142803E-02    0.140934E-01    0.702332E-02    0.707009E-02
     80.00    0.109504E-02    0.137604E-01    0.532206E-02    0.843836E-02
     60.00    0.789282E-03    0.134547E-01    0.372829E-02    0.972638E-02
     40.00    0.511434E-03    0.131768E-01    0.226073E-02    0.109161E-01
     20.00    0.253384E-03    0.129188E-01    0.951618E-03    0.119671E-01
     10.00    0.126676E-03    0.127921E-01    0.387792E-03    0.124043E-01 (used)
   ------------------------------------------------------------------------

         :::::::::::::::::::::::::::::::::::::::::::::::::::::
         ::                  THERMODYNAMIC                  ::
         :::::::::::::::::::::::::::::::::::::::::::::::::::::
         :: total free energy          -8.161730294263 Eh   ::
         ::.................................................::
         :: total energy               -8.174134561039 Eh   ::
         :: zero point energy           0.012665383248 Eh   ::
         :: G(RRHO) w/o ZPVE           -0.000261116472 Eh   ::
         :: G(RRHO) contrib.            0.012404266776 Eh   ::
         :::::::::::::::::::::::::::::::::::::::::::::::::::::

optimized geometry written to: xtbopt.xyz


           -------------------------------------------------
          | TOTAL ENERGY               -8.174134561039 Eh   |
          | TOTAL ENTHALPY             -8.161342501774 Eh   |
          | TOTAL FREE ENERGY          -8.161730294263 Eh   |
          | GRADIENT NORM               0.000688215380 Eh/α |
          | HOMO-LUMO GAP               3.966160443425 eV   |
           -------------------------------------------------

------------------------------------------------------------------------
 * finished run on 2020/05/12 at 14:38:39.860     
------------------------------------------------------------------------
 total:
 * wall-time:     0 d,  0 h,  0 min,  0.129 sec
 *  cpu-time:     0 d,  0 h,  0 min,  0.125 sec
 * ratio c/w:     0.975 speedup
 SCF:
 * wall-time:     0 d,  0 h,  0 min,  0.004 sec
 *  cpu-time:     0 d,  0 h,  0 min,  0.004 sec
 * ratio c/w:     0.997 speedup
 ANC optimizer:
 * wall-time:     0 d,  0 h,  0 min,  0.057 sec
 *  cpu-time:     0 d,  0 h,  0 min,  0.056 sec
 * ratio c/w:     0.997 speedup
 numerical hessian:
 * wall-time:     0 d,  0 h,  0 min,  0.054 sec
 *  cpu-time:     0 d,  0 h,  0 min,  0.051 sec
 * ratio c/w:     0.954 speedup

