 Entering Gaussian System
 *********************************************
 Gaussian 98:
 frequency output generated by the xtb code
 *********************************************
                         Standard orientation:
 --------------------------------------------------------------------
  Center     Atomic     Atomic              Coordinates (Angstroms)
  Number     Number      Type              X           Y           Z
 --------------------------------------------------------------------
    1          6             0        1.906226    0.003269   -0.064195
    2          6             0        0.670071   -0.003825   -0.025797
    3          6             0       -0.670087   -0.004165    0.025493
    4          6             0       -1.906211    0.004722    0.064499
 --------------------------------------------------------------------
     1 basis functions        1 primitive gaussians
     1 alpha electrons        1 beta electrons

 Harmonic frequencies (cm**-1), IR intensities (KM/Mole),
 Raman scattering activities (A**4/amu), Raman depolarization ratios,
 reduced masses (AMU), force constants (mDyne/A) and normal coordinates:
                      1                      2                      3
                        a                      a                      a 
 Frequencies --   137.5664               245.3365               265.8301
 Red. masses --    12.0107                12.0107                12.0107
 Frc consts  --     0.0000                 0.0000                 0.0000
 IR Inten    --     0.3714                 0.1682                 0.0044
 Raman Activ --     0.0000                 0.0000                 0.0000
 Depolar     --     0.0000                 0.0000                 0.0000
 Atom AN      X      Y      Z        X      Y      Z        X      Y      Z
   1   6     0.01  -0.50  -0.02     0.01   0.20   0.26     0.00  -0.03   0.23
   2   6     0.00   0.50   0.02    -0.01  -0.58  -0.31    -0.03   0.09  -0.66
   3   6     0.00   0.50   0.02    -0.00   0.60  -0.14     0.03  -0.09   0.66
   4   6    -0.01  -0.50  -0.02     0.00  -0.22   0.20    -0.00   0.03  -0.23
                      4                      5                      6
                        a                      a                      a 
 Frequencies --   954.7644              1851.1709              2104.7923
 Red. masses --    12.0107                12.0107                12.0107
 Frc consts  --     0.0000                 0.0000                 0.0000
 IR Inten    --     0.0022                 2.6052                 0.0188
 Raman Activ --     0.0000                 0.0000                 0.0000
 Depolar     --     0.0000                 0.0000                 0.0000
 Atom AN      X      Y      Z        X      Y      Z        X      Y      Z
   1   6     0.59   0.00  -0.02    -0.50  -0.00   0.02     0.38   0.00  -0.01
   2   6     0.38  -0.00  -0.02     0.50   0.00  -0.02    -0.59  -0.00   0.02
   3   6    -0.38  -0.00   0.02     0.50  -0.00  -0.02     0.59  -0.00  -0.02
   4   6    -0.59   0.00   0.02    -0.50   0.00   0.02    -0.38   0.00   0.01
