[Molden Format]
[Title]
[Atoms] AU
C      1     6  0.36022443708172E+01  0.61777695676936E-02 -0.12131184710396E+00
C      2     6  0.12662512668519E+01 -0.72291262637159E-02 -0.48750074139951E-01
C      3     6 -0.12662800628152E+01 -0.78714383710124E-02  0.48174853872023E-01
C      4     6 -0.36022155748604E+01  0.89227950637093E-02  0.12188517764593E+00
[GTO]
           1 0
 s           4   1.0000000000000000     
   51.049363095579913      -0.16312063210127389     
   8.7911227406887544      -0.19911024581000730     
  0.70640422258929825       0.31882047753655751     
  0.26922813413411617       0.12706504184240380     
 p           4   1.0000000000000000     
   5.8263656140800002       0.73716451545209605     
   1.5106896018720002       0.68216371614850257     
  0.53256483288000001       0.35783053929253711     
  0.21202323690600003        5.3983030275847881E-002

           2 0
 s           4   1.0000000000000000     
   51.049363095579913      -0.16312063210127389     
   8.7911227406887544      -0.19911024581000730     
  0.70640422258929825       0.31882047753655751     
  0.26922813413411617       0.12706504184240380     
 p           4   1.0000000000000000     
   5.8263656140800002       0.73716451545209605     
   1.5106896018720002       0.68216371614850257     
  0.53256483288000001       0.35783053929253711     
  0.21202323690600003        5.3983030275847881E-002

           3 0
 s           4   1.0000000000000000     
   51.049363095579913      -0.16312063210127389     
   8.7911227406887544      -0.19911024581000730     
  0.70640422258929825       0.31882047753655751     
  0.26922813413411617       0.12706504184240380     
 p           4   1.0000000000000000     
   5.8263656140800002       0.73716451545209605     
   1.5106896018720002       0.68216371614850257     
  0.53256483288000001       0.35783053929253711     
  0.21202323690600003        5.3983030275847881E-002

           4 0
 s           4   1.0000000000000000     
   51.049363095579913      -0.16312063210127389     
   8.7911227406887544      -0.19911024581000730     
  0.70640422258929825       0.31882047753655751     
  0.26922813413411617       0.12706504184240380     
 p           4   1.0000000000000000     
   5.8263656140800002       0.73716451545209605     
   1.5106896018720002       0.68216371614850257     
  0.53256483288000001       0.35783053929253711     
  0.21202323690600003        5.3983030275847881E-002

[MO]
Sym=     1a
Ene=  -0.67646582647077180     
Spin= Alpha
Occup=     2.00000000
           1 -0.26567882740913890     
           2  0.13698318168529405     
           3   6.0157088089070386E-004
           4  -4.4768279603693865E-003
           5 -0.46108755472652369     
           6   3.3425712633360354E-002
           7  -8.0600948826317924E-004
           8  -2.0633115862130629E-003
           9 -0.46108531644033512     
          10  -3.3430032330434692E-002
          11  -1.0334715933834732E-003
          12   1.9933834703455772E-003
          13 -0.26567745738016019     
          14 -0.13697990536721488     
          15   7.4017363207793654E-004
          16   4.5278244969742896E-003
Sym=     2a
Ene=  -0.66536641134373842     
Spin= Alpha
Occup=     2.00000000
           1  0.37871547706758601     
           2 -0.13479085389384082     
           3  -8.4625452134996586E-004
           4   4.2466390232395257E-003
           5  0.29781335821191024     
           6  0.21378773039099477     
           7   7.0386758207143158E-004
           8  -6.7386950384432038E-003
           9 -0.29781601518613138     
          10  0.21378215346261673     
          11  -9.9211890538864118E-004
          12  -6.8031080185757100E-003
          13 -0.37871485126402238     
          14 -0.13478727214497566     
          15   1.0242229025376338E-003
          16   4.3177669894574914E-003
Sym=     3a
Ene=  -0.61273591520453019     
Spin= Alpha
Occup=     2.00000000
           1 -0.37285061770187106     
           2   1.4879892869868558E-002
           3   3.1602371466355324E-004
           4  -3.1774342085629223E-006
           5  0.16826727393600896     
           6 -0.39239509026558689     
           7  -1.5436174548697176E-003
           8   1.3920012915197793E-002
           9  0.16826518338082985     
          10  0.39239182559795699     
          11  -1.6361832627854686E-003
          12  -1.4041052935556016E-002
          13 -0.37285272112196421     
          14  -1.4878605598244183E-002
          15   4.6343363416595149E-004
          16   3.2816391657116223E-005
Sym=     4a
Ene=  -0.51600348490060566     
Spin= Alpha
Occup=     2.00000000
           1  -1.7922792014227713E-004
           2   6.1104915404941576E-005
           3  0.30924824164517140     
           4   4.2701226252360815E-002
           5  -1.6667608154140980E-003
           6   3.8992254389348614E-004
           7  0.50632773284277799     
           8   6.9902879984249419E-002
           9  -1.6807898296275624E-003
          10   4.7074801220700060E-003
          11  0.50632527951181772     
          12   6.9750804924127885E-002
          13  -1.7115712912530755E-004
          14   3.0509869312776044E-003
          15  0.30924538221663667     
          16   4.2593731741742427E-002
Sym=     5a
Ene=  -0.51600263315051831     
Spin= Alpha
Occup=     2.00000000
           1   1.5479798188512924E-003
           2   1.1054389704401226E-002
           3  -4.2672533606875139E-002
           4  0.30904810697880997     
           5  -2.5093274632429835E-003
           6   1.7764538584906241E-002
           7  -6.9870657357746849E-002
           8  0.50601864830444065     
           9   2.8420799381597786E-003
          10   1.7335314519067838E-002
          11  -6.9873585835717136E-002
          12  0.50603194385226102     
          13  -1.5131594794382738E-003
          14   1.0757099948686649E-002
          15  -4.2678087628014200E-002
          16  0.30905592049413388     
Sym=     6a
Ene=  -0.46184256345087721     
Spin= Alpha
Occup=     1.99999998
           1  0.48811464822350359     
           2  0.45484151069465284     
           3   8.7301059847414673E-003
           4  -1.5795115635938529E-002
           5 -0.22897436326717785     
           6  -3.7948790160323792E-002
           7   5.4703295796021886E-003
           8  -2.5851451195408730E-004
           9  0.22897851357302371     
          10  -3.7963986200740922E-002
          11  -4.9525792203447948E-003
          12  -6.5508704008539437E-004
          13 -0.48811733788844064     
          14  0.45481129572132689     
          15  -8.8583967931567011E-003
          16  -1.6464160924017004E-002
Sym=     7a
Ene=  -0.44515959039802050     
Spin= Alpha
Occup=     1.50056318
           1   7.5656758674264545E-003
           2   2.5105386550949332E-002
           3  -5.1177165990107847E-002
           4  0.53050444407404618     
           5  -2.2063217059056228E-003
           6   9.5933297699770017E-003
           7  -3.6783024610770307E-002
           8  0.38106651221482646     
           9  -1.9864557339780218E-003
          10  -9.4963694927058303E-003
          11   3.6733068581898121E-002
          12 -0.38107777640407453     
          13   6.9101697836170305E-003
          14  -2.3972343743165654E-002
          15   5.1248423377695515E-002
          16 -0.53054024115764675     
Sym=     8a
Ene=  -0.44515530996110414     
Spin= Alpha
Occup=     1.49943680
           1   5.9526113248840849E-003
           2   8.1016853983401377E-003
           3 -0.53102911374466044     
           4  -5.1533284144038287E-002
           5  -1.9820454554200298E-003
           6  -6.9426169307830162E-004
           7 -0.38117715107439704     
           8  -3.6785350778445712E-002
           9   1.7992936036113670E-003
          10   2.3652310081336962E-003
          11  0.38118370127911461     
          12   3.6688765817580848E-002
          13  -5.3205797288521850E-003
          14   1.1381733738235417E-002
          15  0.53102624890110595     
          16   5.0861712554289985E-002
Sym=     9a
Ene=  -0.42915412512980289     
Spin= Alpha
Occup=     1.00000005
           1 -0.41538560684524950     
           2 -0.50949178810238904     
           3  -4.2551878903289864E-003
           4   2.5031131535330237E-002
           5   1.9715284923245171E-002
           6  0.24395857962863324     
           7   6.4388497997344631E-004
           8  -2.5579491190275204E-003
           9   1.9720574533793500E-002
          10 -0.24395197677155570     
          11   2.4101140277210187E-003
          12   2.6739440805212361E-003
          13 -0.41540202475243132     
          14  0.50951026351508455     
          15  -2.4051696045252740E-003
          16  -2.5285482970451176E-002
Sym=    10a
Ene=  -0.28340041078790046     
Spin= Alpha
Occup=     0.00000000
           1  -6.5124726402232265E-004
           2  -2.2366819905645673E-002
           3   9.1619132378671669E-002
           4 -0.65224121436995952     
           5  -3.0059429691228325E-003
           6   1.6170302378195299E-002
           7  -5.8642924140087468E-002
           8  0.41749142994172161     
           9   3.1294955694626809E-003
          10   1.5721939140966361E-002
          11  -5.8685487515984777E-002
          12  0.41750392777260342     
          13   7.1384758566195002E-004
          14  -2.1414095644317496E-002
          15   9.1650087458464050E-002
          16 -0.65227542527778459     
Sym=    11a
Ene=  -0.28339805946599744     
Spin= Alpha
Occup=     0.00000000
           1   3.0735364510100366E-004
           2  -1.3394537193247528E-003
           3  0.65261013163306858     
           4   9.1745551475675771E-002
           5   6.0613301377805890E-004
           6   6.3768487992814414E-005
           7 -0.41780951120226290     
           8  -5.8709313776783879E-002
           9   6.0764140178111144E-004
          10  -4.3393540646643860E-003
          11 -0.41780745291988836     
          12  -5.8544555867801350E-002
          13   3.0758145970845768E-004
          14   8.0193945933594579E-003
          15  0.65261073300790207     
          16   9.1405642122475012E-002
Sym=    12a
Ene=  -0.12841528641151279     
Spin= Alpha
Occup=     0.00000000
           1  -6.1261993339057762E-004
           2   9.8812238373431247E-004
           3  0.50621566722160094     
           4  -5.9934133855114296E-003
           5   6.5098797382045154E-003
           6   1.9494959295483086E-004
           7 -0.73392961246930344     
           8   8.6349904737965024E-003
           9  -7.2557940673720319E-003
          10   2.1288673868116847E-004
          11  0.73391320793297776     
          12  -8.5597995475278216E-003
          13   6.6716992992076659E-004
          14   1.0942680032436408E-003
          15 -0.50620636909236039     
          16   5.8625515313251554E-003
Sym=    13a
Ene=  -0.12840391247694022     
Spin= Alpha
Occup=     0.00000000
           1  -2.1058882362421337E-004
           2   1.7432453968087912E-002
           3   5.9170356724627714E-003
           4  0.50590990505384903     
           5   2.7870918294304807E-003
           6  -2.4626518148003450E-002
           7  -8.5775630761321473E-003
           8 -0.73353480050905862     
           9   2.1014379866401965E-003
          10   2.4646872710381768E-002
          11   8.6059985351959641E-003
          12  0.73354037457856802     
          13  -1.4683327285998471E-004
          14  -1.7328758366160223E-002
          15  -5.9341946341927194E-003
          16 -0.50591821086384459     
Sym=    14a
Ene=   0.15836948190348893     
Spin= Alpha
Occup=     0.00000000
           1 -0.22715264596952028     
           2  0.47927516861566788     
           3  -8.8922017648203702E-004
           4  -1.7355289199048010E-002
           5  0.94803898950570709     
           6 -0.31728871533428810     
           7   6.8182481601354889E-003
           8   1.5695987930815222E-002
           9 -0.94802681345743212     
          10 -0.31732261689531749     
          11  -7.8990178320004784E-003
          12   1.5136347433022432E-002
          13  0.22714763770167998     
          14  0.47927279512124016     
          15   8.4554220599814315E-004
          16  -1.7289087966233605E-002
Sym=    15a
Ene=   0.83621713578332701     
Spin= Alpha
Occup=     0.00000000
           1 -0.64491662957438489     
           2  0.72863647924685149     
           3   4.5265775302813817E-003
           4  -2.3123622709501034E-002
           5  0.75588962270398008     
           6  0.68634124600540503     
           7   2.9420338864586905E-003
           8  -1.9419258723323621E-002
           9  0.75590034016226815     
          10 -0.68634099279904670     
          11   4.4792869154846619E-003
          12   1.9701946370330268E-002
          13 -0.64492954943185232     
          14 -0.72863234942888888     
          15   5.4424350508138495E-003
          16   2.3503205055046945E-002
Sym=    16a
Ene=    1.3176696661795242     
Spin= Alpha
Occup=     0.00000000
           1  0.66974314791170542     
           2 -0.63132765036583460     
           3  -4.2286440927958293E-003
           4   1.8224378411012383E-002
           5   3.5308661101553313E-002
           6  -1.2630850798281594     
           7  -4.6899264025661623E-003
           8   4.4849833837332452E-002
           9  -3.5322839816336035E-002
          10  -1.2630575107136237     
          11   4.9786048118162073E-003
          12   4.5217290575963243E-002
          13 -0.66973067633734618     
          14 -0.63129438216889666     
          15   5.5251174636031606E-003
          16   1.8594850258115480E-002
