4
 energy: -8.174134560787 gnorm: 0.000688148648 xtb: 6.2.2 (9d81278992624c895f80dd42a50cac0aa55982e2)
C         1.90622580599945    0.00326913517274   -0.06419547085601
C         0.67007137586421   -0.00382548922843   -0.02579743065818
C        -0.67008661403319   -0.00416538618943    0.02549303717290
C        -1.90621056783396    0.00472174024336    0.06449886434129
