4
 energy: -8.005542749816 gnorm: 0.325698023222 xtb: 6.2.2 (9d81278992624c895f80dd42a50cac0aa55982e2)
C         1.54674500000000    0.56096900000000   -0.18161700000000
C         0.67431000000000   -0.56253100000000    0.34625900000000
C        -0.67478400000000   -0.55932700000000   -0.35049900000000
C        -1.54627100000000    0.56088900000000    0.18585600000000
4
 energy: -8.115790885067 gnorm: 0.193824517091 xtb: 6.2.2 (9d81278992624c895f80dd42a50cac0aa55982e2)
C         1.51632985934899    0.48251271221871   -0.14186792448179
C         0.65249625665013   -0.48384560858299    0.25173777146957
C        -0.65290418817266   -0.48137665156469   -0.25538579206743
C        -1.51592192782646    0.48270954792897    0.14551494507964
4
 energy: -8.138215081851 gnorm: 0.224231114675 xtb: 6.2.2 (9d81278992624c895f80dd42a50cac0aa55982e2)
C         1.51825188394462    0.37538296962180   -0.09993970362925
C         0.65235241296815   -0.37650765926916    0.15445432819952
C        -0.65267026104384   -0.37477598073256   -0.15729336532546
C        -1.51793403586893    0.37590067037991    0.10277774075518
4
 energy: -8.162013721284 gnorm: 0.070414263651 xtb: 6.2.2 (9d81278992624c895f80dd42a50cac0aa55982e2)
C         1.71206776143595    0.35138415130462   -0.09961515981224
C         0.66809453855901   -0.35242781468349    0.10892214424587
C        -0.66838993992026   -0.35102645148265   -0.11158024058255
C        -1.71177236007470    0.35207011486152    0.10227225614892
4
 energy: -8.163905697413 gnorm: 0.101119969806 xtb: 6.2.2 (9d81278992624c895f80dd42a50cac0aa55982e2)
C         1.81330230664417    0.25003034821696   -0.12888717805896
C         0.64429388231073   -0.25109466407639    0.13563895054806
C        -0.64450777357682   -0.24951775100153   -0.13753127564167
C        -1.81308841537809    0.25058206686096    0.13077850315256
4
 energy: -8.171395188154 gnorm: 0.023306513152 xtb: 6.2.2 (9d81278992624c895f80dd42a50cac0aa55982e2)
C         1.82870388122895    0.21852762620269   -0.08433691090165
C         0.68372657969129   -0.21945715874340    0.04950792846670
C        -0.68391575147444   -0.21849952742838   -0.05116355225803
C        -1.82851470944580    0.21942905996907    0.08599153469298
4
 energy: -8.172238594552 gnorm: 0.006696635336 xtb: 6.2.2 (9d81278992624c895f80dd42a50cac0aa55982e2)
C         1.83647708593428    0.19623468218909   -0.08904344234213
C         0.67325237520182   -0.19717649537180    0.05263811632831
C        -0.67339215075718   -0.19617531429192   -0.05411756210569
C        -1.83633731037891    0.19711712747461    0.09052188811951
4
 energy: -8.172512094405 gnorm: 0.033581215340 xtb: 6.2.2 (9d81278992624c895f80dd42a50cac0aa55982e2)
C         1.87668160150777    0.14633948265119   -0.09116068639381
C         0.66768186780321   -0.14705800261162    0.04357592738937
C        -0.66808284560011   -0.14643487648942   -0.04475801699848
C        -1.87628062371086    0.14715339644984    0.09234177600292
4
 energy: -8.172990868338 gnorm: 0.012884569830 xtb: 6.2.2 (9d81278992624c895f80dd42a50cac0aa55982e2)
C         1.86589763292023    0.13193320819293   -0.09289726213288
C         0.66425469340253   -0.13322128379378    0.04815280535874
C        -0.66377822395843   -0.13167794953432   -0.04898962208173
C        -1.86637410236432    0.13296602513515    0.09373307885588
4
 energy: -8.173248456673 gnorm: 0.009722452301 xtb: 6.2.2 (9d81278992624c895f80dd42a50cac0aa55982e2)
C         1.88086489482849    0.11190530779169   -0.08995010476140
C         0.66625066576859   -0.11098978624620    0.04017271703256
C        -0.66911364341634   -0.11295652318983   -0.04177597249833
C        -1.87800191718074    0.11204100164433    0.09155236022717
4
 energy: -8.169523654467 gnorm: 0.082420079903 xtb: 6.2.2 (9d81278992624c895f80dd42a50cac0aa55982e2)
C         1.93822481944263   -0.00105292464068   -0.07963038524196
C         0.69492160380660   -0.01345005237765    0.00148800663936
C        -0.67412776356640    0.00890269177586    0.00434462896788
C        -1.95901865968284    0.00560028524246    0.07379674963473
4
 energy: -8.173597668892 gnorm: 0.013997830240 xtb: 6.2.2 (9d81278992624c895f80dd42a50cac0aa55982e2)
C         1.89754157170291    0.07158530846660   -0.08214289794568
C         0.67339429840200   -0.07087027823564    0.02100499965818
C        -0.67532222807386   -0.07330845494932   -0.02254069937690
C        -1.89561364203106    0.07259342471834    0.08367759766440
4
 energy: -8.173659992026 gnorm: 0.016667809487 xtb: 6.2.2 (9d81278992624c895f80dd42a50cac0aa55982e2)
C         1.90241841446426    0.05915309205663   -0.08248538481578
C         0.66661111477148   -0.05620246035927    0.01885041211369
C        -0.67186968548900   -0.06225249262152   -0.02126493277210
C        -1.89715984374674    0.05930186092415    0.08489890547419
4
 energy: -8.173846196726 gnorm: 0.011722398643 xtb: 6.2.2 (9d81278992624c895f80dd42a50cac0aa55982e2)
C         1.90332649943156    0.04624619886039   -0.07918288274268
C         0.67070853617834   -0.04765197216661    0.00923078177141
C        -0.66941958437175   -0.04666249465065   -0.00961140884468
C        -1.90461545123815    0.04806826795685    0.07956250981594
4
 energy: -8.174018065409 gnorm: 0.009849310324 xtb: 6.2.2 (9d81278992624c895f80dd42a50cac0aa55982e2)
C         1.91003527361412    0.02128354587031   -0.06914636805773
C         0.67433838045617   -0.02290034600330   -0.01408812705550
C        -0.67254965669899   -0.02179012309619    0.01395084722639
C        -1.91182399737131    0.02340692322917    0.06928264788685
4
 energy: -8.174098195439 gnorm: 0.004643396917 xtb: 6.2.2 (9d81278992624c895f80dd42a50cac0aa55982e2)
C         1.90740967330404    0.01701100095648   -0.06689823516228
C         0.67265953665072   -0.01785948595340   -0.01875053559476
C        -0.67207153927526   -0.01792127181017    0.01835578931935
C        -1.90799767067949    0.01876975680707    0.06729198143769
4
 energy: -8.174125054373 gnorm: 0.006155195887 xtb: 6.2.2 (9d81278992624c895f80dd42a50cac0aa55982e2)
C         1.90701270221130    0.00145772106705   -0.06397632703033
C         0.66886080786672   -0.00154346095946   -0.02673206584751
C        -0.66946357905819   -0.00275002333059    0.02618594856502
C        -1.90640993101983    0.00283576322298    0.06452144431282
4
 energy: -8.174133572042 gnorm: 0.000627960930 xtb: 6.2.2 (9d81278992624c895f80dd42a50cac0aa55982e2)
C         1.90545306955564    0.00531245816993   -0.06445400388155
C         0.66977406871702   -0.00586842672634   -0.02513029582056
C        -0.66977963625167   -0.00618194449228    0.02482016064449
C        -1.90544750202099    0.00673791304868    0.06476313905763
4
 energy: -8.174134560993 gnorm: 0.000688130934 xtb: 6.2.2 (9d81278992624c895f80dd42a50cac0aa55982e2)
C         1.90622601292902    0.00327922817829   -0.06418881114912
C         0.67007148593117   -0.00382193572192   -0.02579509833818
C        -0.67008668119749   -0.00416893924434    0.02549069085315
C        -1.90621081766270    0.00471164678795    0.06449221863415
