$hessian                                                                        
        0.1426019452  -0.0593880953   0.0171224971   0.0216423770  -0.0116151241
        0.0240009587  -0.0445451666  -0.1554119895   0.0011040426   0.0145755481
        0.1703019044   0.0764855564  -0.1342747037   0.0561133046  -0.1187130548
       -0.0593880953  -0.0431405551  -0.0503770856  -0.0021853037  -0.0103446195
        0.0295135216   0.0641690185   0.0561532056  -0.0338587211  -0.0492807622
        0.0219743550   0.0183327263   0.0466851428  -0.0246423860   0.0363895587
        0.0171224971  -0.0503770856   0.1819611073  -0.0272815814   0.0432107124
       -0.2015390666   0.0741523152   0.0892097506   0.0379355790   0.0033441323
       -0.1047787219   0.0129629800  -0.0673373632   0.0227353445  -0.0313205998
        0.0216423770  -0.0021853037  -0.0272815814   0.1787646169  -0.0614961388
        0.1848015354  -0.1079964693  -0.0247295254  -0.0885685380  -0.0579722277
        0.0801808173  -0.0443363894  -0.0344382968   0.0082301506  -0.0246150265
       -0.0116151241  -0.0103446195   0.0432107124  -0.0614961388   0.1117863792
       -0.1097673675   0.0041165100   0.0098760494  -0.0122387941   0.0607945720
       -0.0858152171   0.0641736141   0.0082001810  -0.0255025921   0.0146218351
        0.0240009587   0.0295135216  -0.2015390666   0.1848015354  -0.1097673675
        0.4049686704  -0.1203665742  -0.0449493337  -0.0923149918  -0.0638232995
        0.1105847878  -0.0465141052  -0.0246126205   0.0146183918  -0.0646005068
       -0.0445451666   0.0641690185   0.0741523152  -0.1079964693   0.0041165100
       -0.1203665742   0.0794109393   0.0660075006   0.0942435931   0.0625986975
       -0.1442452663  -0.0552060445   0.0105319992   0.0099522373   0.0071767104
       -0.1554119895   0.0561532056   0.0892097506  -0.0247295254   0.0098760494
       -0.0449493337   0.0660075006   0.0740509950  -0.0816783775   0.0752320801
       -0.0668464730  -0.0809064410   0.0389019342  -0.0732337770   0.1183244015
        0.0011040426  -0.0338587211   0.0379355790  -0.0885685380  -0.0122387941
       -0.0923149918   0.0942435931  -0.0816783775   0.1283009989   0.0178396481
        0.0420404791   0.0537792665  -0.0246187457   0.0857354136  -0.1277008527
        0.0145755481  -0.0492807622   0.0033441323  -0.0579722277   0.0607945720
       -0.0638232995   0.0625986975   0.0752320801   0.0178396481   0.0013981272
       -0.0739699961   0.0912855414  -0.0206001450  -0.0127758937  -0.0486460223
        0.1703019044   0.0219743550  -0.1047787219   0.0801808173  -0.0858152171
        0.1105847878  -0.1442452663  -0.0668464730   0.0420404791  -0.0739699961
        0.1191015817   0.0117006343  -0.0322674593   0.0115857533  -0.0595471792
        0.0764855564   0.0183327263   0.0129629800  -0.0443363894   0.0641736141
       -0.0465141052  -0.0552060445  -0.0809064410   0.0537792665   0.0912855414
        0.0117006343   0.1610863448  -0.0682286638  -0.0133005338  -0.1813144860
       -0.1342747037   0.0466851428  -0.0673373632  -0.0344382968   0.0082001810
       -0.0246126205   0.0105319992   0.0389019342  -0.0246187457  -0.0206001450
       -0.0322674593  -0.0682286638   0.1787811464  -0.0615197987   0.1847973932
        0.0561133046  -0.0246423860   0.0227353445   0.0082301506  -0.0255025921
        0.0146183918   0.0099522373  -0.0732337770   0.0857354136  -0.0127758937
        0.0115857533  -0.0133005338  -0.0615197987   0.1117930017  -0.1097886161
       -0.1187130548   0.0363895587  -0.0313205998  -0.0246150265   0.0146218351
       -0.0646005068   0.0071767104   0.1183244015  -0.1277008527  -0.0486460223
       -0.0595471792  -0.1813144860   0.1847973932  -0.1097886161   0.4049364453
