5
 energy: -10.110014682365 gnorm: 0.085117545576 xtb: 6.2.2 (9d81278992624c895f80dd42a50cac0aa55982e2)
C         1.01546600000000   -0.15699200000000   -0.62133900000000
C         0.43291300000000   -0.25718500000000    0.77250100000000
C        -0.77170800000000   -0.91085000000000    0.12922400000000
C        -0.24375800000000    1.06784200000000    0.49211500000000
C        -0.43291300000000    0.25718500000000   -0.77250100000000
5
 energy: -10.121929421027 gnorm: 0.137573617195 xtb: 6.2.2 (9d81278992624c895f80dd42a50cac0aa55982e2)
C         0.98574486657448   -0.15240660740472   -0.60315671364197
C         0.43555277527014   -0.25874877129196    0.77721853143261
C        -0.74911671621489   -0.88419953090384    0.12543620178300
C        -0.23662399552802    1.03659472849619    0.47771391872523
C        -0.43555693010171    0.25876018110434   -0.77721193829887
5
 energy: -10.157135280972 gnorm: 0.089118368543 xtb: 6.2.2 (9d81278992624c895f80dd42a50cac0aa55982e2)
C         0.92569714597198   -0.14312302477587   -0.56641482263184
C         0.47145494107038   -0.28007757667151    0.84128316362662
C        -0.70348323965797   -0.83033807816965    0.11779489236125
C        -0.22220970689842    0.97344975713408    0.44861358346025
C        -0.47145914048597    0.28008892248296   -0.84127681681628
5
 energy: -10.178223257044 gnorm: 0.008491191166 xtb: 6.2.2 (9d81278992624c895f80dd42a50cac0aa55982e2)
C         0.83152727812098   -0.12855930316201   -0.50879269207498
C         0.51602689248450   -0.30655914976586    0.92081435123900
C        -0.63192078905340   -0.74586476766090    0.10581420281652
C        -0.19960466983583    0.87441872141530    0.40297555772569
C        -0.51602871171624    0.30656449917347   -0.92081141970623
5
 energy: -10.178264974365 gnorm: 0.002845965710 xtb: 6.2.2 (9d81278992624c895f80dd42a50cac0aa55982e2)
C         0.83185762635507   -0.12861481796062   -0.50899621954430
C         0.51441098104993   -0.30559778036390    0.91793230514488
C        -0.63216998763764   -0.74616496478429    0.10585393275977
C        -0.19968495547325    0.87477115639545    0.40313789161378
C        -0.51441366429411    0.30560640671336   -0.91792790997412
5
 energy: -10.178269488276 gnorm: 0.000299125015 xtb: 6.2.2 (9d81278992624c895f80dd42a50cac0aa55982e2)
C         0.83124117122754   -0.12853489347162   -0.50862377014572
C         0.51395965503061   -0.30532470471809    0.91713179621582
C        -0.63169491888397   -0.74562460984370    0.10576790849613
C        -0.19954060190295    0.87413922494769    0.40284690263761
C        -0.51396530547123    0.30534498308572   -0.91712283720384
