      -----------------------------------------------------------      
     |                   =====================                   |     
     |                           x T B                           |     
     |                   =====================                   |     
     |                         S. Grimme                         |     
     |          Mulliken Center for Theoretical Chemistry        |     
     |                    University of Bonn                     |     
      -----------------------------------------------------------      

   * xtb version 6.2.2 (9d81278992624c895f80dd42a50cac0aa55982e2) compiled by '@Darwin' on 04/03/2020

   xtb is free software: you can redistribute it and/or modify it under
   the terms of the GNU Lesser General Public License as published by
   the Free Software Foundation, either version 3 of the License, or
   (at your option) any later version.
   
   xtb is distributed in the hope that it will be useful,
   but WITHOUT ANY WARRANTY; without even the implied warranty of
   MERCHANTABILITY or FITNESS FOR A PARTICULAR PURPOSE.  See the
   GNU Lesser General Public License for more details.
   
   Cite this work as:
   * S. Grimme, C. Bannwarth, P. Shushkov, J. Chem. Theory Comput., 2017,
     13, 1989-2009. DOI: 10.1021/acs.jctc.7b00118
   * C. Bannwarth, S. Ehlert and S. Grimme., J. Chem. Theory Comput., 2019,
     15, 1652-1671. DOI: 10.1021/acs.jctc.8b01176
   * P. Pracht, E. Caldeweyher, S. Ehlert, S. Grimme, ChemRxiv, 2019, preprint.
     DOI: 10.26434/chemrxiv.8326202.v1
   
   for DFT-D4:
   * E. Caldeweyher, C. Bannwarth and S. Grimme, J. Chem. Phys., 2017,
     147, 034112. DOI: 10.1063/1.4993215
   * E. Caldeweyher, S. Ehlert, A. Hansen, H. Neugebauer, S. Spicher,
     C. Bannwarth and S. Grimme, J. Chem. Phys., 2019, 150, 154122.
     DOI: 10.1063/1.5090222
   
   for sTDA-xTB:
   * S. Grimme and C. Bannwarth, J. Chem. Phys., 2016, 145, 054103.
     DOI: 10.1063/1.4959605
   
   in the mass-spec context:
   * V. Asgeirsson, C. Bauer and S. Grimme, Chem. Sci., 2017, 8, 4879.
     DOI: 10.1039/c7sc00601b
   
   for metadynamics refer to:
   * S. Grimme, J. Chem. Theory Comput., 2019, 155, 2847-2862
     DOI: 10.1021/acs.jctc.9b00143
   
   with help from (in alphabetical order)
   C. Bannwarth, F. Bohle, G. Brandenburg, E. Caldeweyher, M. Checinski,
   S. Dohm, S. Ehlert, S. Ehrlich, F. März, H. Neugebauer, J. Pisarek,
   P. Pracht, P. Shushkov, and S. Spicher.
   
 * started run on 2020/05/12 at 11:44:36.698     

           -------------------------------------------------
          |                Calculation Setup                |
           -------------------------------------------------

          program call               : xtb --input C5_12_S_2.input C5_12_S_2.xyz --ohess --molden --namespace C5_12_S_2 output.out
          calculation namespace      : C5_12_S_2
          coordinate file            : C5_12_S_2.xyz
          number of atoms            :                     5
          number of electrons        :                    20
          charge                     :                     0
          spin                       :                   1.0
          first test random number   :      0.62568031844054

   ID    Z sym.   atoms
    1    6 C      1-5

           -------------------------------------------------
          |                 G F N 2 - x T B                 |
           -------------------------------------------------

        Reference                      10.1021/acs.jctc.8b01176
      * Hamiltonian:
        H0-scaling (s, p, d)           1.850000    2.230000    2.230000
        zeta-weighting                 0.500000
      * Dispersion:
        s8                             2.700000
        a1                             0.520000
        a2                             5.000000
        s9                             5.000000
      * Repulsion:
        kExp                           1.500000    1.000000
        rExp                           1.000000
      * Coulomb:
        alpha                          2.000000
        third order                    shell-resolved
        anisotropic                    true
        a3                             3.000000
        a5                             4.000000
        cn-shift                       1.200000
        cn-exp                         4.000000
        max-rad                        5.000000


          ...................................................
          :                      SETUP                      :
          :.................................................:
          :  # basis functions                  20          :
          :  # atomic orbitals                  20          :
          :  # shells                           10          :
          :  # electrons                        20          :
          :  max. iterations                   250          :
          :  Hamiltonian                  GFN2-xTB          :
          :  restarted?                      false          :
          :  GBSA solvation                  false          :
          :  PC potential                    false          :
          :  electronic temp.          300.0000000     K    :
          :  accuracy                    1.0000000          :
          :  -> integral cutoff          0.2500000E+02      :
          :  -> integral neglect         0.1000000E-07      :
          :  -> SCF convergence          0.1000000E-05 Eh   :
          :  -> wf. convergence          0.1000000E-03 e    :
          :  Broyden damping             0.4000000          :
          ...................................................

 iter      E             dE          RMSdq      gap      omega  full diag
   1    -10.1441564 -0.101442E+02  0.952E+00    0.06       0.0  T
   2     -9.9892878  0.154869E+00  0.783E+00    0.00       1.0  T
   3    -10.0162703 -0.269826E-01  0.703E+00    0.52       1.0  T
   4    -10.1521866 -0.135916E+00  0.326E+00    0.00       1.0  T
   5    -10.1836967 -0.315101E-01  0.207E+00    0.00       1.0  T
   6    -10.1651807  0.185160E-01  0.263E+00    0.00       1.0  T
   7    -10.1591806  0.600011E-02  0.317E+00    0.07       1.0  T
   8    -10.1482764  0.109042E-01  0.351E+00    0.08       1.0  T
   9    -10.1482384  0.379850E-04  0.351E+00    0.08       1.0  T
  10    -10.1493776 -0.113914E-02  0.347E+00    0.08       1.0  T
  11    -10.1953949 -0.460174E-01  0.124E+00    0.00       1.0  T
  12    -10.2007912 -0.539627E-02  0.512E-01    0.01       1.0  T
  13    -10.2018918 -0.110064E-02  0.126E-01    0.00       1.0  T
  14    -10.2019477 -0.558769E-04  0.724E-02    0.00       1.0  T
  15    -10.2019212  0.264867E-04  0.104E-01    0.00       1.0  T
  16    -10.2019632 -0.419472E-04  0.411E-02    0.00       1.1  T
  17    -10.2019690 -0.584149E-05  0.190E-02    0.00       2.4  T
  18    -10.2019694 -0.353572E-06  0.172E-02    0.00       2.6  T
  19    -10.2019697 -0.338873E-06  0.149E-02    0.00       3.0  T
  20    -10.2019707 -0.955062E-06  0.331E-04    0.00     135.0  T
  21    -10.2019707 -0.326050E-09  0.258E-04    0.00     173.4  T

   *** convergence criteria satisfied after 21 iterations ***

         #    Occupation            Energy/Eh            Energy/eV
      -------------------------------------------------------------
         1        2.0000           -0.7592060             -20.6590
       ...           ...                  ...                  ...
         5        2.0000           -0.5269035             -14.3378
         6        2.0000           -0.5269033             -14.3378
         7        2.0000           -0.5058779             -13.7656
         8        1.7773           -0.4788077             -13.0290
         9        1.7772           -0.4788075             -13.0290
        10        1.4455           -0.4774122             -12.9910
        11        0.3492           -0.3583587              -9.7514 (HOMO)
        12        0.3492           -0.3583586              -9.7514 (LUMO)
        13        0.3016           -0.3581524              -9.7458
        14                         -0.3341842              -9.0936
        15                         -0.0551693              -1.5012
        16                         -0.0551693              -1.5012
       ...                                ...                  ...
        20                          0.3275581               8.9133
      -------------------------------------------------------------
                  HL-Gap            0.0000002 Eh            0.0000 eV
             Fermi-level           -0.4182852 Eh          -11.3821 eV

 transition dipole moment (au) for excitation:          10          11
     X       Y       Z   
  -0.0851   0.4023   0.1818  total (au/Debye):    0.450   1.143
 dE (eV)             :    3.240
 oscillator strength :  0.22692E-01

 SCC (total)                   0 d,  0 h,  0 min,  0.007 sec
 SCC setup                      ...        0 min,  0.000 sec (  1.320%)
 Dispersion                     ...        0 min,  0.000 sec (  0.285%)
 integral evaluation            ...        0 min,  0.001 sec ( 19.942%)
 zeroth order Hamiltonian       ...        0 min,  0.000 sec (  0.289%)
 iterations                     ...        0 min,  0.003 sec ( 35.981%)
 molecular gradient             ...        0 min,  0.002 sec ( 25.105%)
 printout                       ...        0 min,  0.001 sec ( 16.884%)

         :::::::::::::::::::::::::::::::::::::::::::::::::::::
         ::                     SUMMARY                     ::
         :::::::::::::::::::::::::::::::::::::::::::::::::::::
         :: total energy             -10.110014680448 Eh    ::
         :: gradient norm              0.085117329767 Eh/a0 ::
         :: HOMO-LUMO gap              0.000004295725 eV    ::
         ::.................................................::
         :: SCC energy               -10.201970653599 Eh    ::
         :: -> isotropic ES           -0.017087556959 Eh    ::
         :: -> anisotropic ES          0.000975440417 Eh    ::
         :: -> anisotropic XC          0.005010354918 Eh    ::
         :: -> dispersion             -0.002528393294 Eh    ::
         :: repulsion energy           0.091955945098 Eh    ::
         :: add. restraining           0.000000000000 Eh    ::
         :::::::::::::::::::::::::::::::::::::::::::::::::::::

      ----------------------------------------------------------- 
     |                   =====================                   |
     |                        A N C O P T                        |
     |                   =====================                   |
     |               Approximate Normal Coordinate               |
     |                Rational Function Optimizer                |
      ----------------------------------------------------------- 

          ...................................................
          :                      SETUP                      :
          :.................................................:
          :   optimization level            normal          :
          :   max. optcycles                   200          :
          :   ANC micro-cycles                  20          :
          :   degrees of freedom                 9          :
          :.................................................:
          :   RF solver                   davidson          :
          :   write xtbopt.log                true          :
          :   linear?                        false          :
          :   energy convergence         0.5000000E-05 Eh   :
          :   grad. convergence          0.1000000E-02 Eh/α :
          :   maximium RF displ.         1.0000000          :
          :   Hlow (freq-cutoff)         0.1000000E-01      :
          :   Hmax (freq-cutoff)         5.0000000          :
          :   S6 in model hess.         20.0000000          :
          ...................................................

generating ANC from model Hessian ...
Using Lindh-Hessian (1995)
 Shifting diagonal of input Hessian by    0.0000000000000000     
 Lowest  eigenvalues of input Hessian
   -0.000000   -0.000000    0.000000    0.000000    0.000000    0.000000
    0.143981    0.143981    0.401266    0.735285    0.735286    0.889223
    0.981792    0.981793    1.192241
 Highest eigenvalues
    0.735285    0.735286    0.889223    0.981792    0.981793    1.192241


........................................................................
.............................. CYCLE    1 ..............................
........................................................................
   1    -10.2019707 -0.102020E+02  0.508E-04    0.00       0.0  T
   2    -10.2019705  0.139502E-06  0.526E-03    0.00       8.5  T
   3    -10.2019707 -0.138352E-06  0.687E-04    0.00      65.1  T
   4    -10.2019707 -0.818812E-10  0.547E-04    0.00      81.8  T
     SCC iter.                  ...        0 min,  0.001 sec
     gradient                   ...        0 min,  0.001 sec
 * total energy  :   -10.1100147 Eh     change       -0.1917060E-08 Eh
   gradient norm :     0.0851175 Eh/α   predicted     0.0000000E+00 (-100.00%)
   displ. norm   :     0.1159981 α      lambda       -0.8609663E-02
   maximum displ.:     0.0976894 α      in ANC's #3, #9, #2, ...

........................................................................
.............................. CYCLE    2 ..............................
........................................................................
   1    -10.2109970 -0.102110E+02  0.230E+00    0.32       0.0  T
   2    -10.0528862  0.158111E+00  0.544E+00    0.00       1.0  T
   3    -10.2265577 -0.173672E+00  0.104E+00    0.27       1.0  T
   4    -10.2287244 -0.216672E-02  0.532E-01    0.26       1.0  T
   5    -10.2297935 -0.106902E-02  0.111E-01    0.23       1.0  T
   6    -10.2297981 -0.468766E-05  0.106E-01    0.23       1.0  T
   7    -10.2297883  0.981060E-05  0.924E-02    0.23       1.0  T
   8    -10.2298286 -0.402552E-04  0.113E-02    0.24       4.0  T
   9    -10.2298286 -0.474781E-08  0.418E-03    0.24      10.7  T
  10    -10.2298286  0.307803E-07  0.338E-03    0.24      13.2  T
  11    -10.2298287 -0.916251E-07  0.491E-04    0.24      91.1  T
  12    -10.2298287 -0.253468E-09  0.320E-04    0.24     139.8  T
     SCC iter.                  ...        0 min,  0.001 sec
     gradient                   ...        0 min,  0.001 sec
 * total energy  :   -10.1219294 Eh     change       -0.1191474E-01 Eh
   gradient norm :     0.1375736 Eh/α   predicted    -0.4362755E-02 ( -63.38%)
   displ. norm   :     0.3094883 α      lambda       -0.4254549E-01
   maximum displ.:     0.3094150 α      in ANC's #3, #9, #2, ...

........................................................................
.............................. CYCLE    3 ..............................
........................................................................
   1    -10.2657400 -0.102657E+02  0.161E+00    1.70       0.0  T
   2    -10.2470746  0.186654E-01  0.204E+00    1.43       1.0  T
   3    -10.2628556 -0.157810E-01  0.127E+00    1.71       1.0  T
   4    -10.2686129 -0.575733E-02  0.372E-01    1.61       1.0  T
   5    -10.2687096 -0.967121E-04  0.310E-01    1.61       1.0  T
   6    -10.2680270  0.682626E-03  0.380E-01    1.61       1.0  T
   7    -10.2689634 -0.936401E-03  0.820E-02    1.63       1.0  T
   8    -10.2689787 -0.153324E-04  0.413E-02    1.62       1.1  T
   9    -10.2689800 -0.129600E-05  0.342E-02    1.62       1.3  T
  10    -10.2689843 -0.425809E-05  0.174E-03    1.62      25.7  T
  11    -10.2689843 -0.131029E-08  0.192E-03    1.62      23.3  T
  12    -10.2689843 -0.129783E-07  0.356E-04    1.62     125.5  T
  13    -10.2689843 -0.346462E-09  0.205E-04    1.62     217.6  T
     SCC iter.                  ...        0 min,  0.001 sec
     gradient                   ...        0 min,  0.001 sec
 * total energy  :   -10.1571353 Eh     change       -0.3520586E-01 Eh
   gradient norm :     0.0891184 Eh/α   predicted    -0.2331032E-01 ( -33.79%)
   displ. norm   :     0.4440981 α      lambda       -0.3911951E-01
   maximum displ.:     0.4422434 α      in ANC's #3, #9, #2, ...

........................................................................
.............................. CYCLE    4 ..............................
........................................................................
   1    -10.3063817 -0.103064E+02  0.235E+00    3.46       0.0  T
   2    -10.3066170 -0.235274E-03  0.143E+00    3.49       1.0  T
   3    -10.3054860  0.113105E-02  0.680E-01    3.43       1.0  T
   4    -10.3064501 -0.964103E-03  0.414E-01    3.46       1.0  T
   5    -10.3046533  0.179673E-02  0.664E-01    3.46       1.0  T
   6    -10.3068695 -0.221614E-02  0.681E-02    3.49       1.0  T
   7    -10.3068757 -0.622923E-05  0.246E-02    3.49       1.8  T
   8    -10.3068606  0.150493E-04  0.530E-02    3.49       1.0  T
   9    -10.3068758 -0.151286E-04  0.127E-02    3.49       3.5  T
  10    -10.3068758 -0.713621E-07  0.581E-03    3.49       7.7  T
  11    -10.3068759 -0.744086E-07  0.451E-03    3.49       9.9  T
  12    -10.3068760 -0.935292E-07  0.176E-03    3.49      25.4  T
  13    -10.3068760 -0.141330E-07  0.604E-04    3.49      74.1  T
  14    -10.3068760 -0.156171E-08  0.221E-05    3.49    2025.6  T
     SCC iter.                  ...        0 min,  0.001 sec
     gradient                   ...        0 min,  0.001 sec
 * total energy  :   -10.1782233 Eh     change       -0.2108798E-01 Eh
   gradient norm :     0.0084912 Eh/α   predicted    -0.2341739E-01 (  11.05%)
   displ. norm   :     0.0092860 α      lambda       -0.6478632E-04
   maximum displ.:     0.0069064 α      in ANC's #3, #9, #2, ...

........................................................................
.............................. CYCLE    5 ..............................
........................................................................
   1    -10.3086329 -0.103086E+02  0.504E-02    3.47       0.0  T
   2    -10.3086325  0.423705E-06  0.363E-02    3.47       1.2  T
   3    -10.3086285  0.397892E-05  0.406E-02    3.47       1.1  T
   4    -10.3085278  0.100779E-03  0.135E-01    3.47       1.0  T
   5    -10.3086362 -0.108491E-03  0.170E-03    3.47      26.2  T
   6    -10.3086362  0.149635E-07  0.182E-03    3.47      24.6  T
   7    -10.3086360  0.197462E-06  0.593E-03    3.47       7.5  T
   8    -10.3086362 -0.213136E-06  0.238E-04    3.47     188.1  T
   9    -10.3086362 -0.636309E-10  0.136E-04    3.47     329.1  T
     SCC iter.                  ...        0 min,  0.001 sec
     gradient                   ...        0 min,  0.001 sec
 * total energy  :   -10.1782650 Eh     change       -0.4171732E-04 Eh
   gradient norm :     0.0028460 Eh/α   predicted    -0.3239530E-04 ( -22.35%)
   displ. norm   :     0.0034802 α      lambda       -0.9858527E-05
   maximum displ.:     0.0034764 α      in ANC's #9, #3, #2, ...

........................................................................
.............................. CYCLE    6 ..............................
........................................................................
   1    -10.3096791 -0.103097E+02  0.172E-02    3.48       0.0  T
   2    -10.3096775  0.159890E-05  0.201E-02    3.48       2.2  T
   3    -10.3096595  0.180603E-04  0.580E-02    3.48       1.0  T
   4    -10.3096790 -0.194757E-04  0.870E-03    3.48       5.1  T
   5    -10.3096793 -0.298307E-06  0.232E-03    3.48      19.3  T
   6    -10.3096793 -0.719918E-08  0.724E-04    3.48      61.8  T
   7    -10.3096793  0.501626E-08  0.115E-03    3.48      39.0  T
   8    -10.3096793 -0.746262E-08  0.271E-04    3.48     164.9  T
     SCC iter.                  ...        0 min,  0.001 sec
     gradient                   ...        0 min,  0.001 sec
 * total energy  :   -10.1782695 Eh     change       -0.4513911E-05 Eh
   gradient norm :     0.0002991 Eh/α   predicted    -0.4931478E-05 (   9.25%)
   displ. norm   :     0.0013129 α      lambda       -0.2131268E-06
   maximum displ.:     0.0012458 α      in ANC's #3, #9, #2, ...

   *** GEOMETRY OPTIMIZATION CONVERGED AFTER 6 ITERATIONS ***

------------------------------------------------------------------------
 total energy gain   :        -0.0682548 Eh      -42.8305 kcal/mol
 total RMSD          :         0.3797924 a0        0.2010 Å
 total power (kW/mol):       -29.8671622 (step)-7293.2887 (real)
------------------------------------------------------------------------

 ANCopt (total)                0 d,  0 h,  0 min,  0.025 sec
 optimizer setup                ...        0 min,  0.000 sec (  0.268%)
 model hessian                  ...        0 min,  0.000 sec (  0.411%)
 ANC generation                 ...        0 min,  0.000 sec (  0.309%)
 coordinate transformation      ...        0 min,  0.000 sec (  0.054%)
 single point calculation       ...        0 min,  0.024 sec ( 97.051%)
 optimization log               ...        0 min,  0.000 sec (  0.512%)
 hessian update                 ...        0 min,  0.000 sec (  0.064%)
 rational function              ...        0 min,  0.000 sec (  0.586%)

================
 final structure:
================
5
 xtb: 6.2.2 (9d81278992624c895f80dd42a50cac0aa55982e2)
C         0.83124117122754   -0.12853489347162   -0.50862377014572
C         0.51395965503061   -0.30532470471809    0.91713179621582
C        -0.63169491888397   -0.74562460984370    0.10576790849613
C        -0.19954060190295    0.87413922494769    0.40284690263761
C        -0.51396530547123    0.30534498308572   -0.91712283720384

 Bond Distances (Angstroems)
 ---------------------------
C1-C2=1.4713         C1-C3=1.7025         C1-C4=1.7025         C1-C5=1.4713         C2-C1=1.4713         C2-C3=1.4713         
C2-C4=1.4713         C3-C1=1.7025         C3-C2=1.4713         C3-C4=1.7025         C3-C5=1.4713         C4-C1=1.7025         
C4-C2=1.4713         C4-C3=1.7025         C4-C5=1.4713         C5-C1=1.4713         C5-C3=1.4713         C5-C4=1.4713         
 C  C  Rav=1.5484 sigma=0.1090  Rmin=1.4713  Rmax=1.7025     9

 selected bond angles (degree)
 --------------------
C3-C1-C2= 54.65                C4-C1-C2= 54.65                C4-C1-C3= 60.00                C5-C1-C2= 96.16                
C5-C1-C3= 54.65                C5-C1-C4= 54.65                C3-C2-C1= 70.70                C4-C2-C1= 70.70                
C4-C2-C3= 70.70                C2-C3-C1= 54.65                C4-C3-C1= 60.00                C4-C3-C2= 54.65                
C5-C3-C1= 54.65                C5-C3-C2= 96.16                C5-C3-C4= 54.65                C2-C4-C1= 54.65                
C3-C4-C1= 60.00                C3-C4-C2= 54.65                C5-C4-C1= 54.65                C5-C4-C2= 96.16                
C5-C4-C3= 54.65                C3-C5-C1= 70.70                C4-C5-C1= 70.70                C4-C5-C3= 70.70                

 selected dihedral angles (degree)
 ---------------------------------
C3-C2-C1-C4= 75.62            C3-C2-C1-C5= 37.81            C4-C2-C1-C3=284.38            C4-C2-C1-C5=322.19            
C2-C3-C1-C4=294.18            C2-C3-C1-C5=228.36            C4-C3-C1-C2= 65.82            C4-C3-C1-C5=294.18            
C5-C3-C1-C2=131.64            C5-C3-C1-C4= 65.82            C1-C3-C2-C4= 75.62            C4-C3-C2-C1=284.38            
C5-C3-C2-C1=322.19            C5-C3-C2-C4= 37.81            C2-C4-C1-C3= 65.82            C2-C4-C1-C5=131.65            
C3-C4-C1-C2=294.18            C3-C4-C1-C5= 65.82            C5-C4-C1-C2=228.35            C5-C4-C1-C3=294.18            
C1-C4-C2-C3=284.38            C3-C4-C2-C1= 75.62            C5-C4-C2-C1= 37.81            C5-C4-C2-C3=322.19            
C1-C4-C3-C2= 65.82            C1-C4-C3-C5=294.18            C2-C4-C3-C1=294.18            C2-C4-C3-C5=228.35            
C5-C4-C3-C1= 65.82            C5-C4-C3-C2=131.65            C3-C5-C1-C2=322.19            C3-C5-C1-C4=284.38            
C4-C5-C1-C2= 37.81            C4-C5-C1-C3= 75.62            C1-C5-C3-C2= 37.81            C1-C5-C3-C4= 75.62            
C4-C5-C3-C1=284.38            C4-C5-C3-C2=322.19            C1-C5-C4-C2=322.19            C1-C5-C4-C3=284.39            
C3-C5-C4-C1= 75.61            C3-C5-C4-C2= 37.81            
           -------------------------------------------------
          |                Final Singlepoint                |
           -------------------------------------------------

          ...................................................
          :                      SETUP                      :
          :.................................................:
          :  # basis functions                  20          :
          :  # atomic orbitals                  20          :
          :  # shells                           10          :
          :  # electrons                        20          :
          :  max. iterations                   250          :
          :  Hamiltonian                  GFN2-xTB          :
          :  restarted?                      false          :
          :  GBSA solvation                  false          :
          :  PC potential                    false          :
          :  electronic temp.          300.0000000     K    :
          :  accuracy                    1.0000000          :
          :  -> integral cutoff          0.2500000E+02      :
          :  -> integral neglect         0.1000000E-07      :
          :  -> SCF convergence          0.1000000E-05 Eh   :
          :  -> wf. convergence          0.1000000E-03 e    :
          :  Broyden damping             0.4000000          :
          ...................................................

 iter      E             dE          RMSdq      gap      omega  full diag
   1    -10.3096793 -0.103097E+02  0.139E-04    3.48       0.0  T
   2    -10.3096793  0.188693E-07  0.184E-03    3.48      24.4  T
   3    -10.3096793 -0.134803E-07  0.102E-03    3.48      43.9  T
   4    -10.3096793 -0.305335E-08  0.677E-04    3.48      66.0  T
   5    -10.3096793 -0.242188E-08  0.126E-04    3.48     353.7  T

   *** convergence criteria satisfied after 5 iterations ***

         #    Occupation            Energy/Eh            Energy/eV
      -------------------------------------------------------------
         1        2.0000           -0.7628708             -20.7588
       ...           ...                  ...                  ...
         5        2.0000           -0.5229845             -14.2311
         6        2.0000           -0.5229826             -14.2311
         7        2.0000           -0.4892071             -13.3120
         8        1.7839           -0.4620718             -12.5736
         9        1.7833           -0.4620683             -12.5735
        10        1.4328           -0.4605906             -12.5333
        11        1.0000           -0.4071091             -11.0780 (HOMO)
        12                         -0.2793855              -7.6025 (LUMO)
        13                         -0.2793704              -7.6021
        14                         -0.2312634              -6.2930
        15                          0.0171705               0.4672
        16                          0.0171873               0.4677
       ...                                ...                  ...
        20                          0.3750889              10.2067
      -------------------------------------------------------------
                  HL-Gap            0.1277236 Eh            3.4755 eV
             Fermi-level           -0.4020474 Eh          -10.9403 eV

 transition dipole moment (au) for excitation:          10          11
     X       Y       Z   
   0.3831  -0.2276   0.6836  total (au/Debye):    0.816   2.074
 dE (eV)             :    1.455
 oscillator strength :  0.33573E-01

 SCC (total)                   0 d,  0 h,  0 min,  0.005 sec
 SCC setup                      ...        0 min,  0.000 sec (  1.385%)
 Dispersion                     ...        0 min,  0.000 sec (  0.199%)
 integral evaluation            ...        0 min,  0.001 sec ( 29.983%)
 zeroth order Hamiltonian       ...        0 min,  0.000 sec (  0.330%)
 iterations                     ...        0 min,  0.001 sec ( 12.809%)
 molecular gradient             ...        0 min,  0.001 sec ( 32.826%)
 printout                       ...        0 min,  0.001 sec ( 22.241%)

         :::::::::::::::::::::::::::::::::::::::::::::::::::::
         ::                     SUMMARY                     ::
         :::::::::::::::::::::::::::::::::::::::::::::::::::::
         :: total energy             -10.178269488859 Eh    ::
         :: gradient norm              0.000298441708 Eh/a0 ::
         :: HOMO-LUMO gap              3.475537048479 eV    ::
         ::.................................................::
         :: SCC energy               -10.309679268975 Eh    ::
         :: -> isotropic ES           -0.008091909363 Eh    ::
         :: -> anisotropic ES          0.002499611928 Eh    ::
         :: -> anisotropic XC          0.002314922900 Eh    ::
         :: -> dispersion             -0.002361032736 Eh    ::
         :: repulsion energy           0.131409766472 Eh    ::
         :: add. restraining           0.000000000000 Eh    ::
         :::::::::::::::::::::::::::::::::::::::::::::::::::::

           ------------------------------------------------- 
          |                Numerical Hessian                |
           ------------------------------------------------- 
step length          :   0.00500
SCC accuracy         :   0.30000
Hessian scale factor :   1.00000
frozen atoms in %    :   0.00000    0
RMS gradient         :   0.00030
estimated CPU  time      0.00 min
estimated wall time      0.00 min

writing file <hessian>.

 projected vibrational frequencies (cm-1)
eigval :       -0.00    -0.00    -0.00     0.00     0.00     0.00
eigval :     -656.49  -656.14   460.60   461.17   748.13   748.21
eigval :      766.81  1301.29  1398.12
           -------------------------------------------------
          |                Property Printout                |
           -------------------------------------------------

    * Orbital Energies and Occupations

         #    Occupation            Energy/Eh            Energy/eV
      -------------------------------------------------------------
         1        2.0000           -0.7628708             -20.7588
         2        2.0000           -0.6564311             -17.8624
         3        2.0000           -0.6279744             -17.0881
         4        2.0000           -0.6279678             -17.0879
         5        2.0000           -0.5229845             -14.2311
         6        2.0000           -0.5229825             -14.2311
         7        2.0000           -0.4892071             -13.3120
         8        1.7839           -0.4620719             -12.5736
         9        1.7833           -0.4620684             -12.5735
        10        1.4328           -0.4605906             -12.5333
        11        1.0000           -0.4071090             -11.0780 (HOMO)
        12                         -0.2793855              -7.6025 (LUMO)
        13                         -0.2793704              -7.6021
        14                         -0.2312634              -6.2930
        15                          0.0171706               0.4672
        16                          0.0171873               0.4677
        17                          0.0629492               1.7129
        18                          0.0629680               1.7134
        19                          0.2242793               6.1029
        20                          0.3750890              10.2067
      -------------------------------------------------------------
                  HL-Gap            0.1277236 Eh            3.4755 eV
             Fermi-level           -0.4020474 Eh          -10.9403 eV

     #   Z        covCN         q      C6AA      α(0)
     1   6 C      3.806     0.005    20.496     6.445
     2   6 C      3.090    -0.007    28.090     8.687
     3   6 C      3.806     0.005    20.496     6.445
     4   6 C      3.806     0.005    20.497     6.445
     5   6 C      3.090    -0.007    28.090     8.687

 Mol. C6AA /au·bohr⁶  :        583.233919
 Mol. C8AA /au·bohr⁸  :      16868.138457
 Mol. α(0) /au        :         36.709621


Wiberg/Mayer (AO) data.
largest (>0.10) Wiberg bond orders for each atom
          total WBO             WBO to atom ...
     1  C   2.878        C    5 0.920    C    2 0.920    C    3 0.519    C    4 0.519
     2  C   2.970        C    3 0.920    C    1 0.920    C    4 0.920    C    5 0.211
     3  C   2.878        C    2 0.920    C    5 0.920    C    1 0.519    C    4 0.519
     4  C   2.878        C    2 0.920    C    5 0.920    C    1 0.519    C    3 0.519
     5  C   2.970        C    3 0.920    C    1 0.920    C    4 0.920    C    2 0.211
Refinement of some symmetry elements was terminated before convergence was reached.
Some symmetry elements may remain unidentified.
Molecule has the following symmetry elements: (C3) 3*(C2) (S3) 4*(sigma) 
It seems to be the D3h point group

MOs/occ written to file <molden.input>


molecular dipole:
                 x           y           z       tot (Debye)
 q only:        0.000      -0.000      -0.000
   full:        0.000      -0.000      -0.000       0.001
molecular quadrupole (traceless):
                xx          xy          yy          xz          yz          zz
 q only:        0.014       0.017       0.032      -0.050       0.030      -0.047
  q+dip:       -0.018      -0.021      -0.043       0.065      -0.039       0.061
   full:        0.193       0.224       0.436      -0.672       0.399      -0.629

           -------------------------------------------------
          |                Geometry Summary                 |
           -------------------------------------------------

      molecular mass/u    :       60.0536795
   center of mass at/Å    :        0.0000000       0.0000000       0.0000000
  moments of inertia/u·Å² :        0.3481413E+02   0.4619627E+02   0.4619777E+02
rotational constants/cm⁻¹ :        0.4842181E+00   0.3649133E+00   0.3649014E+00

 * 6 selected distances

     #   Z        #   Z                                     value/Å
     1   6 C      2   6 C                                 1.4712923
     2   6 C      3   6 C                                 1.4712919 (min)
     2   6 C      4   6 C                                 1.4712942
     1   6 C      5   6 C                                 1.4712932
     3   6 C      5   6 C                                 1.4712929
     4   6 C      5   6 C                                 1.4712953 (max)

 * 1 distinct bonds (by element types)

   Z      Z             #   av. dist./Å        max./Å        min./Å
   6 C    6 C           6     1.4712933     1.4712953     1.4712919

           -------------------------------------------------
          |               Frequency Printout                |
           -------------------------------------------------
 projected vibrational frequencies (cm-1)
eigval :       -0.00    -0.00    -0.00     0.00     0.00     0.00
eigval :     -656.49  -656.14   460.60   461.17   748.13   748.21
eigval :      766.81  1301.29  1398.12
 reduced masses (amu)
   1: 12.01   2: 12.01   3: 12.01   4: 12.01   5: 12.01   6: 12.01   7: 12.01   8: 12.01
   9: 12.01  10: 12.01  11: 12.01  12: 12.01  13: 12.01  14: 12.01  15: 12.01
 IR intensities (amu)
   1:  0.03   2:  0.02   3:  0.01   4:  0.01   5:  0.02   6:  0.03   7:  6.89   8:  6.89
   9:  4.26  10:  4.25  11:  0.00  12:  0.01  13:  0.00  14:  1.20  15:  0.00
 Raman intensities (amu)
   1:  0.00   2:  0.00   3:  0.00   4:  0.00   5:  0.00   6:  0.00   7:  0.00   8:  0.00
   9:  0.00  10:  0.00  11:  0.00  12:  0.00  13:  0.00  14:  0.00  15:  0.00
 output can be read by thermo (or use thermo option).
 writing <g98.out> molden fake output.
 recommended (thermochemical) frequency scaling factor: 1.0
           -------------------------------------------------
          |             Thermodynamic Functions             |
           -------------------------------------------------

d3h symmetry found (for desy threshold:  0.10E+00) used in thermo

          ...................................................
          :                      SETUP                      :
          :.................................................:
          :  # frequencies                           7      :
          :  # imaginary freq.                       2      :
          :  linear?                             false      :
          :  only rotor calc.                    false      :
          :  symmetry                              d3h      :
          :  rotational number                       6      :
          :  scaling factor                  1.0000000      :
          :  rotor cutoff                   50.0000000 cm⁻¹ :
          :  imag. cutoff                  -20.0000000 cm⁻¹ :
          :.................................................:

    mode    ω/cm⁻¹     T·S(HO)/kcal·mol⁻¹    T·S(FR)/kcal·mol⁻¹   T·S(vib)
   ------------------------------------------------------------------------
   ------------------------------------------------------------------------

   temp. (K)  partition function   enthalpy   heat capacity  entropy
                                   cal/mol     cal/K/mol   cal/K/mol   J/K/mol
 298.15  VIB   1.37                  505.801      5.114      2.316
         ROT  0.347E+04              888.752      2.981     19.181
         INT  0.474E+04             1394.553      8.095     21.497
         TR   0.450E+27             1481.254      4.968     38.181
         TOT                        2875.8070    13.0635    59.6782   249.6934

   temp. (K)  partition function   enthalpy   heat capacity  entropy
                                   cal/mol     cal/K/mol   cal/K/mol   J/K/mol
 120.00  VIB   1.01                   11.305      0.545      0.111
         ROT   886.                  357.707      2.981     16.468
         INT   894.                  369.012      3.526     16.579
         TR   0.115E+27              596.178      4.968     33.661
         TOT                         965.1896     8.4941    50.2404   210.2058

   temp. (K)  partition function   enthalpy   heat capacity  entropy
                                   cal/mol     cal/K/mol   cal/K/mol   J/K/mol
 100.00  VIB   1.00                    3.606      0.245      0.041
         ROT   674.                  298.089      2.981     15.925
         INT   676.                  301.695      3.226     15.966
         TR   0.875E+26              496.815      4.968     32.756
         TOT                         798.5100     8.1938    48.7221   203.8535

   temp. (K)  partition function   enthalpy   heat capacity  entropy
                                   cal/mol     cal/K/mol   cal/K/mol   J/K/mol
  80.00  VIB   1.00                    0.671      0.070      0.009
         ROT   482.                  238.471      2.981     15.260
         INT   483.                  239.142      3.051     15.269
         TR   0.626E+26              397.452      4.968     31.648
         TOT                         636.5940     8.0191    46.9168   196.2999

   temp. (K)  partition function   enthalpy   heat capacity  entropy
                                   cal/mol     cal/K/mol   cal/K/mol   J/K/mol
  60.00  VIB   1.00                    0.042      0.008      0.001
         ROT   313.                  178.853      2.981     14.402
         INT   313.                  178.895      2.989     14.403
         TR   0.406E+26              298.089      4.968     30.219
         TOT                         476.9843     7.9568    44.6220   186.6984

   temp. (K)  partition function   enthalpy   heat capacity  entropy
                                   cal/mol     cal/K/mol   cal/K/mol   J/K/mol
  40.00  VIB   1.00                    0.000      0.000     -0.000
         ROT   171.                  119.236      2.981     13.193
         INT   171.                  119.236      2.981     13.193
         TR   0.221E+26              198.726      4.968     28.206
         TOT                         317.9618     7.9491    41.3990   173.2135

   temp. (K)  partition function   enthalpy   heat capacity  entropy
                                   cal/mol     cal/K/mol   cal/K/mol   J/K/mol
  20.00  VIB   1.00                    0.000      0.000     -0.000
         ROT   60.3                   59.618      2.981     11.127
         INT   60.3                   59.618      2.981     11.127
         TR   0.782E+25               99.363      4.968     24.764
         TOT                         158.9808     7.9490    35.8906   150.1663

   temp. (K)  partition function   enthalpy   heat capacity  entropy
                                   cal/mol     cal/K/mol   cal/K/mol   J/K/mol
  10.00  VIB   1.00                    0.000      0.000     -0.001
         ROT   21.3                   29.809      2.981      9.061
         INT   21.3                   29.809      2.981      9.060
         TR   0.277E+25               49.681      4.968     21.322
         TOT                          79.4904     7.9490    30.3822   127.1191

       T/K    H(0)-H(T)+PV         H(T)/Eh          T*S/Eh         G(T)/Eh
   ------------------------------------------------------------------------
    298.15    0.458289E-02    0.179884E-01    0.283550E-01   -0.103666E-01
    120.00    0.153813E-02    0.149436E-01    0.960758E-02    0.533604E-02
    100.00    0.127251E-02    0.146780E-01    0.776437E-02    0.691363E-02
     80.00    0.101448E-02    0.144200E-01    0.598134E-02    0.843863E-02
     60.00    0.760123E-03    0.141656E-01    0.426658E-02    0.989904E-02
     40.00    0.506704E-03    0.139122E-01    0.263894E-02    0.112733E-01
     20.00    0.253352E-03    0.136588E-01    0.114391E-02    0.125149E-01
     10.00    0.126676E-03    0.135322E-01    0.484171E-03    0.130480E-01 (used)
   ------------------------------------------------------------------------

         :::::::::::::::::::::::::::::::::::::::::::::::::::::
         ::                  THERMODYNAMIC                  ::
         :::::::::::::::::::::::::::::::::::::::::::::::::::::
         :: total free energy         -10.165221490766 Eh   ::
         ::.................................................::
         :: total energy              -10.178269489104 Eh   ::
         :: zero point energy           0.013405493587 Eh   ::
         :: G(RRHO) w/o ZPVE           -0.000357495249 Eh   ::
         :: G(RRHO) contrib.            0.013047998338 Eh   ::
         :::::::::::::::::::::::::::::::::::::::::::::::::::::
imag cut-off (cm-1) :    5.00
 found            2  significant imaginary frequencies
 writing imag mode distorted coords to xtbhess.xyz
 for further optimization.

optimized geometry written to: xtbopt.xyz


           -------------------------------------------------
          | TOTAL ENERGY              -10.178269489104 Eh   |
          | TOTAL ENTHALPY            -10.164737319501 Eh   |
          | TOTAL FREE ENERGY         -10.165221490766 Eh   |
          | GRADIENT NORM               0.000298453699 Eh/α |
          | HOMO-LUMO GAP               3.475535034781 eV   |
           -------------------------------------------------

------------------------------------------------------------------------
 * finished run on 2020/05/12 at 11:44:36.877     
------------------------------------------------------------------------
 total:
 * wall-time:     0 d,  0 h,  0 min,  0.179 sec
 *  cpu-time:     0 d,  0 h,  0 min,  0.178 sec
 * ratio c/w:     0.999 speedup
 SCF:
 * wall-time:     0 d,  0 h,  0 min,  0.007 sec
 *  cpu-time:     0 d,  0 h,  0 min,  0.007 sec
 * ratio c/w:     0.995 speedup
 ANC optimizer:
 * wall-time:     0 d,  0 h,  0 min,  0.030 sec
 *  cpu-time:     0 d,  0 h,  0 min,  0.030 sec
 * ratio c/w:     1.000 speedup
 numerical hessian:
 * wall-time:     0 d,  0 h,  0 min,  0.125 sec
 *  cpu-time:     0 d,  0 h,  0 min,  0.125 sec
 * ratio c/w:     0.999 speedup

