[Molden Format]
[Title]
[Atoms] AU
C      1     6  0.15708133844757E+01 -0.24290562588594E+00 -0.96116459612266E+00
C      2     6  0.97124592570013E+00 -0.57698207802752E+00  0.17331253709642E+01
C      3     6 -0.11937369601778E+01 -0.14090195744382E+01  0.19987898740586E+00
C      4     6 -0.37706574677338E+00  0.16518868796812E+01  0.76126867866899E+00
C      5     6 -0.97125660322465E+00  0.57702039867050E+00 -0.17331084409164E+01
[GTO]
           1 0
 s           4   1.0000000000000000     
   51.049363095579913      -0.16312063210127389     
   8.7911227406887544      -0.19911024581000730     
  0.70640422258929825       0.31882047753655751     
  0.26922813413411617       0.12706504184240380     
 p           4   1.0000000000000000     
   5.8263656140800002       0.73716451545209605     
   1.5106896018720002       0.68216371614850257     
  0.53256483288000001       0.35783053929253711     
  0.21202323690600003        5.3983030275847881E-002

           2 0
 s           4   1.0000000000000000     
   51.049363095579913      -0.16312063210127389     
   8.7911227406887544      -0.19911024581000730     
  0.70640422258929825       0.31882047753655751     
  0.26922813413411617       0.12706504184240380     
 p           4   1.0000000000000000     
   5.8263656140800002       0.73716451545209605     
   1.5106896018720002       0.68216371614850257     
  0.53256483288000001       0.35783053929253711     
  0.21202323690600003        5.3983030275847881E-002

           3 0
 s           4   1.0000000000000000     
   51.049363095579913      -0.16312063210127389     
   8.7911227406887544      -0.19911024581000730     
  0.70640422258929825       0.31882047753655751     
  0.26922813413411617       0.12706504184240380     
 p           4   1.0000000000000000     
   5.8263656140800002       0.73716451545209605     
   1.5106896018720002       0.68216371614850257     
  0.53256483288000001       0.35783053929253711     
  0.21202323690600003        5.3983030275847881E-002

           4 0
 s           4   1.0000000000000000     
   51.049363095579913      -0.16312063210127389     
   8.7911227406887544      -0.19911024581000730     
  0.70640422258929825       0.31882047753655751     
  0.26922813413411617       0.12706504184240380     
 p           4   1.0000000000000000     
   5.8263656140800002       0.73716451545209605     
   1.5106896018720002       0.68216371614850257     
  0.53256483288000001       0.35783053929253711     
  0.21202323690600003        5.3983030275847881E-002

           5 0
 s           4   1.0000000000000000     
   51.049363095579913      -0.16312063210127389     
   8.7911227406887544      -0.19911024581000730     
  0.70640422258929825       0.31882047753655751     
  0.26922813413411617       0.12706504184240380     
 p           4   1.0000000000000000     
   5.8263656140800002       0.73716451545209605     
   1.5106896018720002       0.68216371614850257     
  0.53256483288000001       0.35783053929253711     
  0.21202323690600003        5.3983030275847881E-002

[MO]
Sym=     1a
Ene=  -0.76287082988715915     
Spin= Alpha
Occup=     2.00000000
           1  0.26470715569599990     
           2 -0.11716751681523245     
           3   1.8116715309186508E-002
           4   7.1693042640368160E-002
           5  0.24384213156136175     
           6  -6.2804753014714318E-002
           7   3.7308794743213525E-002
           8 -0.11207229289311663     
           9  0.26470708128016190     
          10   8.9041860490677291E-002
          11  0.10509766629106493     
          12  -1.4909895656943433E-002
          13  0.26470135938409239     
          14   2.8121626963236855E-002
          15 -0.12319786595748487     
          16  -5.6775481351354219E-002
          17  0.24384216037149009     
          18   6.2806107063392819E-002
          19  -3.7314140572723482E-002
          20  0.11206979660884123     
Sym=     2a
Ene=  -0.65643108997616462     
Spin= Alpha
Occup=     2.00000000
           1  -3.8796187549531771E-008
           2  0.12865893940346748     
           3  -7.6433746256201765E-002
           4  0.22958120989983524     
           5  0.44613671934261906     
           6  -1.5090838349433132E-002
           7   8.9569864303282731E-003
           8  -2.6936779473907428E-002
           9   1.3398337586036554E-007
          10  0.12865885649154427     
          11  -7.6433612705544676E-002
          12  0.22958098994223389     
          13   1.6730577371860782E-007
          14  0.12864532581318863     
          15  -7.6425738009970448E-002
          16  0.22955686863652472     
          17 -0.44613729964717308     
          18  -1.5095523151487759E-002
          19   8.9761126312174148E-003
          20  -2.6928026021581307E-002
Sym=     3a
Ene=  -0.62797435143047353     
Spin= Alpha
Occup=     2.00000000
           1 -0.25219915987185376     
           2   4.2454255572126683E-002
           3  0.23599518860090185     
           4   5.4777359874180330E-002
           5   8.1679643516285064E-006
           6  -5.6948432099928399E-002
           7  0.25714317341211673     
           8  0.11752057683558990     
           9 -0.25788821928597438     
          10 -0.13183703262908875     
          11  0.16120197183090176     
          12  0.12755077880826457     
          13  0.51008294735531134     
          14  -8.0069369465940593E-003
          15   4.2562106839113968E-002
          16   1.8657289223463727E-002
          17   8.2869576979293304E-006
          18  -5.6945539593973978E-002
          19  0.25714122183817056     
          20  0.11752554768733510     
Sym=     4a
Ene=  -0.62796776053484393     
Spin= Alpha
Occup=     2.00000000
           1 -0.44338903229067983     
           2  -7.0011441388000459E-002
           3 -0.12714958763883563     
           4  -3.0967705091820854E-003
           5   2.0583728409982155E-007
           6 -0.24820245971401797     
           7 -0.10288354074532531     
           8  0.10484163382254767     
           9  0.44010424734673820     
          10 -0.11236984713239914     
          11   5.3019944858164351E-002
          12   8.0624681898078240E-002
          13   3.2844412003317502E-003
          14 -0.24210006787413291     
          15 -0.10182401116788578     
          16  0.10177460928658978     
          17   3.6102554143293280E-007
          18 -0.24820213697821614     
          19 -0.10288349500482344     
          20  0.10484172424812090     
Sym=     5a
Ene=  -0.52298450862733792     
Spin= Alpha
Occup=     2.00000000
           1  -5.9972728035863596E-008
           2  0.10875377239539057     
           3  -6.4608377447650370E-002
           4  0.19406214937248251     
           5  -2.8666111761243089E-005
           6   8.2172517698553701E-002
           7 -0.39824910690975013     
           8 -0.17864698791075567     
           9  -2.6376188743878573E-008
          10  0.11691153665495783     
          11  -6.9454770921969305E-002
          12  0.20861885866800686     
          13   1.2244710679783796E-007
          14 -0.22566814947925085     
          15  0.13406510201170013     
          16 -0.40268597934717543     
          17   2.8459980082101407E-005
          18  -8.2179706852154241E-002
          19  0.39825392867079840     
          20  0.17863466908430342     
Sym=     6a
Ene=  -0.52298249340598824     
Spin= Alpha
Occup=     2.00000000
           1   1.2865657738697480E-007
           2 -0.19779043527717929     
           3  0.11750350873456278     
           4 -0.35294080763784319     
           5   1.0985996597359932E-006
           6 -0.38345680742130572     
           7 -0.15271053275827759     
           8  0.16405091253469326     
           9  -1.2016045712924164E-007
          10  0.19308068493403915     
          11 -0.11470533280063833     
          12  0.34453632336517709     
          13  -3.2818381001399320E-008
          14   4.7098158242115324E-003
          15  -2.7980210552721943E-003
          16   8.4043074253939507E-003
          17  -8.6877648437231680E-007
          18  0.38345762672994305     
          19  0.15271064579947299     
          20 -0.16405078479740540     
Sym=     7a
Ene=  -0.48920706299194294     
Spin= Alpha
Occup=     2.00000000
           1  0.21343580358357986     
           2   9.7363295847433848E-002
           3  -1.5075229514503744E-002
           4  -5.9582792244759646E-002
           5 -0.52781037912025497     
           6 -0.18184310168958950     
           7  0.10802996340693326     
           8 -0.32448271211471880     
           9  0.21343635020539095     
          10  -7.3983518967523296E-002
          11  -8.7351358236868959E-002
          12   1.2378682180632863E-002
          13  0.21347597404822757     
          14  -2.3378224519873335E-002
          15  0.10241761068353676     
          16   4.7198354257987025E-002
          17 -0.52781190045569548     
          18  0.18184338961311700     
          19 -0.10802897943233579     
          20  0.32448494699857300     
Sym=     8a
Ene=  -0.46207190982736751     
Spin= Alpha
Occup=     1.78392062
           1  0.21134356257182360     
           2  0.30310428827980207     
           3  0.38143954929545071     
           4  -4.2870300622618839E-002
           5  -1.0112318977961393E-004
           6  -1.3130805866019965E-002
           7   5.8098840034888778E-002
           8   2.6556725195875784E-002
           9  0.21350676547080805     
          10 -0.40932381386843630     
          11   7.8553510079636318E-002
          12  0.25554057080391462     
          13 -0.42531526863132074     
          14   9.4664284691930070E-002
          15 -0.40867001343783843     
          16 -0.18910780791735968     
          17  -1.0111556030249228E-004
          18  -1.3017176342388177E-002
          19   5.8031337328943444E-002
          20   2.6759636639022543E-002
Sym=     9a
Ene=  -0.46206840250903625     
Spin= Alpha
Occup=     1.78329462
           1  0.36882161630814347     
           2  0.27451363171022186     
           3 -0.28804242590382340     
           4 -0.24973639113838333     
           5  -1.6775663944168308E-007
           6  -5.6109511584177957E-002
           7  -2.3480223967168746E-002
           8   2.3626568022537670E-002
           9 -0.36757203574945063     
          10  0.10393930489957541     
          11  0.44915904712299387     
          12   9.1288732002427736E-002
          13  -1.2489603815389503E-003
          14 -0.42797928689822784     
          15 -0.18184279816916243     
          16  0.17930228246538407     
          17  -1.5889395288916569E-007
          18  -5.6109327328880076E-002
          19  -2.3480413567736683E-002
          20   2.3627201385858512E-002
Sym=    10a
Ene=  -0.46059064121933296     
Spin= Alpha
Occup=     1.43278476
           1 -0.34744255654736766     
           2 -0.34192042242485926     
           3   5.2673455481244524E-002
           4  0.20915069318078919     
           5 -0.17322376765862560     
           6  -9.3101236433460022E-002
           7   5.5281872880175012E-002
           8 -0.16615940704269022     
           9 -0.34744381549110842     
          10  0.25992500150909992     
          11  0.30653886296849675     
          12  -4.3609120117605739E-002
          13 -0.34715448773981367     
          14   8.1990215291173785E-002
          15 -0.35919488621524565     
          16 -0.16553382855563181     
          17 -0.17322460750106008     
          18   9.3116547853116377E-002
          19  -5.5346416769178661E-002
          20  0.16613044612807087     
Sym=    11a
Ene=  -0.40710904408039988     
Spin= Alpha
Occup=     1.00000000
           1  -9.7540175343905870E-008
           2  -8.8297714286763820E-002
           3   5.2456003704609691E-002
           4 -0.15756026976791143     
           5  0.32128660692601513     
           6  0.28481319697443719     
           7 -0.16921100987879142     
           8  0.50821578583649529     
           9  -1.1869483076437574E-007
          10  -8.8298168177965999E-002
          11   5.2455975075505673E-002
          12 -0.15756040840688987     
          13  -1.2649356429121895E-007
          14  -8.8305511567481842E-002
          15   5.2460703104694230E-002
          16 -0.15757360677402860     
          17 -0.32128421771945204     
          18  0.28480722614088178     
          19 -0.16918925417456748     
          20  0.50822431818755831     
Sym=    12a
Ene=  -0.27938548174079647     
Spin= Alpha
Occup=     0.00000000
           1   3.6947311237014786E-002
           2   6.2561212883864292E-002
           3 -0.48645112321667328     
           4 -0.19701286663672216     
           5   1.1005493374202222E-006
           6  -9.9438244988536179E-002
           7  0.45788481798310754     
           8  0.20816560687005531     
           9   3.8319190139346974E-002
          10  0.14227413278691772     
          11 -0.45187826528402658     
          12 -0.23017432704676438     
          13  -7.5277423428202886E-002
          14   8.5348938194214546E-002
          15 -0.39789788420238115     
          16 -0.18030023887229782     
          17   1.1181381844975319E-006
          18  -9.9436402397746676E-002
          19  0.45788447432819940     
          20  0.20816947737913050     
Sym=    13a
Ene=  -0.27937040804305535     
Spin= Alpha
Occup=     0.00000000
           1  -6.5568526864395280E-002
           2 -0.39670526473228401     
           3 -0.20719608105732670     
           4  0.15333613920280242     
           5  -4.8517027340091956E-008
           6  0.44165883180071297     
           7  0.18103683519405231     
           8 -0.18723671055294824     
           9   6.4777228745685020E-002
          10 -0.41639237769856413     
          11 -0.12499470589632870     
          12  0.19173448273705734     
          13   7.9185642968260825E-004
          14 -0.47573893637590370     
          15 -0.19610598592216305     
          16  0.20131858952398335     
          17  -6.6062203260274916E-008
          18  0.44165944184342659     
          19  0.18103721708436030     
          20 -0.18723713004775636     
Sym=    14a
Ene=  -0.23126344692229847     
Spin= Alpha
Occup=     0.00000000
           1   1.4463558524606951E-005
           2  0.17341253646283911     
           3  0.64974688873365205     
           4  0.11913658752356758     
           5  -3.0736592049400323E-009
           6  -9.3462701010460611E-005
           7  -4.0820846626444893E-005
           8   3.8792629440224718E-005
           9  -1.4705200740923281E-005
          10  0.41352699131504883     
          11 -0.40216828414993738     
          12 -0.36563622440152521     
          13   2.0711839875159989E-007
          14 -0.58675150761260020     
          15 -0.24749650464768436     
          16  0.24642160229693516     
          17  -3.0657789035575965E-009
          18  -9.3474289253031961E-005
          19  -4.0828893120557588E-005
          20   3.8784833478775486E-005
Sym=    15a
Ene=    1.7170599633873577E-002
Spin= Alpha
Occup=     0.00000000
           1  -7.4238512617650684E-006
           2  0.34241609916050370     
           3 -0.20341851734082905     
           4  0.61099638983269955     
           5  -3.0062194230564025E-007
           6 -0.57784069472364208     
           7 -0.23144199232506918     
           8  0.24677320841006151     
           9   7.7625507112825436E-006
          10 -0.33503410630277664     
          11  0.19904653144284357     
          12 -0.59785257344933640     
          13  -2.3095571866014283E-007
          14  -7.3667762260225941E-003
          15   4.3784617818118385E-003
          16  -1.3149160646808176E-002
          17   2.1705889349836046E-007
          18  0.57785056244559763     
          19  0.23144634999121974     
          20 -0.24677684680590364     
Sym=    16a
Ene=    1.7187315016584229E-002
Spin= Alpha
Occup=     0.00000000
           1  -4.2154123877655810E-006
           2  0.18917840342907666     
           3 -0.11238760009836074     
           4  0.33756437820732971     
           5   1.4565754791111359E-005
           6 -0.12506960180293911     
           7  0.59994436213172198     
           8  0.26981233293279960     
           9  -5.2752209525487085E-006
          10  0.20193552037253454     
          11 -0.11997284798266447     
          12  0.36034123186844058     
          13   9.5760271587814149E-006
          14 -0.39113076492965881     
          15  0.23235498117844722     
          16 -0.69794798400942448     
          17  -1.4633836092938356E-005
          18  0.12505937352614388     
          19 -0.59994857847539873     
          20 -0.26983862313811341     
Sym=    17a
Ene=    6.2949158402522520E-002
Spin= Alpha
Occup=     0.00000000
           1 -0.36862748203651319     
           2  0.28998997705314355     
           3 -0.14374858559459111     
           4 -0.21037668540722509     
           5   9.1678622812409205E-006
           6  0.10278624775702654     
           7 -0.45245820073525012     
           8 -0.20825220390114615     
           9 -0.36993119331101704     
          10 -0.18011341462098185     
          11 -0.34258492038993232     
          12  -1.3126428768085471E-002
          13  0.73853254553997438     
          14  0.15156205888059890     
          15 -0.66444018124177717     
          16 -0.30613322366420392     
          17   8.7765510684335393E-006
          18  0.10279449177343834     
          19 -0.45244782343384682     
          20 -0.20822466881332830     
Sym=    18a
Ene=    6.2968048359657025E-002
Spin= Alpha
Occup=     0.00000000
           1  0.63999133338088021     
           2 -0.56210004944377667     
           3   2.9912123500599973E-002
           4  0.32497421847832675     
           5  -8.5715970514122683E-007
           6 -0.43710029806679251     
           7 -0.18386873666433939     
           8  0.18374044040251819     
           9 -0.63923764976717712     
          10 -0.45054740053552006     
          11 -0.45651302999482229     
          12  0.10049378577674618     
          13  -7.5225915707734432E-004
          14  -9.9140345906389954E-002
          15  -4.1076486271555170E-002
          16   4.1884412737120708E-002
          17  -3.8700276701393469E-007
          18 -0.43708629361946999     
          19 -0.18386127100236341     
          20  0.18373330359520451     
Sym=    19a
Ene=   0.22427925693851658     
Spin= Alpha
Occup=     0.00000000
           1  -3.5428026606485800E-006
           2  0.26921632272824725     
           3 -0.15993494427913227     
           4  0.48038766617159634     
           5 -0.69205391686789108     
           6  0.25865056024155464     
           7 -0.15363694753692927     
           8  0.46156089953696627     
           9  -2.9661547571669406E-006
          10  0.26921289677611882     
          11 -0.15993705396887328     
          12  0.48039116041282259     
          13  -2.8365501100962049E-006
          14  0.26920138510512132     
          15 -0.15992530368904403     
          16  0.48036926956404080     
          17  0.69206204746247801     
          18  0.25866674523901911     
          19 -0.15369096733457985     
          20  0.46154757309750816     
Sym=    20a
Ene=   0.37508897331419572     
Spin= Alpha
Occup=     0.00000000
           1  0.45334151425137326     
           2 -0.34419381752174572     
           3   5.3238103912122095E-002
           4  0.21061809573260182     
           5 -0.62320209108838887     
           6  0.34425760293932167     
           7 -0.20451809008123858     
           8  0.61429605798807219     
           9  0.45334359449275480     
          10  0.26156839161917561     
          11  0.30875540561923920     
          12  -4.3786586514109521E-002
          13  0.45336138402789689     
          14   8.2629180120233778E-002
          15 -0.36198284917819362     
          16 -0.16681450413666943     
          17 -0.62319035252250154     
          18 -0.34425162067253295     
          19  0.20451162232883743     
          20 -0.61429069216302656     
