      -----------------------------------------------------------      
     |                   =====================                   |     
     |                           x T B                           |     
     |                   =====================                   |     
     |                         S. Grimme                         |     
     |          Mulliken Center for Theoretical Chemistry        |     
     |                    University of Bonn                     |     
      -----------------------------------------------------------      

   * xtb version 6.2.2 (9d81278992624c895f80dd42a50cac0aa55982e2) compiled by '@Darwin' on 04/03/2020

   xtb is free software: you can redistribute it and/or modify it under
   the terms of the GNU Lesser General Public License as published by
   the Free Software Foundation, either version 3 of the License, or
   (at your option) any later version.
   
   xtb is distributed in the hope that it will be useful,
   but WITHOUT ANY WARRANTY; without even the implied warranty of
   MERCHANTABILITY or FITNESS FOR A PARTICULAR PURPOSE.  See the
   GNU Lesser General Public License for more details.
   
   Cite this work as:
   * S. Grimme, C. Bannwarth, P. Shushkov, J. Chem. Theory Comput., 2017,
     13, 1989-2009. DOI: 10.1021/acs.jctc.7b00118
   * C. Bannwarth, S. Ehlert and S. Grimme., J. Chem. Theory Comput., 2019,
     15, 1652-1671. DOI: 10.1021/acs.jctc.8b01176
   * P. Pracht, E. Caldeweyher, S. Ehlert, S. Grimme, ChemRxiv, 2019, preprint.
     DOI: 10.26434/chemrxiv.8326202.v1
   
   for DFT-D4:
   * E. Caldeweyher, C. Bannwarth and S. Grimme, J. Chem. Phys., 2017,
     147, 034112. DOI: 10.1063/1.4993215
   * E. Caldeweyher, S. Ehlert, A. Hansen, H. Neugebauer, S. Spicher,
     C. Bannwarth and S. Grimme, J. Chem. Phys., 2019, 150, 154122.
     DOI: 10.1063/1.5090222
   
   for sTDA-xTB:
   * S. Grimme and C. Bannwarth, J. Chem. Phys., 2016, 145, 054103.
     DOI: 10.1063/1.4959605
   
   in the mass-spec context:
   * V. Asgeirsson, C. Bauer and S. Grimme, Chem. Sci., 2017, 8, 4879.
     DOI: 10.1039/c7sc00601b
   
   for metadynamics refer to:
   * S. Grimme, J. Chem. Theory Comput., 2019, 155, 2847-2862
     DOI: 10.1021/acs.jctc.9b00143
   
   with help from (in alphabetical order)
   C. Bannwarth, F. Bohle, G. Brandenburg, E. Caldeweyher, M. Checinski,
   S. Dohm, S. Ehlert, S. Ehrlich, F. März, H. Neugebauer, J. Pisarek,
   P. Pracht, P. Shushkov, and S. Spicher.
   
 * started run on 2020/05/12 at 11:45:01.990     

           -------------------------------------------------
          |                Calculation Setup                |
           -------------------------------------------------

          program call               : xtb --input H1C3N1_30_S_2.input H1C3N1_30_S_2.xyz --ohess --molden --namespace H1C3N1_30_S_2 output.out
          calculation namespace      : H1C3N1_30_S_2
          coordinate file            : H1C3N1_30_S_2.xyz
          number of atoms            :                     5
          number of electrons        :                    18
          charge                     :                     0
          spin                       :                   1.0
          first test random number   :      0.80536280739590

   ID    Z sym.   atoms
    1    7 N      1
    2    6 C      2-4
    3    1 H      5

           -------------------------------------------------
          |                 G F N 2 - x T B                 |
           -------------------------------------------------

        Reference                      10.1021/acs.jctc.8b01176
      * Hamiltonian:
        H0-scaling (s, p, d)           1.850000    2.230000    2.230000
        zeta-weighting                 0.500000
      * Dispersion:
        s8                             2.700000
        a1                             0.520000
        a2                             5.000000
        s9                             5.000000
      * Repulsion:
        kExp                           1.500000    1.000000
        rExp                           1.000000
      * Coulomb:
        alpha                          2.000000
        third order                    shell-resolved
        anisotropic                    true
        a3                             3.000000
        a5                             4.000000
        cn-shift                       1.200000
        cn-exp                         4.000000
        max-rad                        5.000000


          ...................................................
          :                      SETUP                      :
          :.................................................:
          :  # basis functions                  17          :
          :  # atomic orbitals                  17          :
          :  # shells                            9          :
          :  # electrons                        18          :
          :  max. iterations                   250          :
          :  Hamiltonian                  GFN2-xTB          :
          :  restarted?                      false          :
          :  GBSA solvation                  false          :
          :  PC potential                    false          :
          :  electronic temp.          300.0000000     K    :
          :  accuracy                    1.0000000          :
          :  -> integral cutoff          0.2500000E+02      :
          :  -> integral neglect         0.1000000E-07      :
          :  -> SCF convergence          0.1000000E-05 Eh   :
          :  -> wf. convergence          0.1000000E-03 e    :
          :  Broyden damping             0.4000000          :
          ...................................................

 iter      E             dE          RMSdq      gap      omega  full diag
   1     -9.4885312 -0.948853E+01  0.741E+00    1.71       0.0  T
   2     -9.2146430  0.273888E+00  0.716E+00    2.34       1.0  T
   3     -9.3643080 -0.149665E+00  0.534E+00    2.01       1.0  T
   4     -9.5274689 -0.163161E+00  0.257E+00    1.90       1.0  T
   5     -9.5428241 -0.153552E-01  0.819E-01    1.94       1.0  T
   6     -9.5437919 -0.967766E-03  0.628E-01    1.95       1.0  T
   7     -9.5423034  0.148850E-02  0.480E-01    1.97       1.0  T
   8     -9.5440404 -0.173703E-02  0.840E-02    1.96       1.0  T
   9     -9.5440408 -0.385680E-06  0.479E-02    1.95       1.0  T
  10     -9.5440554 -0.146208E-04  0.219E-02    1.95       2.0  T
  11     -9.5440581 -0.260521E-05  0.113E-02    1.96       4.0  T
  12     -9.5440585 -0.484691E-06  0.205E-03    1.96      21.8  T
  13     -9.5440585 -0.762594E-08  0.430E-04    1.96     103.9  T
  14     -9.5440585 -0.205880E-10  0.130E-04    1.96     344.4  T

   *** convergence criteria satisfied after 14 iterations ***

         #    Occupation            Energy/Eh            Energy/eV
      -------------------------------------------------------------
         1        2.0000           -0.7392814             -20.1169
       ...           ...                  ...                  ...
         4        2.0000           -0.5820050             -15.8372
         5        2.0000           -0.5199240             -14.1479
         6        2.0000           -0.5118937             -13.9293
         7        2.0000           -0.4858820             -13.2215
         8        2.0000           -0.4615603             -12.5597
         9        1.0000           -0.4261005             -11.5948
        10        1.0000           -0.4029988             -10.9662 (HOMO)
        11                         -0.3311301              -9.0105 (LUMO)
        12                         -0.2543039              -6.9200
        13                         -0.0157664              -0.4290
        14                          0.0149004               0.4055
        15                          0.1146879               3.1208
       ...                                ...                  ...
        17                          0.2101107               5.7174
      -------------------------------------------------------------
                  HL-Gap            0.0718687 Eh            1.9556 eV
             Fermi-level           -0.4054474 Eh          -11.0328 eV

 transition dipole moment (au) for excitation:           9          10
     X       Y       Z   
   0.3905  -0.0492   0.4578  total (au/Debye):    0.604   1.534
 dE (eV)             :    0.629
 oscillator strength :  0.79378E-02

 SCC (total)                   0 d,  0 h,  0 min,  0.004 sec
 SCC setup                      ...        0 min,  0.000 sec (  1.782%)
 Dispersion                     ...        0 min,  0.000 sec (  0.356%)
 integral evaluation            ...        0 min,  0.001 sec ( 22.615%)
 zeroth order Hamiltonian       ...        0 min,  0.000 sec (  0.379%)
 iterations                     ...        0 min,  0.001 sec ( 31.136%)
 molecular gradient             ...        0 min,  0.001 sec ( 24.182%)
 printout                       ...        0 min,  0.001 sec ( 19.311%)

         :::::::::::::::::::::::::::::::::::::::::::::::::::::
         ::                     SUMMARY                     ::
         :::::::::::::::::::::::::::::::::::::::::::::::::::::
         :: total energy              -9.458948182878 Eh    ::
         :: gradient norm              0.165567468700 Eh/a0 ::
         :: HOMO-LUMO gap              1.955647533615 eV    ::
         ::.................................................::
         :: SCC energy                -9.544058544568 Eh    ::
         :: -> isotropic ES           -0.002482092699 Eh    ::
         :: -> anisotropic ES          0.003312879035 Eh    ::
         :: -> anisotropic XC          0.008041287189 Eh    ::
         :: -> dispersion             -0.002009790653 Eh    ::
         :: repulsion energy           0.085110326682 Eh    ::
         :: add. restraining           0.000000000000 Eh    ::
         :::::::::::::::::::::::::::::::::::::::::::::::::::::

      ----------------------------------------------------------- 
     |                   =====================                   |
     |                        A N C O P T                        |
     |                   =====================                   |
     |               Approximate Normal Coordinate               |
     |                Rational Function Optimizer                |
      ----------------------------------------------------------- 

          ...................................................
          :                      SETUP                      :
          :.................................................:
          :   optimization level            normal          :
          :   max. optcycles                   200          :
          :   ANC micro-cycles                  20          :
          :   degrees of freedom                 9          :
          :.................................................:
          :   RF solver                   davidson          :
          :   write xtbopt.log                true          :
          :   linear?                        false          :
          :   energy convergence         0.5000000E-05 Eh   :
          :   grad. convergence          0.1000000E-02 Eh/α :
          :   maximium RF displ.         1.0000000          :
          :   Hlow (freq-cutoff)         0.1000000E-01      :
          :   Hmax (freq-cutoff)         5.0000000          :
          :   S6 in model hess.         20.0000000          :
          ...................................................

generating ANC from model Hessian ...
Using Lindh-Hessian (1995)
 Shifting diagonal of input Hessian by    0.0000000000000000     
 Lowest  eigenvalues of input Hessian
   -0.000000   -0.000000   -0.000000   -0.000000    0.000000    0.000000
    0.088806    0.110730    0.144764    0.522990    0.643660    0.928017
    0.980184    1.327383    1.527811
 Highest eigenvalues
    0.522990    0.643660    0.928017    0.980184    1.327383    1.527811


........................................................................
.............................. CYCLE    1 ..............................
........................................................................
   1     -9.5440585 -0.954406E+01  0.570E-06    1.96       0.0  T
   2     -9.5440585  0.509814E-12  0.959E-06    1.96    4661.9  T
   3     -9.5440585 -0.648370E-12  0.248E-06    1.96   18040.1  T
     SCC iter.                  ...        0 min,  0.000 sec
     gradient                   ...        0 min,  0.001 sec
 * total energy  :    -9.4589482 Eh     change       -0.7504148E-09 Eh
   gradient norm :     0.1655664 Eh/α   predicted     0.0000000E+00 (-100.00%)
   displ. norm   :     0.4190721 α      lambda       -0.5485365E-01
   maximum displ.:     0.3096066 α      in ANC's #3, #5, #1, ...

........................................................................
.............................. CYCLE    2 ..............................
........................................................................
   1     -9.5895636 -0.958956E+01  0.246E+00    2.63       0.0  T
   2     -9.5721998  0.173638E-01  0.207E+00    2.66       1.0  T
   3     -9.5836472 -0.114474E-01  0.166E+00    2.57       1.0  T
   4     -9.5971064 -0.134592E-01  0.456E-01    2.63       1.0  T
   5     -9.5978192 -0.712749E-03  0.103E-01    2.60       1.0  T
   6     -9.5978509 -0.317171E-04  0.572E-02    2.60       1.0  T
   7     -9.5978535 -0.257395E-05  0.158E-02    2.60       2.8  T
   8     -9.5978544 -0.936977E-06  0.615E-03    2.60       7.3  T
   9     -9.5978544 -0.504733E-07  0.161E-03    2.60      27.8  T
  10     -9.5978544 -0.931011E-08  0.154E-04    2.60     290.9  T
  11     -9.5978544 -0.170886E-10  0.717E-05    2.60     624.0  T
     SCC iter.                  ...        0 min,  0.001 sec
     gradient                   ...        0 min,  0.001 sec
 * total energy  :    -9.5002348 Eh     change       -0.4128657E-01 Eh
   gradient norm :     0.0969371 Eh/α   predicted    -0.3224356E-01 ( -21.90%)
   displ. norm   :     0.3826458 α      lambda       -0.3023600E-01
   maximum displ.:     0.2938885 α      in ANC's #3, #5, #6, ...

........................................................................
.............................. CYCLE    3 ..............................
........................................................................
   1     -9.6345074 -0.963451E+01  0.237E+00    2.80       0.0  T
   2     -9.6097616  0.247458E-01  0.265E+00    2.72       1.0  T
   3     -9.6378120 -0.280504E-01  0.124E+00    2.77       1.0  T
   4     -9.6414732 -0.366112E-02  0.415E-01    2.74       1.0  T
   5     -9.6416547 -0.181584E-03  0.311E-01    2.74       1.0  T
   6     -9.6419124 -0.257630E-03  0.509E-02    2.73       1.0  T
   7     -9.6419153 -0.293510E-05  0.295E-02    2.73       1.5  T
   8     -9.6419178 -0.249791E-05  0.104E-02    2.73       4.3  T
   9     -9.6419181 -0.281594E-06  0.295E-03    2.73      15.2  T
  10     -9.6419181 -0.907530E-08  0.140E-03    2.73      32.1  T
  11     -9.6419181 -0.417455E-08  0.137E-04    2.73     326.2  T
  12     -9.6419181 -0.248104E-10  0.476E-05    2.73     938.6  T
     SCC iter.                  ...        0 min,  0.001 sec
     gradient                   ...        0 min,  0.001 sec
 * total energy  :    -9.5136976 Eh     change       -0.1346281E-01 Eh
   gradient norm :     0.0473465 Eh/α   predicted    -0.1733155E-01 (  28.74%)
   displ. norm   :     0.2259318 α      lambda       -0.7150471E-02
   maximum displ.:     0.2037918 α      in ANC's #1, #2, #3, ...

........................................................................
.............................. CYCLE    4 ..............................
........................................................................
   1     -9.6338430 -0.963384E+01  0.944E-01    2.96       0.0  T
   2     -9.6335672  0.275867E-03  0.598E-01    2.99       1.0  T
   3     -9.6312192  0.234799E-02  0.674E-01    2.95       1.0  T
   4     -9.6339889 -0.276971E-02  0.144E-01    3.00       1.0  T
   5     -9.6341227 -0.133806E-03  0.437E-02    2.99       1.0  T
   6     -9.6341257 -0.298994E-05  0.148E-02    2.98       3.0  T
   7     -9.6341260 -0.276210E-06  0.284E-03    2.98      15.8  T
   8     -9.6341260 -0.168617E-07  0.114E-03    2.98      39.4  T
   9     -9.6341260 -0.697032E-09  0.253E-04    2.98     176.6  T
  10     -9.6341260 -0.453397E-10  0.579E-05    2.98     772.3  T
     SCC iter.                  ...        0 min,  0.001 sec
     gradient                   ...        0 min,  0.001 sec
 * total energy  :    -9.5168893 Eh     change       -0.3191776E-02 Eh
   gradient norm :     0.0207559 Eh/α   predicted    -0.3757733E-02 (  17.73%)
   displ. norm   :     0.0566134 α      lambda       -0.8223517E-03
   maximum displ.:     0.0445746 α      in ANC's #3, #1, #6, ...

........................................................................
.............................. CYCLE    5 ..............................
........................................................................
   1     -9.6358455 -0.963585E+01  0.237E-01    2.97       0.0  T
   2     -9.6358400  0.550000E-05  0.140E-01    2.98       1.0  T
   3     -9.6357418  0.981622E-04  0.140E-01    2.96       1.0  T
   4     -9.6358530 -0.111220E-03  0.389E-02    2.97       1.1  T
   5     -9.6358634 -0.103617E-04  0.703E-03    2.97       6.4  T
   6     -9.6358635 -0.461887E-07  0.333E-03    2.97      13.4  T
   7     -9.6358635 -0.350245E-07  0.773E-04    2.97      57.8  T
   8     -9.6358635 -0.470420E-09  0.212E-04    2.97     211.0  T
     SCC iter.                  ...        0 min,  0.001 sec
     gradient                   ...        0 min,  0.001 sec
 * total energy  :    -9.5174923 Eh     change       -0.6029861E-03 Eh
   gradient norm :     0.0136371 Eh/α   predicted    -0.4124918E-03 ( -31.59%)
   displ. norm   :     0.0649906 α      lambda       -0.6248037E-03
   maximum displ.:     0.0466129 α      in ANC's #3, #6, #4, ...

........................................................................
.............................. CYCLE    6 ..............................
........................................................................
   1     -9.6377465 -0.963775E+01  0.251E-01    2.98       0.0  T
   2     -9.6377400  0.645283E-05  0.152E-01    2.97       1.0  T
   3     -9.6375475  0.192476E-03  0.172E-01    2.97       1.0  T
   4     -9.6377569 -0.209410E-03  0.217E-02    2.97       2.1  T
   5     -9.6377587 -0.174761E-05  0.860E-03    2.97       5.2  T
   6     -9.6377587  0.195010E-07  0.411E-03    2.97      10.9  T
   7     -9.6377588 -0.907600E-07  0.128E-03    2.97      34.9  T
   8     -9.6377588 -0.249792E-08  0.263E-04    2.97     170.3  T
   9     -9.6377588 -0.392752E-11  0.101E-04    2.97     443.3  T
     SCC iter.                  ...        0 min,  0.001 sec
     gradient                   ...        0 min,  0.001 sec
 * total energy  :    -9.5178861 Eh     change       -0.3937900E-03 Eh
   gradient norm :     0.0084962 Eh/α   predicted    -0.3137212E-03 ( -20.33%)
   displ. norm   :     0.0328876 α      lambda       -0.1777842E-03
   maximum displ.:     0.0158325 α      in ANC's #3, #4, #5, ...

........................................................................
.............................. CYCLE    7 ..............................
........................................................................
   1     -9.6382980 -0.963830E+01  0.133E-01    3.01       0.0  T
   2     -9.6382984 -0.441513E-06  0.824E-02    3.00       1.0  T
   3     -9.6382775  0.209457E-04  0.624E-02    3.01       1.0  T
   4     -9.6383001 -0.226625E-04  0.187E-02    3.00       2.4  T
   5     -9.6383023 -0.219534E-05  0.693E-03    3.00       6.4  T
   6     -9.6383025 -0.155374E-06  0.333E-03    3.00      13.4  T
   7     -9.6383025 -0.297153E-07  0.654E-04    3.00      68.4  T
   8     -9.6383025 -0.342897E-09  0.150E-04    3.00     299.1  T
     SCC iter.                  ...        0 min,  0.001 sec
     gradient                   ...        0 min,  0.001 sec
 * total energy  :    -9.5180114 Eh     change       -0.1252904E-03 Eh
   gradient norm :     0.0059566 Eh/α   predicted    -0.8898875E-04 ( -28.97%)
   displ. norm   :     0.0247238 α      lambda       -0.9300043E-04
   maximum displ.:     0.0132459 α      in ANC's #5, #2, #1, ...

........................................................................
.............................. CYCLE    8 ..............................
........................................................................
   1     -9.6386985 -0.963870E+01  0.130E-01    3.05       0.0  T
   2     -9.6386988 -0.270741E-06  0.770E-02    3.04       1.0  T
   3     -9.6386813  0.175602E-04  0.547E-02    3.05       1.0  T
   4     -9.6387002 -0.189090E-04  0.135E-02    3.05       3.3  T
   5     -9.6387012 -0.107372E-05  0.555E-03    3.04       8.1  T
   6     -9.6387013 -0.984627E-07  0.273E-03    3.04      16.4  T
   7     -9.6387014 -0.195981E-07  0.462E-04    3.04      96.8  T
   8     -9.6387014 -0.212157E-09  0.141E-04    3.04     317.8  T
     SCC iter.                  ...        0 min,  0.001 sec
     gradient                   ...        0 min,  0.001 sec
 * total energy  :    -9.5180680 Eh     change       -0.5656394E-04 Eh
   gradient norm :     0.0032489 Eh/α   predicted    -0.4652933E-04 ( -17.74%)
   displ. norm   :     0.0077184 α      lambda       -0.1747410E-04
   maximum displ.:     0.0037742 α      in ANC's #5, #2, #7, ...

........................................................................
.............................. CYCLE    9 ..............................
........................................................................
   1     -9.6387971 -0.963880E+01  0.588E-02    3.06       0.0  T
   2     -9.6387961  0.962671E-06  0.360E-02    3.06       1.2  T
   3     -9.6387853  0.108430E-04  0.422E-02    3.06       1.1  T
   4     -9.6387979 -0.125926E-04  0.344E-03    3.06      13.0  T
   5     -9.6387979 -0.467976E-07  0.181E-03    3.06      24.8  T
   6     -9.6387979 -0.565801E-08  0.844E-04    3.06      53.0  T
   7     -9.6387979 -0.230355E-08  0.148E-04    3.06     303.2  T
     SCC iter.                  ...        0 min,  0.001 sec
     gradient                   ...        0 min,  0.001 sec
 * total energy  :    -9.5180803 Eh     change       -0.1237675E-04 Eh
   gradient norm :     0.0021482 Eh/α   predicted    -0.8737012E-05 ( -29.41%)
   displ. norm   :     0.0063485 α      lambda       -0.1158380E-04
   maximum displ.:     0.0044816 α      in ANC's #7, #4, #8, ...

........................................................................
.............................. CYCLE   10 ..............................
........................................................................
   1     -9.6388348 -0.963883E+01  0.551E-02    3.07       0.0  T
   2     -9.6388327  0.205273E-05  0.378E-02    3.07       1.2  T
   3     -9.6388297  0.302721E-05  0.348E-02    3.07       1.3  T
   4     -9.6388363 -0.661619E-05  0.910E-03    3.07       4.9  T
   5     -9.6388369 -0.546753E-06  0.166E-03    3.07      26.9  T
   6     -9.6388369 -0.988695E-09  0.730E-04    3.07      61.3  T
   7     -9.6388369 -0.129163E-08  0.128E-04    3.07     348.5  T
     SCC iter.                  ...        0 min,  0.001 sec
     gradient                   ...        0 min,  0.001 sec
 * total energy  :    -9.5180879 Eh     change       -0.7580203E-05 Eh
   gradient norm :     0.0013154 Eh/α   predicted    -0.5791533E-05 ( -23.60%)
   displ. norm   :     0.0063950 α      lambda       -0.4053441E-05
   maximum displ.:     0.0045495 α      in ANC's #7, #2, #4, ...

........................................................................
.............................. CYCLE   11 ..............................
........................................................................
   1     -9.6387937 -0.963879E+01  0.436E-02    3.07       0.0  T
   2     -9.6387920  0.178475E-05  0.321E-02    3.07       1.4  T
   3     -9.6387931 -0.115388E-05  0.241E-02    3.07       1.9  T
   4     -9.6387953 -0.215726E-05  0.104E-02    3.07       4.3  T
   5     -9.6387960 -0.711341E-06  0.148E-03    3.07      30.2  T
   6     -9.6387960  0.278144E-09  0.747E-04    3.07      59.9  T
   7     -9.6387960 -0.136284E-08  0.105E-04    3.07     425.9  T
     SCC iter.                  ...        0 min,  0.001 sec
     gradient                   ...        0 min,  0.001 sec
 * total energy  :    -9.5180908 Eh     change       -0.2894440E-05 Eh
   gradient norm :     0.0005840 Eh/α   predicted    -0.2025450E-05 ( -30.02%)
   displ. norm   :     0.0023613 α      lambda       -0.5935714E-06
   maximum displ.:     0.0015360 α      in ANC's #2, #4, #3, ...

   *** GEOMETRY OPTIMIZATION CONVERGED AFTER 11 ITERATIONS ***

------------------------------------------------------------------------
 total energy gain   :        -0.0591426 Eh      -37.1126 kcal/mol
 total RMSD          :         0.4407741 a0        0.2332 Å
 total power (kW/mol):       -14.1162709 (step)-5017.0802 (real)
------------------------------------------------------------------------

 ANCopt (total)                0 d,  0 h,  0 min,  0.031 sec
 optimizer setup                ...        0 min,  0.000 sec (  0.200%)
 model hessian                  ...        0 min,  0.000 sec (  0.285%)
 ANC generation                 ...        0 min,  0.000 sec (  0.155%)
 coordinate transformation      ...        0 min,  0.000 sec (  0.074%)
 single point calculation       ...        0 min,  0.030 sec ( 96.408%)
 optimization log               ...        0 min,  0.000 sec (  0.906%)
 hessian update                 ...        0 min,  0.000 sec (  0.079%)
 rational function              ...        0 min,  0.000 sec (  0.856%)

================
 final structure:
================
5
 xtb: 6.2.2 (9d81278992624c895f80dd42a50cac0aa55982e2)
N        -1.06642300400402   -0.44004467127136   -0.18172397568336
C        -0.02590670374650    0.45738884281233   -0.14631340012848
C         1.14685186366498   -0.47219650114989   -0.19102300386077
C         0.02476578356464   -1.03680012192387    0.38826527874935
H        -0.07928793947911    1.49165245153278    0.13079410092326

 Bond Distances (Angstroems)
 ---------------------------
N1-C2=1.3745         N1-C4=1.3681         C2-N1=1.3745         C2-C3=1.4972         C2-C4=1.5877         C2-H5=1.0721         
C3-C2=1.4972         C3-C4=1.3833         C4-N1=1.3681         C4-C2=1.5877         C4-C3=1.3833         H5-C2=1.0721         
 C  H  Rav=1.0721 sigma=0.0000  Rmin=1.0721  Rmax=1.0721     1
 C  C  Rav=1.4894 sigma=0.0837  Rmin=1.3833  Rmax=1.5877     3
 N  C  Rav=1.3713 sigma=0.0032  Rmin=1.3681  Rmax=1.3745     2

 selected bond angles (degree)
 --------------------
C4-N1-C2= 70.75                C3-C2-N1=100.77                C4-C2-N1= 54.44                C4-C2-C3= 53.18                
H5-C2-N1=126.79                H5-C2-C3=130.22                H5-C2-C4=145.33                C4-C3-C2= 66.77                
C2-C4-N1= 54.81                C3-C4-N1=107.13                C3-C4-C2= 60.05                

 selected dihedral angles (degree)
 ---------------------------------
C3-C2-N1-C4= 27.65            H5-C2-N1-C4=223.30            C4-C3-C2-N1=331.87            C4-C3-C2-H5=135.43            
C3-C4-N1-C2=328.92            N1-C4-C2-C3=214.71            N1-C4-C2-H5=105.10            C3-C4-C2-N1=145.29            
C3-C4-C2-H5=250.39            N1-C4-C3-C2= 29.14            
           -------------------------------------------------
          |                Final Singlepoint                |
           -------------------------------------------------

          ...................................................
          :                      SETUP                      :
          :.................................................:
          :  # basis functions                  17          :
          :  # atomic orbitals                  17          :
          :  # shells                            9          :
          :  # electrons                        18          :
          :  max. iterations                   250          :
          :  Hamiltonian                  GFN2-xTB          :
          :  restarted?                      false          :
          :  GBSA solvation                  false          :
          :  PC potential                    false          :
          :  electronic temp.          300.0000000     K    :
          :  accuracy                    1.0000000          :
          :  -> integral cutoff          0.2500000E+02      :
          :  -> integral neglect         0.1000000E-07      :
          :  -> SCF convergence          0.1000000E-05 Eh   :
          :  -> wf. convergence          0.1000000E-03 e    :
          :  Broyden damping             0.4000000          :
          ...................................................

 iter      E             dE          RMSdq      gap      omega  full diag
   1     -9.6387960 -0.963880E+01  0.241E-05    3.07       0.0  T
   2     -9.6387960  0.612843E-12  0.160E-05    3.07    2795.6  T
   3     -9.6387960  0.248690E-12  0.179E-05    3.07    2502.4  T

   *** convergence criteria satisfied after 3 iterations ***

         #    Occupation            Energy/Eh            Energy/eV
      -------------------------------------------------------------
         1        2.0000           -0.7422130             -20.1966
       ...           ...                  ...                  ...
         4        2.0000           -0.5760032             -15.6738
         5        2.0000           -0.5394007             -14.6778
         6        2.0000           -0.5232280             -14.2378
         7        2.0000           -0.4898159             -13.3286
         8        2.0000           -0.4290181             -11.6742
         9        1.0000           -0.4071039             -11.0779
        10        1.0000           -0.3773534             -10.2683 (HOMO)
        11                         -0.2646625              -7.2018 (LUMO)
        12                         -0.2514707              -6.8429
        13                          0.0154682               0.4209
        14                          0.0909962               2.4761
        15                          0.2147193               5.8428
       ...                                ...                  ...
        17                          0.3800911              10.3428
      -------------------------------------------------------------
                  HL-Gap            0.1126909 Eh            3.0665 eV
             Fermi-level           -0.3695345 Eh          -10.0555 eV

 transition dipole moment (au) for excitation:           9          10
     X       Y       Z   
  -0.3388   0.2026  -0.1850  total (au/Debye):    0.436   1.108
 dE (eV)             :    0.810
 oscillator strength :  0.53304E-02

 SCC (total)                   0 d,  0 h,  0 min,  0.003 sec
 SCC setup                      ...        0 min,  0.000 sec (  2.002%)
 Dispersion                     ...        0 min,  0.000 sec (  0.418%)
 integral evaluation            ...        0 min,  0.001 sec ( 29.253%)
 zeroth order Hamiltonian       ...        0 min,  0.000 sec (  0.359%)
 iterations                     ...        0 min,  0.000 sec ( 13.780%)
 molecular gradient             ...        0 min,  0.001 sec ( 30.661%)
 printout                       ...        0 min,  0.001 sec ( 23.321%)

         :::::::::::::::::::::::::::::::::::::::::::::::::::::
         ::                     SUMMARY                     ::
         :::::::::::::::::::::::::::::::::::::::::::::::::::::
         :: total energy              -9.518090822912 Eh    ::
         :: gradient norm              0.000594671271 Eh/a0 ::
         :: HOMO-LUMO gap              3.066474250008 eV    ::
         ::.................................................::
         :: SCC energy                -9.638795981151 Eh    ::
         :: -> isotropic ES            0.004032071846 Eh    ::
         :: -> anisotropic ES          0.002975374156 Eh    ::
         :: -> anisotropic XC          0.008211585795 Eh    ::
         :: -> dispersion             -0.002015951027 Eh    ::
         :: repulsion energy           0.120705124943 Eh    ::
         :: add. restraining           0.000000000000 Eh    ::
         :::::::::::::::::::::::::::::::::::::::::::::::::::::

           ------------------------------------------------- 
          |                Numerical Hessian                |
           ------------------------------------------------- 
step length          :   0.00500
SCC accuracy         :   0.30000
Hessian scale factor :   1.00000
frozen atoms in %    :   0.00000    0
RMS gradient         :   0.00059
estimated CPU  time      0.00 min
estimated wall time      0.00 min

writing file <hessian>.

 projected vibrational frequencies (cm-1)
eigval :       -0.00    -0.00     0.00     0.00     0.00     0.00
eigval :      563.61   628.19   684.92   830.35   897.46   981.00
eigval :     1355.92  1438.73  3127.00
           -------------------------------------------------
          |                Property Printout                |
           -------------------------------------------------

    * Orbital Energies and Occupations

         #    Occupation            Energy/Eh            Energy/eV
      -------------------------------------------------------------
         1        2.0000           -0.7422130             -20.1966
         2        2.0000           -0.6525524             -17.7569
         3        2.0000           -0.6330399             -17.2259
         4        2.0000           -0.5760032             -15.6738
         5        2.0000           -0.5394007             -14.6778
         6        2.0000           -0.5232280             -14.2378
         7        2.0000           -0.4898160             -13.3286
         8        2.0000           -0.4290181             -11.6742
         9        1.0000           -0.4071039             -11.0779
        10        1.0000           -0.3773533             -10.2683 (HOMO)
        11                         -0.2646625              -7.2018 (LUMO)
        12                         -0.2514707              -6.8429
        13                          0.0154682               0.4209
        14                          0.0909962               2.4761
        15                          0.2147193               5.8428
        16                          0.3071239               8.3573
        17                          0.3800911              10.3428
      -------------------------------------------------------------
                  HL-Gap            0.1126908 Eh            3.0665 eV
             Fermi-level           -0.3695344 Eh          -10.0555 eV

     #   Z        covCN         q      C6AA      α(0)
     1   7 N      1.886    -0.196    26.082     7.571
     2   6 C      3.780     0.146    18.247     6.085
     3   6 C      2.024    -0.142    35.026     9.558
     4   6 C      2.857     0.106    25.649     8.301
     5   1 H      0.926     0.086     1.917     2.165

 Mol. C6AA /au·bohr⁶  :        471.675224
 Mol. C8AA /au·bohr⁸  :      12253.807436
 Mol. α(0) /au        :         33.680772


Wiberg/Mayer (AO) data.
largest (>0.10) Wiberg bond orders for each atom
          total WBO             WBO to atom ...
     1  N   2.523        C    2 1.171    C    4 1.147    C    3 0.204
     2  C   3.577        N    1 1.171    C    3 0.951    H    5 0.938    C    4 0.518
     3  C   2.501        C    4 1.344    C    2 0.951    N    1 0.204
     4  C   3.037        C    3 1.344    N    1 1.147    C    2 0.518
     5  H   0.971        C    2 0.938

MOs/occ written to file <molden.input>


molecular dipole:
                 x           y           z       tot (Debye)
 q only:        0.072       0.451       0.177
   full:       -0.123       0.794       0.469       2.365
molecular quadrupole (traceless):
                xx          xy          yy          xz          yz          zz
 q only:       -1.955      -0.159       1.667      -0.033      -0.344       0.287
  q+dip:       -4.147       0.406       2.984      -0.092      -0.303       1.164
   full:       -5.157       0.396       2.917       0.242      -0.167       2.241

           -------------------------------------------------
          |                Geometry Summary                 |
           -------------------------------------------------

      molecular mass/u    :       51.0468517
   center of mass at/Å    :       -0.0246098      -0.3387213      -0.0352969
  moments of inertia/u·Å² :        0.2005650E+02   0.3373374E+02   0.4988895E+02
rotational constants/cm⁻¹ :        0.8405073E+00   0.4997262E+00   0.3379031E+00

 * 3 selected distances

     #   Z        #   Z                                     value/Å
     1   7 N      2   6 C                                 1.3745236 (max)
     1   7 N      4   6 C                                 1.3681001
Molecule has no symmetry elements
It seems to be the C1 point group
     2   6 C      5   1 H                                 1.0720724 (min)

 * 2 distinct bonds (by element types)

   Z      Z             #   av. dist./Å        max./Å        min./Å
   1 H    6 C           1     1.0720724     1.0720724     1.0720724
   6 C    7 N           2     1.3713118     1.3745236     1.3681001

           -------------------------------------------------
          |               Frequency Printout                |
           -------------------------------------------------
 projected vibrational frequencies (cm-1)
eigval :       -0.00    -0.00     0.00     0.00     0.00     0.00
eigval :      563.61   628.19   684.92   830.35   897.46   981.00
eigval :     1355.92  1438.73  3127.00
 reduced masses (amu)
   1: 12.47   2: 12.45   3: 12.55   4: 11.98   5: 12.52   6: 10.03   7: 12.49   8: 12.23
   9:  6.85  10:  9.16  11:  7.49  12:  6.42  13: 12.19  14: 12.44  15:  1.89
 IR intensities (amu)
   1:  0.10   2:  0.18   3:  0.10   4:  0.10   5:  0.02   6:  0.17   7:  0.48   8:  0.52
   9:  0.16  10:  0.23  11:  0.47  12:  0.28  13:  1.08  14:  0.35  15:  0.04
 Raman intensities (amu)
   1:  0.00   2:  0.00   3:  0.00   4:  0.00   5:  0.00   6:  0.00   7:  0.00   8:  0.00
   9:  0.00  10:  0.00  11:  0.00  12:  0.00  13:  0.00  14:  0.00  15:  0.00
 output can be read by thermo (or use thermo option).
 writing <g98.out> molden fake output.
 recommended (thermochemical) frequency scaling factor: 1.0
           -------------------------------------------------
          |             Thermodynamic Functions             |
           -------------------------------------------------

c1  symmetry found (for desy threshold:  0.10E+00) used in thermo

          ...................................................
          :                      SETUP                      :
          :.................................................:
          :  # frequencies                           9      :
          :  # imaginary freq.                       0      :
          :  linear?                             false      :
          :  only rotor calc.                    false      :
          :  symmetry                               c1      :
          :  rotational number                       1      :
          :  scaling factor                  1.0000000      :
          :  rotor cutoff                   50.0000000 cm⁻¹ :
          :  imag. cutoff                  -20.0000000 cm⁻¹ :
          :.................................................:

    mode    ω/cm⁻¹     T·S(HO)/kcal·mol⁻¹    T·S(FR)/kcal·mol⁻¹   T·S(vib)
   ------------------------------------------------------------------------
   ------------------------------------------------------------------------

   temp. (K)  partition function   enthalpy   heat capacity  entropy
                                   cal/mol     cal/K/mol   cal/K/mol   J/K/mol
 298.15  VIB   1.22                  391.940      4.661      1.708
         ROT  0.140E+05              888.752      2.981     21.958
         INT  0.171E+05             1280.692      7.642     23.666
         TR   0.353E+27             1481.254      4.968     37.697
         TOT                        2761.9462    12.6098    61.3621   256.7392

   temp. (K)  partition function   enthalpy   heat capacity  entropy
                                   cal/mol     cal/K/mol   cal/K/mol   J/K/mol
 120.00  VIB   1.00                    3.558      0.219      0.034
         ROT  0.358E+04              357.707      2.981     19.245
         INT  0.359E+04              361.265      3.200     19.279
         TR   0.901E+26              596.178      4.968     33.177
         TOT                         957.4433     8.1680    52.4558   219.4752

   temp. (K)  partition function   enthalpy   heat capacity  entropy
                                   cal/mol     cal/K/mol   cal/K/mol   J/K/mol
 100.00  VIB   1.00                    0.825      0.072      0.009
         ROT  0.273E+04              298.089      2.981     18.701
         INT  0.273E+04              298.914      3.053     18.711
         TR   0.685E+26              496.815      4.968     32.272
         TOT                         795.7289     8.0207    50.9824   213.3105

   temp. (K)  partition function   enthalpy   heat capacity  entropy
                                   cal/mol     cal/K/mol   cal/K/mol   J/K/mol
  80.00  VIB   1.00                    0.096      0.013      0.001
         ROT  0.195E+04              238.471      2.981     18.036
         INT  0.195E+04              238.567      2.994     18.037
         TR   0.490E+26              397.452      4.968     31.164
         TOT                         636.0191     7.9618    49.2013   205.8581

   temp. (K)  partition function   enthalpy   heat capacity  entropy
                                   cal/mol     cal/K/mol   cal/K/mol   J/K/mol
  60.00  VIB   1.00                    0.003      0.001     -0.000
         ROT  0.127E+04              178.853      2.981     17.179
         INT  0.127E+04              178.856      2.982     17.179
         TR   0.319E+26              298.089      4.968     29.735
         TOT                         476.9452     7.9497    46.9139   196.2876

   temp. (K)  partition function   enthalpy   heat capacity  entropy
                                   cal/mol     cal/K/mol   cal/K/mol   J/K/mol
  40.00  VIB   1.00                    0.000      0.000     -0.000
         ROT   690.                  119.236      2.981     15.970
         INT   690.                  119.236      2.981     15.970
         TR   0.173E+26              198.726      4.968     27.722
         TOT                         317.9616     7.9490    43.6917   182.8060

   temp. (K)  partition function   enthalpy   heat capacity  entropy
                                   cal/mol     cal/K/mol   cal/K/mol   J/K/mol
  20.00  VIB   1.00                    0.000      0.000     -0.000
         ROT   244.                   59.618      2.981     13.904
         INT   244.                   59.618      2.981     13.904
         TR   0.613E+25               99.363      4.968     24.280
         TOT                         158.9808     7.9490    38.1834   159.7593

   temp. (K)  partition function   enthalpy   heat capacity  entropy
                                   cal/mol     cal/K/mol   cal/K/mol   J/K/mol
  10.00  VIB   1.00                    0.000      0.000     -0.000
         ROT   86.2                   29.809      2.981     11.838
         INT   86.2                   29.809      2.981     11.837
         TR   0.217E+25               49.681      4.968     20.838
         TOT                          79.4904     7.9490    32.6751   136.7127

       T/K    H(0)-H(T)+PV         H(T)/Eh          T*S/Eh         G(T)/Eh
   ------------------------------------------------------------------------
    298.15    0.440144E-02    0.283386E-01    0.291551E-01   -0.816549E-03
    120.00    0.152578E-02    0.254629E-01    0.100312E-01    0.154317E-01
    100.00    0.126807E-02    0.252052E-01    0.812457E-02    0.170806E-01
     80.00    0.101356E-02    0.249507E-01    0.627258E-02    0.186781E-01
     60.00    0.760061E-03    0.246972E-01    0.448572E-02    0.202115E-01
     40.00    0.506704E-03    0.244438E-01    0.278508E-02    0.216588E-01
     20.00    0.253352E-03    0.241905E-01    0.121698E-02    0.229735E-01
     10.00    0.126676E-03    0.240638E-01    0.520711E-03    0.235431E-01 (used)
   ------------------------------------------------------------------------

         :::::::::::::::::::::::::::::::::::::::::::::::::::::
         ::                  THERMODYNAMIC                  ::
         :::::::::::::::::::::::::::::::::::::::::::::::::::::
         :: total free energy          -9.494547715708 Eh   ::
         ::.................................................::
         :: total energy               -9.518090822992 Eh   ::
         :: zero point energy           0.023937142270 Eh   ::
         :: G(RRHO) w/o ZPVE           -0.000394034986 Eh   ::
         :: G(RRHO) contrib.            0.023543107284 Eh   ::
         :::::::::::::::::::::::::::::::::::::::::::::::::::::

optimized geometry written to: xtbopt.xyz


           -------------------------------------------------
          | TOTAL ENERGY               -9.518090822992 Eh   |
          | TOTAL ENTHALPY             -9.494027004706 Eh   |
          | TOTAL FREE ENERGY          -9.494547715708 Eh   |
          | GRADIENT NORM               0.000594672427 Eh/α |
          | HOMO-LUMO GAP               3.066473755670 eV   |
           -------------------------------------------------

------------------------------------------------------------------------
 * finished run on 2020/05/12 at 11:45:02.122     
------------------------------------------------------------------------
 total:
 * wall-time:     0 d,  0 h,  0 min,  0.131 sec
 *  cpu-time:     0 d,  0 h,  0 min,  0.131 sec
 * ratio c/w:     0.999 speedup
 SCF:
 * wall-time:     0 d,  0 h,  0 min,  0.004 sec
 *  cpu-time:     0 d,  0 h,  0 min,  0.004 sec
 * ratio c/w:     1.000 speedup
 ANC optimizer:
 * wall-time:     0 d,  0 h,  0 min,  0.035 sec
 *  cpu-time:     0 d,  0 h,  0 min,  0.035 sec
 * ratio c/w:     0.999 speedup
 numerical hessian:
 * wall-time:     0 d,  0 h,  0 min,  0.077 sec
 *  cpu-time:     0 d,  0 h,  0 min,  0.077 sec
 * ratio c/w:     0.999 speedup

