[Molden Format]
[Title]
[Atoms] AU
N      1     7 -0.20152527763319E+01 -0.83155388168364E+00 -0.34340002656315E+00
C      2     6 -0.48953009805912E-01  0.86433933893940E+00 -0.27649356661706E+00
C      3     6  0.21672297944780E+01 -0.89233395902075E+00 -0.36098713498981E+00
C      4     6  0.46792846319156E-01 -0.19592670590905E+01  0.73371822866138E+00
H      5     1 -0.14981685466590E+00  0.28188155608522E+01  0.24716060978268E+00
[GTO]
           1 0
 s           4   1.0000000000000000     
   63.594024466941008      -0.19234388414721629     
   10.951417231523665      -0.23478107924953728     
  0.87999310257376984       0.37593753901700888     
  0.33538715296521110       0.14982889271862770     
 p           4   1.0000000000000000     
   7.2965040481495080       0.97658666315667420     
   1.8918745450712575       0.90372226730345739     
  0.66694432110824120       0.47404958461536373     
  0.26552202674130870        7.1516067715011844E-002

           2 0
 s           4   1.0000000000000000     
   51.049363095579913      -0.16312063210127389     
   8.7911227406887544      -0.19911024581000730     
  0.70640422258929825       0.31882047753655751     
  0.26922813413411617       0.12706504184240380     
 p           4   1.0000000000000000     
   5.8263656140800002       0.73716451545209605     
   1.5106896018720002       0.68216371614850257     
  0.53256483288000001       0.35783053929253711     
  0.21202323690600003        5.3983030275847881E-002

           3 0
 s           4   1.0000000000000000     
   51.049363095579913      -0.16312063210127389     
   8.7911227406887544      -0.19911024581000730     
  0.70640422258929825       0.31882047753655751     
  0.26922813413411617       0.12706504184240380     
 p           4   1.0000000000000000     
   5.8263656140800002       0.73716451545209605     
   1.5106896018720002       0.68216371614850257     
  0.53256483288000001       0.35783053929253711     
  0.21202323690600003        5.3983030275847881E-002

           4 0
 s           4   1.0000000000000000     
   51.049363095579913      -0.16312063210127389     
   8.7911227406887544      -0.19911024581000730     
  0.70640422258929825       0.31882047753655751     
  0.26922813413411617       0.12706504184240380     
 p           4   1.0000000000000000     
   5.8263656140800002       0.73716451545209605     
   1.5106896018720002       0.68216371614850257     
  0.53256483288000001       0.35783053929253711     
  0.21202323690600003        5.3983030275847881E-002

           5 0
 s           3   1.0000000000000000     
   3.3702276975336001       0.27359110588908298     
  0.61389118221497996       0.26460540653860526     
  0.16614291148415999        8.2465947534082318E-002

[MO]
Sym=     1a
Ene=  -0.74221302698864766     
Spin= Alpha
Occup=     2.00000000
           1 -0.29507608758958426     
           2 -0.21002620773457634     
           3  -3.6525936363456746E-002
           4  -4.8016585283255940E-002
           5 -0.34312550009472703     
           6   2.6450475065659451E-002
           7  0.17327716462493525     
           8  -3.0045294596458286E-002
           9 -0.21214660894068857     
          10  0.10590846764718631     
          11  -1.3714731128919242E-002
          12  -2.1452630982847058E-002
          13 -0.32108567490043266     
          14   2.4071460105327638E-002
          15 -0.14758745510379584     
          16   8.4768284841633096E-002
          17  -4.3245243078072482E-002
Sym=     2a
Ene=  -0.65255240269111581     
Spin= Alpha
Occup=     2.00000000
           1  0.42868468555046146     
           2   4.3189699051331638E-002
           3   7.3646623002324621E-002
           4   6.6316950837558689E-002
           5   3.8995527982562768E-003
           6 -0.33944323203284132     
           7   1.9839911982122555E-002
           8   1.2184132786110826E-004
           9 -0.45651983357240905     
          10   6.7463175814118204E-002
          11  -3.4090187746494624E-003
          12  -5.0501027802620488E-002
          13 -0.11016535543482878     
          14 -0.31813592003656954     
          15  -2.8724422769077832E-004
          16   2.1571438159310608E-002
          17   1.2746441290599222E-002
Sym=     3a
Ene=  -0.63303990198337923     
Spin= Alpha
Occup=     2.00000000
           1  0.11550624728548370     
           2   4.0300055021394152E-002
           3 -0.27482114191565687     
           4   5.6203915154446553E-002
           5 -0.46480043690238476     
           6   1.2817947830332270E-002
           7 -0.26119970077934118     
           8   1.1185578286372056E-003
           9   6.4726798534644418E-003
          10  -1.5153511712700959E-002
          11 -0.14044709980429215     
          12   1.8140613903026979E-002
          13  0.31140851942918973     
          14  -7.9176530590037680E-002
          15  -9.4417682441895717E-002
          16  -5.2269235010685755E-002
          17 -0.34509858117018738     
Sym=     4a
Ene=  -0.57600321601328763     
Spin= Alpha
Occup=     2.00000000
           1 -0.13594728984622245     
           2  -5.6821305563468129E-002
           3 -0.13339236312938210     
           4  0.42693482311001568     
           5  -3.3812188367533476E-002
           6   6.6743732931864946E-002
           7  0.16596351814502067     
           8  0.42296242112749288     
           9 -0.11741854789736625     
          10   1.7104280106351743E-002
          11  -3.3845890684579441E-003
          12  0.19676030244059098     
          13  0.32308378030337143     
          14  -9.4361387859313320E-002
          15   2.5289230429472651E-002
          16  0.30087621700840866     
          17  0.18192475510956144     
Sym=     5a
Ene=  -0.53940068072435754     
Spin= Alpha
Occup=     2.00000000
           1   6.2802334234051849E-002
           2   3.8498638356241698E-002
           3 -0.51731861182732108     
           4  -6.4860164313085278E-002
           5   9.2812610757898331E-002
           6  0.31332854347661249     
           7  0.21963585681176359     
           8 -0.16584647183512410     
           9  -2.7174136172511524E-002
          10  -3.2112625532072538E-002
          11  0.15565295089553868     
          12 -0.18459826087880360     
          13   7.0183914993240587E-002
          14 -0.31099958892053553     
          15 -0.19074267655544777     
          16 -0.20773709022745743     
          17  0.22507543592765128     
Sym=     6a
Ene=  -0.52322796729054122     
Spin= Alpha
Occup=     2.00000000
           1   9.9489215856910521E-002
           2  -5.8906999852965089E-002
           3   1.4307901769844464E-002
           4 -0.17939467793098593     
           5  -2.1956931721272284E-002
           6 -0.27563131839008559     
           7  0.26808895882511591     
           8  -9.2262272125674449E-002
           9   4.4319970881850919E-002
          10  -1.1675901352111761E-003
          11 -0.41675244397554556     
          12   6.3338114329906117E-002
          13  0.36046353547556181     
          14  0.21921524241495374     
          15 -0.38373002808414647     
          16  -8.2650135703545333E-002
          17  0.25619816238325660     
Sym=     7a
Ene=  -0.48981595173047271     
Spin= Alpha
Occup=     2.00000000
           1  0.60390426677868769     
           2 -0.54364152649155784     
           3  -3.3004714934738340E-002
           4   7.1633071669534643E-002
           5  -9.4612015900788965E-002
           6   8.0397427422097115E-002
           7   5.0965051499189395E-002
           8   7.3669672612256945E-002
           9  0.47343792556301806     
          10  0.27410942733052029     
          11   5.8636830589550312E-002
          12   1.7187395995218496E-002
          13 -0.13806957652690163     
          14   3.0224730907169213E-002
          15   3.0293223872823054E-002
          16   4.8272601657605274E-002
          17   1.4097613643375195E-002
Sym=     8a
Ene=  -0.42901806220803290     
Spin= Alpha
Occup=     1.99999020
           1  0.26085361193557871     
           2 -0.30056510131686254     
           3  -9.4292575908573803E-002
           4 -0.42134171900652773     
           5   5.6148579945005876E-002
           6  0.19283698527039494     
           7  -4.0020059131238642E-002
           8  -3.2065009971736128E-002
           9 -0.44670315107622416     
          10 -0.40519632833412900     
          11  0.18106374009081236     
          12  0.37612242584062805     
          13  0.10379559011344439     
          14  0.17767517319850124     
          15   3.2753916288021184E-002
          16  0.18781013318483633     
          17  -4.0701530783150926E-002
Sym=     9a
Ene=  -0.40710387886740773     
Spin= Alpha
Occup=     1.00000980
           1   4.4162333128725043E-002
           2   2.8884857219159382E-002
           3 -0.23050925329707936     
           4 -0.12205747042267151     
           5 -0.16003051794532155     
           6  -3.2353982663010573E-002
           7   3.3685515265216612E-002
           8  0.54049935678134731     
           9  -8.4455093981509202E-002
          10  -9.1406801060056483E-002
          11 -0.23792501858620577     
          12  0.10961201181145197     
          13 -0.35948769998836860     
          14  0.10336493187750549     
          15  0.30961706827902885     
          16 -0.57071962729066361     
          17  0.14974754741882076     
Sym=    10a
Ene=  -0.37735334238351703     
Spin= Alpha
Occup=     1.00000000
           1   1.9787184494824073E-002
           2 -0.40887387401328429     
           3  0.18924458309819386     
           4  0.52230777959999619     
           5   4.2246578484525364E-002
           6  0.10640583312455441     
           7  -7.7428392698270917E-003
           8  -7.9665341053629324E-002
           9 -0.17424318267191954     
          10 -0.53161230745031296     
          11 -0.15272097350160999     
          12 -0.41152775555326954     
          13  -1.6132688269711364E-002
          14  0.10882824183547907     
          15  -5.5380614407759571E-002
          16 -0.19300239288504137     
          17  -3.6817055133377213E-002
Sym=    11a
Ene=  -0.26466250544024411     
Spin= Alpha
Occup=     0.00000000
           1  -8.5532556418060988E-004
           2  -2.8054461565225959E-002
           3  0.18184507720833670     
           4 -0.47324329285948169     
           5  -1.4416513742194239E-002
           6   3.6430969619690674E-002
           7 -0.17635876793506081     
           8  0.68373229115835299     
           9   2.8996931658261397E-002
          10  -5.3965293525606334E-002
          11  0.14068316063885555     
          12 -0.60746987184949708     
          13  0.17264709134842524     
          14  -5.0615958681748584E-002
          15 -0.30571918467394960     
          16  0.19827850605888567     
          17   1.1938957724504764E-002
Sym=    12a
Ene=  -0.25147067271097667     
Spin= Alpha
Occup=     0.00000000
           1  -6.3275419836380546E-003
           2   7.0409042184572121E-003
           3  0.33225836655218566     
           4  0.20250343646434915     
           5   9.4950463566425461E-002
           6   4.2041529230992136E-002
           7  -7.6895545324185396E-002
           8  0.20042270495124029     
           9  -2.7266226060355933E-002
          10   7.5368803697437287E-002
          11  0.43739133517731787     
          12  0.41373618735462475     
          13  -5.5895172358510342E-004
          14  -2.8771814763525368E-002
          15 -0.66511703042866011     
          16 -0.54133923429601694     
          17 -0.15457960027349604     
Sym=    13a
Ene=    1.5468221547522074E-002
Spin= Alpha
Occup=     0.00000000
           1  -2.1320882608452663E-002
           2   5.1593559670207338E-002
           3   7.4536140799807762E-002
           4   2.3836287514722356E-002
           5 -0.93600671021063075     
           6 -0.45272864179716188     
           7   3.5559465714269732E-002
           8 -0.16997395616480079     
           9  0.19280452472316939     
          10 -0.25705123919140715     
          11  0.68047467478767798     
          12  -9.2982767403871333E-002
          13  0.25698808799094836     
          14  0.16114510736052823     
          15  0.21468092047693418     
          16 -0.11644701776341808     
          17  0.58091511149343944     
Sym=    14a
Ene=    9.0996181330362927E-002
Spin= Alpha
Occup=     0.00000000
           1 -0.21346111055322736     
           2 -0.17769271867239128     
           3 -0.72562443777729391     
           4  0.12427758094027753     
           5  0.56327634855478503     
           6 -0.82080147129144487     
           7   4.3896185678635791E-002
           8  0.12042860586485420     
           9  0.10862300085170706     
          10  -8.9101202641217861E-002
          11  0.37733508320106390     
          12 -0.12644778776988047     
          13 -0.12722684171575327     
          14  0.41051917518173597     
          15 -0.12500000316387661     
          16   7.0353388358972993E-002
          17 -0.43104683654318193     
Sym=    15a
Ene=   0.21471930095322386     
Spin= Alpha
Occup=     0.00000000
           1  0.68160475141021215     
           2  0.67444392518313823     
           3 -0.21228476266548318     
           4  0.34403011359492935     
           5 -0.17244883525353302     
           6  0.30590465386841109     
           7 -0.21812841241812370     
           8   2.3228605531341762E-002
           9 -0.21001140963738119     
          10   4.5494681982730607E-002
          11   2.2422771211597945E-002
          12 -0.14116282821276410     
          13 -0.51043245710075225     
          14  0.77714134726781903     
          15 -0.38747482333623745     
          16  0.33135434375165612     
          17  0.28397849400100061     
Sym=    16a
Ene=   0.30712391487085988     
Spin= Alpha
Occup=     0.00000000
           1 -0.36516728063917053     
           2 -0.32048652960812940     
           3 -0.22065028122246222     
           4   1.2249869846694073E-002
           5   2.8006973072169681E-002
           6 -0.19678994342583725     
           7  -1.0865629519291418     
           8 -0.10950481787756003     
           9  0.16503174104385213     
          10 -0.12316406053964310     
          11 -0.24004870017559490     
          12  0.23877815035527541     
          13 -0.42513054950160140     
          14 -0.35466869945339458     
          15 -0.34966989768127271     
          16  0.19001004241544781     
          17  0.82112487227321662     
Sym=    17a
Ene=   0.38009112257457817     
Spin= Alpha
Occup=     0.00000000
           1 -0.18989950914870754     
           2 -0.34388317411630553     
           3  -6.3209413718013377E-002
           4   4.5113699171590770E-002
           5  0.18457044486037449     
           6  0.15060141231106197     
           7 -0.50022810528768202     
           8 -0.13504045344693785     
           9 -0.77530726585077980     
          10  0.86114337397534946     
          11  0.13425286081664023     
          12 -0.27399225358216606     
          13  0.62341844910754984     
          14  0.51975195295765420     
          15  0.29721190263517683     
          16 -0.37569123432630702     
          17  0.30666813787172847     
