 Entering Gaussian System, Link 0=g16
 Initial command:
 /applis/site/cecic/gaussian16/B.01/nehalem/g16/l1.exe "/bettik/tinaccil/g16/12753597_F/Gau-86874.inp" -scrdir="/bettik/tinaccil/g16/12753597_F/"
 Entering Link 1 = /applis/site/cecic/gaussian16/B.01/nehalem/g16/l1.exe PID=     86885.
  
 Copyright (c) 1988-2017, Gaussian, Inc.  All Rights Reserved.
  
 This is part of the Gaussian(R) 16 program.  It is based on
 the Gaussian(R) 09 system (copyright 2009, Gaussian, Inc.),
 the Gaussian(R) 03 system (copyright 2003, Gaussian, Inc.),
 the Gaussian(R) 98 system (copyright 1998, Gaussian, Inc.),
 the Gaussian(R) 94 system (copyright 1995, Gaussian, Inc.),
 the Gaussian 92(TM) system (copyright 1992, Gaussian, Inc.),
 the Gaussian 90(TM) system (copyright 1990, Gaussian, Inc.),
 the Gaussian 88(TM) system (copyright 1988, Gaussian, Inc.),
 the Gaussian 86(TM) system (copyright 1986, Carnegie Mellon
 University), and the Gaussian 82(TM) system (copyright 1983,
 Carnegie Mellon University). Gaussian is a federally registered
 trademark of Gaussian, Inc.
  
 This software contains proprietary and confidential information,
 including trade secrets, belonging to Gaussian, Inc.
  
 This software is provided under written license and may be
 used, copied, transmitted, or stored only in accord with that
 written license.
  
 The following legend is applicable only to US Government
 contracts under FAR:
  
                    RESTRICTED RIGHTS LEGEND
  
 Use, reproduction and disclosure by the US Government is
 subject to restrictions as set forth in subparagraphs (a)
 and (c) of the Commercial Computer Software - Restricted
 Rights clause in FAR 52.227-19.
  
 Gaussian, Inc.
 340 Quinnipiac St., Bldg. 40, Wallingford CT 06492
  
  
 ---------------------------------------------------------------
 Warning -- This program may not be used in any manner that
 competes with the business of Gaussian, Inc. or will provide
 assistance to any competitor of Gaussian, Inc.  The licensee
 of this program is prohibited from giving any competitor of
 Gaussian, Inc. access to this program.  By using this program,
 the user acknowledges that Gaussian, Inc. is engaged in the
 business of creating and licensing software in the field of
 computational chemistry and represents and warrants to the
 licensee that it is not a competitor of Gaussian, Inc. and that
 it will not use this program in any manner prohibited above.
 ---------------------------------------------------------------
  

 Cite this work as:
 Gaussian 16, Revision B.01,
 M. J. Frisch, G. W. Trucks, H. B. Schlegel, G. E. Scuseria, 
 M. A. Robb, J. R. Cheeseman, G. Scalmani, V. Barone, 
 G. A. Petersson, H. Nakatsuji, X. Li, M. Caricato, A. V. Marenich, 
 J. Bloino, B. G. Janesko, R. Gomperts, B. Mennucci, H. P. Hratchian, 
 J. V. Ortiz, A. F. Izmaylov, J. L. Sonnenberg, D. Williams-Young, 
 F. Ding, F. Lipparini, F. Egidi, J. Goings, B. Peng, A. Petrone, 
 T. Henderson, D. Ranasinghe, V. G. Zakrzewski, J. Gao, N. Rega, 
 G. Zheng, W. Liang, M. Hada, M. Ehara, K. Toyota, R. Fukuda, 
 J. Hasegawa, M. Ishida, T. Nakajima, Y. Honda, O. Kitao, H. Nakai, 
 T. Vreven, K. Throssell, J. A. Montgomery, Jr., J. E. Peralta, 
 F. Ogliaro, M. J. Bearpark, J. J. Heyd, E. N. Brothers, K. N. Kudin, 
 V. N. Staroverov, T. A. Keith, R. Kobayashi, J. Normand, 
 K. Raghavachari, A. P. Rendell, J. C. Burant, S. S. Iyengar, 
 J. Tomasi, M. Cossi, J. M. Millam, M. Klene, C. Adamo, R. Cammi, 
 J. W. Ochterski, R. L. Martin, K. Morokuma, O. Farkas, 
 J. B. Foresman, and D. J. Fox, Gaussian, Inc., Wallingford CT, 2016.
 
 ******************************************
 Gaussian 16:  ES64L-G16RevB.01 20-Dec-2017
                 5-Oct-2020 
 ******************************************
 %nosave
 %nproc=8
 Will use up to    8 processors via shared memory.
 %mem=2gb
 %chk=input
 ----------------------
 #P CCSD(T)/aug-cc-pvtz
 ----------------------
 1/38=1,172=1/1;
 2/12=2,17=6,18=5,40=1/2;
 3/5=16,6=1,7=10,11=9,25=1,30=1/1,2,3;
 4//1;
 5/5=2,38=5/2;
 8/6=4,9=120000,10=1/1,4;
 9/5=7,14=2/13;
 6/7=2,8=2,9=2,10=2/1;
 99/5=1,9=1/99;
 Leave Link    1 at Mon Oct  5 21:20:45 2020, MaxMem=   268435456 cpu:               0.9 elap:               0.2
 (Enter /applis/site/cecic/gaussian16/B.01/nehalem/g16/l101.exe)
 -----
 Title
 -----
 Symbolic Z-matrix:
 Charge =  0 Multiplicity = 2
 F
 
 ITRead=  0
 MicOpt= -1
 NAtoms=      1 NQM=        1 NQMF=       0 NMMI=      0 NMMIF=      0
                NMic=       0 NMicF=      0.
                    Isotopes and Nuclear Properties:
 (Nuclear quadrupole moments (NQMom) in fm**2, nuclear magnetic moments (NMagM)
  in nuclear magnetons)

  Atom         1
 IAtWgt=          19
 AtmWgt=  18.9984033
 NucSpn=           1
 AtZEff=  -0.0000000
 NQMom=    0.0000000
 NMagM=    2.6288670
 AtZNuc=   9.0000000
 Leave Link  101 at Mon Oct  5 21:20:45 2020, MaxMem=   268435456 cpu:               1.8 elap:               0.3
 (Enter /applis/site/cecic/gaussian16/B.01/nehalem/g16/l202.exe)
                          Input orientation:                          
 ---------------------------------------------------------------------
 Center     Atomic      Atomic             Coordinates (Angstroms)
 Number     Number       Type             X           Y           Z
 ---------------------------------------------------------------------
      1          9           0        0.000000    0.000000    0.000000
 ---------------------------------------------------------------------
 Stoichiometry    F(2)
 Framework group  OH[O(F)]
 Deg. of freedom     0
 Full point group                 OH      NOp  48
 Largest Abelian subgroup         D2H     NOp   8
 Largest concise Abelian subgroup C1      NOp   1
                         Standard orientation:                         
 ---------------------------------------------------------------------
 Center     Atomic      Atomic             Coordinates (Angstroms)
 Number     Number       Type             X           Y           Z
 ---------------------------------------------------------------------
      1          9           0        0.000000    0.000000    0.000000
 ---------------------------------------------------------------------
 Leave Link  202 at Mon Oct  5 21:20:45 2020, MaxMem=   268435456 cpu:               0.1 elap:               0.1
 (Enter /applis/site/cecic/gaussian16/B.01/nehalem/g16/l301.exe)
 Standard basis: Aug-CC-pVTZ (5D, 7F)
 Ernie: Thresh=  0.10000D-02 Tol=  0.10000D-05 Strict=F.
 Ernie:  3 primitive shells out of 30 were deleted.
 There are    14 symmetry adapted cartesian basis functions of AG  symmetry.
 There are     3 symmetry adapted cartesian basis functions of B1G symmetry.
 There are     3 symmetry adapted cartesian basis functions of B2G symmetry.
 There are     3 symmetry adapted cartesian basis functions of B3G symmetry.
 There are     2 symmetry adapted cartesian basis functions of AU  symmetry.
 There are    10 symmetry adapted cartesian basis functions of B1U symmetry.
 There are    10 symmetry adapted cartesian basis functions of B2U symmetry.
 There are    10 symmetry adapted cartesian basis functions of B3U symmetry.
 There are    11 symmetry adapted basis functions of AG  symmetry.
 There are     3 symmetry adapted basis functions of B1G symmetry.
 There are     3 symmetry adapted basis functions of B2G symmetry.
 There are     3 symmetry adapted basis functions of B3G symmetry.
 There are     2 symmetry adapted basis functions of AU  symmetry.
 There are     8 symmetry adapted basis functions of B1U symmetry.
 There are     8 symmetry adapted basis functions of B2U symmetry.
 There are     8 symmetry adapted basis functions of B3U symmetry.
    46 basis functions,    72 primitive gaussians,    55 cartesian basis functions
     5 alpha electrons        4 beta electrons
       nuclear repulsion energy         0.0000000000 Hartrees.
 IExCor=    0 DFT=F Ex=HF Corr=None ExCW=0 ScaHFX=  1.000000
 ScaDFX=  1.000000  1.000000  1.000000  1.000000 ScalE2=  1.000000  1.000000
 IRadAn=      5 IRanWt=     -1 IRanGd=            0 ICorTp=0 IEmpDi=  4
 NAtoms=    1 NActive=    1 NUniq=    1 SFac= 1.00D+00 NAtFMM=   60 NAOKFM=F Big=F
 Integral buffers will be    131072 words long.
 Raffenetti 2 integral format.
 Two-electron integral symmetry is turned on.
 Leave Link  301 at Mon Oct  5 21:20:46 2020, MaxMem=   268435456 cpu:               0.9 elap:               0.2
 (Enter /applis/site/cecic/gaussian16/B.01/nehalem/g16/l302.exe)
 NPDir=0 NMtPBC=     1 NCelOv=     1 NCel=       1 NClECP=     1 NCelD=      1
         NCelK=      1 NCelE2=     1 NClLst=     1 CellRange=     0.0.
 One-electron integrals computed using PRISM.
 One-electron integral symmetry used in STVInt
 NBasis=    46 RedAO= T EigKep=  3.48D-02  NBF=    11     3     3     3     2     8     8     8
 NBsUse=    46 1.00D-06 EigRej= -1.00D+00 NBFU=    11     3     3     3     2     8     8     8
 Leave Link  302 at Mon Oct  5 21:20:46 2020, MaxMem=   268435456 cpu:               1.1 elap:               0.2
 (Enter /applis/site/cecic/gaussian16/B.01/nehalem/g16/l303.exe)
 DipDrv:  MaxL=1.
 Leave Link  303 at Mon Oct  5 21:20:46 2020, MaxMem=   268435456 cpu:               0.5 elap:               0.1
 (Enter /applis/site/cecic/gaussian16/B.01/nehalem/g16/l401.exe)
 ExpMin= 7.36D-02 ExpMax= 1.95D+04 ExpMxC= 6.65D+02 IAcc=3 IRadAn=         5 AccDes= 0.00D+00
 Harris functional with IExCor=  205 and IRadAn=       5 diagonalized for initial guess.
 HarFok:  IExCor=  205 AccDes= 0.00D+00 IRadAn=         5 IDoV= 1 UseB2=F ITyADJ=14
 ICtDFT=  3500011 ScaDFX=  1.000000  1.000000  1.000000  1.000000
 FoFCou: FMM=F IPFlag=           0 FMFlag=      100000 FMFlg1=           0
         NFxFlg=           0 DoJE=T BraDBF=F KetDBF=T FulRan=T
         wScrn=  0.000000 ICntrl=       500 IOpCl=  0 I1Cent=   200000004 NGrid=           0
         NMat0=    1 NMatS0=      1 NMatT0=    0 NMatD0=    1 NMtDS0=    0 NMtDT0=    0
 Petite list used in FoFCou.
 Harris En= -99.2640832422455    
 JPrj=0 DoOrth=F DoCkMO=F.
 Initial guess orbital symmetries:
 Alpha Orbitals:
       Occupied  (A1G) (A1G) (T1U) (T1U) (T1U)
       Virtual   (A1G) (T1U) (T1U) (T1U) (T2G) (T2G) (T2G) (EG)
                 (EG) (T1U) (T1U) (T1U) (A1G) (T2G) (T2G) (T2G)
                 (EG) (EG) (T2U) (T2U) (T2U) (A2U) (T1U) (T1U)
                 (T1U) (T1U) (T1U) (T1U) (T2U) (T2U) (T2U) (A2U)
                 (T1U) (T1U) (T1U) (T2G) (T2G) (T2G) (EG) (EG)
                 (A1G)
 Beta  Orbitals:
       Occupied  (A1G) (A1G) (T1U) (T1U)
       Virtual   (T1U) (A1G) (T1U) (T1U) (T1U) (T2G) (T2G) (T2G)
                 (EG) (EG) (T1U) (T1U) (T1U) (A1G) (T2G) (T2G)
                 (T2G) (EG) (EG) (T2U) (T2U) (T2U) (A2U) (T1U)
                 (T1U) (T1U) (T1U) (T1U) (T1U) (T2U) (T2U) (T2U)
                 (A2U) (T1U) (T1U) (T1U) (T2G) (T2G) (T2G) (EG)
                 (EG) (A1G)
 Initial guess <Sx>= 0.0000 <Sy>= 0.0000 <Sz>= 0.5000 <S**2>= 0.7500 S= 0.5000
 Leave Link  401 at Mon Oct  5 21:20:46 2020, MaxMem=   268435456 cpu:               1.7 elap:               0.3
 (Enter /applis/site/cecic/gaussian16/B.01/nehalem/g16/l502.exe)
 Keep R1 and R2 ints in memory in symmetry-blocked form, NReq=4488473.
 FoFCou: FMM=F IPFlag=           0 FMFlag=           0 FMFlg1=           0
         NFxFlg=           0 DoJE=F BraDBF=F KetDBF=F FulRan=T
         wScrn=  0.000000 ICntrl=       600 IOpCl=  0 I1Cent=           0 NGrid=           0
         NMat0=    1 NMatS0=   1081 NMatT0=    0 NMatD0=    1 NMtDS0=    0 NMtDT0=    0
 Petite list used in FoFCou.
 UHF open shell SCF:
 Using DIIS extrapolation, IDIIS=  1040.
 NGot=   268435456 LenX=   268267006 LenY=   268263540
 Requested convergence on RMS density matrix=1.00D-08 within 128 cycles.
 Requested convergence on MAX density matrix=1.00D-06.
 Requested convergence on             energy=1.00D-06.
 No special actions if energy rises.

 Cycle   1  Pass 1  IDiag  1:
 Density matrix breaks symmetry, PCut= 1.00D-07
 Density has only Abelian symmetry.
 E= -99.3867263516330    
 DIIS: error= 8.23D-02 at cycle   1 NSaved=   1.
 NSaved= 1 IEnMin= 1 EnMin= -99.3867263516330     IErMin= 1 ErrMin= 8.23D-02
 ErrMax= 8.23D-02  0.00D+00 EMaxC= 1.00D-01 BMatC= 3.66D-01 BMatP= 3.66D-01
 IDIUse=3 WtCom= 1.77D-01 WtEn= 8.23D-01
 Coeff-Com:  0.100D+01
 Coeff-En:   0.100D+01
 Coeff:      0.100D+01
 Gap=     0.956 Goal=   None    Shift=    0.000
 Gap=     0.769 Goal=   None    Shift=    0.000
 GapD=    0.769 DampG=2.000 DampE=0.500 DampFc=1.0000 IDamp=-1.
 RMSDP=1.74D-03 MaxDP=3.41D-02              OVMax= 5.11D-02

 Cycle   2  Pass 1  IDiag  1:
 Density matrix breaks symmetry, PCut= 1.00D-07
 Density has only Abelian symmetry.
 E= -99.4055256516260     Delta-E=       -0.018799299993 Rises=F Damp=F
 DIIS: error= 1.05D-02 at cycle   2 NSaved=   2.
 NSaved= 2 IEnMin= 2 EnMin= -99.4055256516260     IErMin= 2 ErrMin= 1.05D-02
 ErrMax= 1.05D-02  0.00D+00 EMaxC= 1.00D-01 BMatC= 9.21D-03 BMatP= 3.66D-01
 IDIUse=3 WtCom= 8.95D-01 WtEn= 1.05D-01
 Coeff-Com: -0.341D-01 0.103D+01
 Coeff-En:   0.000D+00 0.100D+01
 Coeff:     -0.305D-01 0.103D+01
 Gap=     0.906 Goal=   None    Shift=    0.000
 Gap=     0.718 Goal=   None    Shift=    0.000
 RMSDP=4.29D-04 MaxDP=6.89D-03 DE=-1.88D-02 OVMax= 1.15D-02

 Cycle   3  Pass 1  IDiag  1:
 Density matrix breaks symmetry, PCut= 1.00D-07
 Density has only Abelian symmetry.
 E= -99.4066603361718     Delta-E=       -0.001134684546 Rises=F Damp=F
 DIIS: error= 5.40D-03 at cycle   3 NSaved=   3.
 NSaved= 3 IEnMin= 3 EnMin= -99.4066603361718     IErMin= 3 ErrMin= 5.40D-03
 ErrMax= 5.40D-03  0.00D+00 EMaxC= 1.00D-01 BMatC= 1.11D-03 BMatP= 9.21D-03
 IDIUse=3 WtCom= 9.46D-01 WtEn= 5.40D-02
 Coeff-Com: -0.274D-01 0.204D+00 0.823D+00
 Coeff-En:   0.000D+00 0.000D+00 0.100D+01
 Coeff:     -0.259D-01 0.193D+00 0.833D+00
 Gap=     0.918 Goal=   None    Shift=    0.000
 Gap=     0.719 Goal=   None    Shift=    0.000
 RMSDP=1.40D-04 MaxDP=2.62D-03 DE=-1.13D-03 OVMax= 6.09D-03

 Cycle   4  Pass 1  IDiag  1:
 Density matrix breaks symmetry, PCut= 1.00D-07
 Density has only Abelian symmetry.
 E= -99.4068402178490     Delta-E=       -0.000179881677 Rises=F Damp=F
 DIIS: error= 1.34D-03 at cycle   4 NSaved=   4.
 NSaved= 4 IEnMin= 4 EnMin= -99.4068402178490     IErMin= 4 ErrMin= 1.34D-03
 ErrMax= 1.34D-03  0.00D+00 EMaxC= 1.00D-01 BMatC= 9.20D-05 BMatP= 1.11D-03
 IDIUse=3 WtCom= 9.87D-01 WtEn= 1.34D-02
 Coeff-Com:  0.112D-01-0.138D+00-0.238D+00 0.137D+01
 Coeff-En:   0.000D+00 0.000D+00 0.000D+00 0.100D+01
 Coeff:      0.110D-01-0.136D+00-0.235D+00 0.136D+01
 Gap=     0.917 Goal=   None    Shift=    0.000
 Gap=     0.717 Goal=   None    Shift=    0.000
 RMSDP=8.50D-05 MaxDP=1.46D-03 DE=-1.80D-04 OVMax= 2.86D-03

 Cycle   5  Pass 1  IDiag  1:
 Density matrix breaks symmetry, PCut= 1.00D-07
 Density has only Abelian symmetry.
 E= -99.4068756327055     Delta-E=       -0.000035414856 Rises=F Damp=F
 DIIS: error= 3.20D-04 at cycle   5 NSaved=   5.
 NSaved= 5 IEnMin= 5 EnMin= -99.4068756327055     IErMin= 5 ErrMin= 3.20D-04
 ErrMax= 3.20D-04  0.00D+00 EMaxC= 1.00D-01 BMatC= 7.60D-06 BMatP= 9.20D-05
 IDIUse=3 WtCom= 9.97D-01 WtEn= 3.20D-03
 Coeff-Com: -0.522D-02 0.806D-01 0.832D-01-0.868D+00 0.171D+01
 Coeff-En:   0.000D+00 0.000D+00 0.000D+00 0.000D+00 0.100D+01
 Coeff:     -0.521D-02 0.804D-01 0.830D-01-0.865D+00 0.171D+01
 Gap=     0.918 Goal=   None    Shift=    0.000
 Gap=     0.716 Goal=   None    Shift=    0.000
 RMSDP=3.41D-05 MaxDP=4.61D-04 DE=-3.54D-05 OVMax= 1.01D-03

 Cycle   6  Pass 1  IDiag  1:
 Density matrix breaks symmetry, PCut= 1.00D-07
 Density has only Abelian symmetry.
 E= -99.4068792884222     Delta-E=       -0.000003655717 Rises=F Damp=F
 DIIS: error= 5.10D-05 at cycle   6 NSaved=   6.
 NSaved= 6 IEnMin= 6 EnMin= -99.4068792884222     IErMin= 6 ErrMin= 5.10D-05
 ErrMax= 5.10D-05  0.00D+00 EMaxC= 1.00D-01 BMatC= 1.61D-07 BMatP= 7.60D-06
 IDIUse=1 WtCom= 1.00D+00 WtEn= 0.00D+00
 Coeff-Com:  0.125D-02-0.215D-01-0.142D-01 0.228D+00-0.567D+00 0.137D+01
 Coeff:      0.125D-02-0.215D-01-0.142D-01 0.228D+00-0.567D+00 0.137D+01
 Gap=     0.918 Goal=   None    Shift=    0.000
 Gap=     0.716 Goal=   None    Shift=    0.000
 RMSDP=4.56D-06 MaxDP=6.72D-05 DE=-3.66D-06 OVMax= 1.39D-04

 Cycle   7  Pass 1  IDiag  1:
 Density matrix breaks symmetry, PCut= 1.00D-07
 Density has only Abelian symmetry.
 E= -99.4068793663707     Delta-E=       -0.000000077948 Rises=F Damp=F
 DIIS: error= 1.27D-05 at cycle   7 NSaved=   7.
 NSaved= 7 IEnMin= 7 EnMin= -99.4068793663707     IErMin= 7 ErrMin= 1.27D-05
 ErrMax= 1.27D-05  0.00D+00 EMaxC= 1.00D-01 BMatC= 6.60D-09 BMatP= 1.61D-07
 IDIUse=1 WtCom= 1.00D+00 WtEn= 0.00D+00
 Coeff-Com: -0.292D-03 0.560D-02 0.199D-02-0.571D-01 0.159D+00-0.573D+00
 Coeff-Com:  0.146D+01
 Coeff:     -0.292D-03 0.560D-02 0.199D-02-0.571D-01 0.159D+00-0.573D+00
 Coeff:      0.146D+01
 Gap=     0.918 Goal=   None    Shift=    0.000
 Gap=     0.716 Goal=   None    Shift=    0.000
 RMSDP=9.32D-07 MaxDP=1.36D-05 DE=-7.79D-08 OVMax= 3.33D-05

 Cycle   8  Pass 1  IDiag  1:
 Density matrix breaks symmetry, PCut= 1.00D-07
 Density has only Abelian symmetry.
 E= -99.4068793692368     Delta-E=       -0.000000002866 Rises=F Damp=F
 DIIS: error= 4.83D-07 at cycle   8 NSaved=   8.
 NSaved= 8 IEnMin= 8 EnMin= -99.4068793692368     IErMin= 8 ErrMin= 4.83D-07
 ErrMax= 4.83D-07  0.00D+00 EMaxC= 1.00D-01 BMatC= 1.89D-11 BMatP= 6.60D-09
 IDIUse=1 WtCom= 1.00D+00 WtEn= 0.00D+00
 Coeff-Com:  0.324D-04-0.656D-03-0.144D-03 0.647D-02-0.186D-01 0.787D-01
 Coeff-Com: -0.234D+00 0.117D+01
 Coeff:      0.324D-04-0.656D-03-0.144D-03 0.647D-02-0.186D-01 0.787D-01
 Coeff:     -0.234D+00 0.117D+01
 Gap=     0.918 Goal=   None    Shift=    0.000
 Gap=     0.716 Goal=   None    Shift=    0.000
 RMSDP=3.03D-08 MaxDP=5.17D-07 DE=-2.87D-09 OVMax= 9.77D-07

 Cycle   9  Pass 1  IDiag  1:
 Density matrix breaks symmetry, PCut= 1.00D-07
 Density has only Abelian symmetry.
 E= -99.4068793692416     Delta-E=       -0.000000000005 Rises=F Damp=F
 DIIS: error= 6.19D-08 at cycle   9 NSaved=   9.
 NSaved= 9 IEnMin= 9 EnMin= -99.4068793692416     IErMin= 9 ErrMin= 6.19D-08
 ErrMax= 6.19D-08  0.00D+00 EMaxC= 1.00D-01 BMatC= 1.94D-13 BMatP= 1.89D-11
 IDIUse=1 WtCom= 1.00D+00 WtEn= 0.00D+00
 Coeff-Com: -0.260D-05 0.532D-04 0.168D-04-0.517D-03 0.152D-02-0.670D-02
 Coeff-Com:  0.222D-01-0.168D+00 0.115D+01
 Coeff:     -0.260D-05 0.532D-04 0.168D-04-0.517D-03 0.152D-02-0.670D-02
 Coeff:      0.222D-01-0.168D+00 0.115D+01
 Gap=     0.918 Goal=   None    Shift=    0.000
 Gap=     0.716 Goal=   None    Shift=    0.000
 RMSDP=5.43D-09 MaxDP=7.68D-08 DE=-4.77D-12 OVMax= 1.52D-07

 Density matrix breaks symmetry, PCut= 1.00D-07
 Density has only Abelian symmetry.
 SCF Done:  E(UHF) =  -99.4068793692     A.U. after    9 cycles
            NFock=  9  Conv=0.54D-08     -V/T= 2.0003
 <Sx>= 0.0000 <Sy>= 0.0000 <Sz>= 0.5000 <S**2>= 0.7541 S= 0.5021
 <L.S>= 0.000000000000E+00
 KE= 9.937325337429D+01 PE=-2.385879381821D+02 EE= 3.980780543861D+01
 Annihilation of the first spin contaminant:
 S**2 before annihilation     0.7541,   after     0.7500
 Leave Link  502 at Mon Oct  5 21:20:47 2020, MaxMem=   268435456 cpu:               5.9 elap:               0.8
 (Enter /applis/site/cecic/gaussian16/B.01/nehalem/g16/l801.exe)
 Windowed orbitals will be sorted by symmetry type.
 ExpMin= 7.36D-02 ExpMax= 1.95D+04 ExpMxC= 6.65D+02 IAcc=3 IRadAn=         5 AccDes= 0.00D+00
 HarFok:  IExCor=  205 AccDes= 0.00D+00 IRadAn=         5 IDoV=-2 UseB2=F ITyADJ=14
 ICtDFT= 12500011 ScaDFX=  1.000000  1.000000  1.000000  1.000000
 Largest valence mixing into a core orbital is  8.14D-05
 Largest core mixing into a valence orbital is  1.41D-05
 Largest valence mixing into a core orbital is  1.20D-04
 Largest core mixing into a valence orbital is  3.06D-05
 Range of M.O.s used for correlation:     2    46
 NBasis=    46 NAE=     5 NBE=     4 NFC=     1 NFV=     0
 NROrb=     45 NOA=     4 NOB=     3 NVA=    41 NVB=    42
 Leave Link  801 at Mon Oct  5 21:20:48 2020, MaxMem=   268435456 cpu:               1.6 elap:               0.3
 (Enter /applis/site/cecic/gaussian16/B.01/nehalem/g16/l804.exe)
 Open-shell transformation, MDV=   268435456 ITran=4 ISComp=2.
 Unit  1 TFree=         75468 TCopy=        247790.
 Semi-Direct transformation.
 ModeAB=           2 MOrb=             4 LenV=     268164257
 LASXX=        21445 LTotXX=       21445 LenRXX=       21445
 LTotAB=       23654 MaxLAS=      277200 LenRXY=      277200
 NonZer=      303660 LenScr=      786432 LnRSAI=           0
 LnScr1=           0 LExtra=           0 Total=      1085077
 MaxDsk=          -1 SrtSym=           F ITran=            4
 DoSDTr:  NPSUse=  8
 JobTyp=1 Pass  1:  I=   1 to   4.
 (rs|ai) integrals will be sorted in core.
 Complete sort for first half transformation.
 First half transformation complete.
 Complete sort for second half transformation.
 Second half transformation complete.
 ModeAB=           2 MOrb=             3 LenV=     268164257
 LASXX=        16350 LTotXX=       16350 LenRXX=      207900
 LTotAB=       14898 MaxLAS=      207900 LenRXY=       14898
 NonZer=      227745 LenScr=      720896 LnRSAI=           0
 LnScr1=           0 LExtra=           0 Total=       943694
 MaxDsk=          -1 SrtSym=           F ITran=            4
 DoSDTr:  NPSUse=  8
 JobTyp=2 Pass  1:  I=   1 to   3.
 (rs|ai) integrals will be sorted in core.
 Complete sort for first half transformation.
 First half transformation complete.
 Complete sort for second half transformation.
 Second half transformation complete.
 Spin components of T(2) and E(2):
     alpha-alpha T2 =       0.5402403586D-02 E2=     -0.3362854078D-01
     alpha-beta  T2 =       0.2468379901D-01 E2=     -0.1555494149D+00
     beta-beta   T2 =       0.2819464436D-02 E2=     -0.1604879794D-01
 ANorm=    0.1016319668D+01
 E2 =    -0.2052267536D+00 EUMP2 =    -0.99612106122877D+02
 (S**2,0)=  0.75413D+00           (S**2,1)=  0.75010D+00
 E(PUHF)=      -0.99410023217D+02        E(PMP2)=      -0.99613718191D+02
 Leave Link  804 at Mon Oct  5 21:20:49 2020, MaxMem=   268435456 cpu:               7.0 elap:               1.0
 (Enter /applis/site/cecic/gaussian16/B.01/nehalem/g16/l913.exe)
 CIDS:  MDV=   268435456.
 Frozen-core window:  NFC=   1 NFV=   0.
 IFCWin=0 IBDFC=1 NFBD=     0     0 NFCmp=     0     0 NFFFC=     0     0
 Using original routines for 1st iteration.
 Using DD4UQ or CC4UQ for 2nd and later iterations.
 Keep R2 and R3 ints in memory in symmetry-blocked form, NReq=4492147.
 FoFCou: FMM=F IPFlag=           0 FMFlag=           0 FMFlg1=           0
         NFxFlg=           0 DoJE=F BraDBF=F KetDBF=F FulRan=T
         wScrn=  0.000000 ICntrl=       600 IOpCl=  0 I1Cent=           0 NGrid=           0
         NMat0=    1 NMatS0=   1081 NMatT0=    0 NMatD0=    1 NMtDS0=    0 NMtDT0=    0
 Petite list used in FoFCou.
 CIDS: In Core Option IDoMem=           1.
 CCSD(T)
 =======
 Iterations=  50 Convergence= 0.100D-06
 Produce multiple copies of IABC intergrals
 Iteration Nr.   1
 **********************
 DD1Dir will call FoFMem   1 times, MxPair=        34
 NAB=    12 NAA=     6 NBB=     3.
 E(PMP3)=      -0.99623005849D+02
 MP4(R+Q)=  0.22473111D-02
 Maximum subspace dimension=  5
 A-vector RMS=  3.0185165D-03 Max=  8.5682581D-03 conv= 1.00D-05.
 RLE energy=       -0.2133188986
 E3=       -0.10062295D-01        EUMP3=      -0.99622168418D+02
 E4(DQ)=   -0.11485228D-03        UMP4(DQ)=   -0.99622283270D+02
 E4(SDQ)=  -0.10903974D-02        UMP4(SDQ)=  -0.99623258815D+02
 VARIATIONAL ENERGIES WITH THE FIRST-ORDER WAVEFUNCTION:
 DE(Corr)= -0.21301193     E(Corr)=     -99.619891301    
 NORM(A)=   0.10179266D+01
 Iteration Nr.   2
 **********************
 DD1Dir will call FoFMem   1 times, MxPair=        34
 NAB=    12 NAA=     6 NBB=     3.
 A-vector RMS=  3.7115468D-04 Max=  1.4566123D-03 conv= 1.00D-05.
 RLE energy=       -0.2163126702
 DE(Corr)= -0.21581771     E(CORR)=     -99.622697074     Delta=-2.81D-03
 NORM(A)=   0.10189271D+01
 Iteration Nr.   3
 **********************
 DD1Dir will call FoFMem   1 times, MxPair=        34
 NAB=    12 NAA=     6 NBB=     3.
 A-vector RMS=  3.6794324D-04 Max=  1.3340338D-03 conv= 1.00D-05.
 RLE energy=       -0.2165249445
 DE(Corr)= -0.21630377     E(CORR)=     -99.623183142     Delta=-4.86D-04
 NORM(A)=   0.10191720D+01
 Iteration Nr.   4
 **********************
 DD1Dir will call FoFMem   1 times, MxPair=        34
 NAB=    12 NAA=     6 NBB=     3.
 A-vector RMS=  6.9493947D-05 Max=  5.4975603D-04 conv= 1.00D-05.
 RLE energy=       -0.2165653048
 DE(Corr)= -0.21653304     E(CORR)=     -99.623412407     Delta=-2.29D-04
 NORM(A)=   0.10192606D+01
 Iteration Nr.   5
 **********************
 DD1Dir will call FoFMem   1 times, MxPair=        34
 NAB=    12 NAA=     6 NBB=     3.
 A-vector RMS=  2.1952803D-05 Max=  2.3575262D-04 conv= 1.00D-05.
 RLE energy=       -0.2165739911
 DE(Corr)= -0.21656638     E(CORR)=     -99.623445748     Delta=-3.33D-05
 NORM(A)=   0.10192779D+01
 Iteration Nr.   6
 **********************
 DD1Dir will call FoFMem   1 times, MxPair=        34
 NAB=    12 NAA=     6 NBB=     3.
 A-vector RMS=  9.8247524D-06 Max=  5.6189842D-05 conv= 1.00D-05.
 RLE energy=       -0.2165705995
 DE(Corr)= -0.21657263     E(CORR)=     -99.623451995     Delta=-6.25D-06
 NORM(A)=   0.10192771D+01
 Iteration Nr.   7
 **********************
 DD1Dir will call FoFMem   1 times, MxPair=        34
 NAB=    12 NAA=     6 NBB=     3.
 A-vector RMS=  2.7113828D-06 Max=  2.0165871D-05 conv= 1.00D-05.
 RLE energy=       -0.2165730653
 DE(Corr)= -0.21657288     E(CORR)=     -99.623452248     Delta=-2.54D-07
 NORM(A)=   0.10192774D+01
 Iteration Nr.   8
 **********************
 DD1Dir will call FoFMem   1 times, MxPair=        34
 NAB=    12 NAA=     6 NBB=     3.
 A-vector RMS=  8.3634658D-07 Max=  3.8677813D-06 conv= 1.00D-05.
 RLE energy=       -0.2165728111
 DE(Corr)= -0.21657283     E(CORR)=     -99.623452203     Delta= 4.54D-08
 NORM(A)=   0.10192774D+01
 CI/CC converged in    8 iterations to DelEn= 4.54D-08 Conv= 1.00D-07 ErrA1= 8.36D-07 Conv= 1.00D-05
 Wavefunction amplitudes converged. E(Corr)=     -99.623452203    
 Largest amplitude= 3.33D-02
 Time for triples=     1092.92 seconds.
 T4(CCSD)= -0.45453330D-02
 T5(CCSD)=  0.17072614D-03
 CCSD(T)= -0.99627826810D+02

 S**2, projected HF & approx projected MPn energies after annihilation of
 unwanted spin states (see manual for definitions):

 spins       (S**2,0) (S**2,1)    PUHF        PMP2        PMP3        PMP4
 annihilated
 s+1         0.74999  0.75000  -99.410023  -99.613718  -99.623006
 s+1,s+2     0.75000  0.75000  -99.410020  -99.613715  -99.623003
 s+1 to s+3  0.75000  0.75000  -99.410020  -99.613715  -99.623003

 Discarding MO integrals.
 Leave Link  913 at Mon Oct  5 21:23:21 2020, MaxMem=   268435456 cpu:            1101.7 elap:             152.7
 (Enter /applis/site/cecic/gaussian16/B.01/nehalem/g16/l601.exe)
 Copying SCF densities to generalized density rwf, IOpCl= 1 IROHF=0.
 SCF density gives NOpUse=  8 NOpAll= 48.
 Marking SCF density as not fully symmetric.

 **********************************************************************

            Population analysis using the SCF Density.

 **********************************************************************

 Orbital symmetries:
 Alpha Orbitals:
       Occupied  (A1G) (?A) (?B) (?B) (?B)
       Virtual   (?B) (?A) (?B) (?B) (?A) (T2G) (T2G) (T2G) (?A)
                 (?B) (?B) (?B) (?A) (?A) (T2G) (T2G) (T2G) (?A)
                 (?B) (?B) (?B) (?B) (A2U) (?B) (?B) (?B) (?B)
                 (?B) (?C) (?C) (?C) (A2U) (?C) (?C) (?C) (?A)
                 (T2G) (T2G) (?A) (T2G) (?A)
 Beta  Orbitals:
       Occupied  (A1G) (?A) (?B) (?B)
       Virtual   (?B) (?B) (?B) (?A) (?B) (T2G) (?A) (T2G) (T2G)
                 (?A) (?B) (?B) (?B) (?A) (T2G) (?A) (T2G) (T2G)
                 (?A) (?C) (?C) (?C) (?C) (A2U) (?C) (?C) (?B)
                 (?B) (?B) (?C) (?C) (?C) (A2U) (?C) (?C) (?C)
                 (T2G) (EG) (T2G) (T2G) (EG) (A1G)
 Unable to determine electronic state:  an orbital has unidentified symmetry.
 Alpha  occ. eigenvalues --  -26.41156  -1.67449  -0.84550  -0.73207  -0.73207
 Alpha virt. eigenvalues --    0.18609   0.19456   0.19606   0.19606   0.84802
 Alpha virt. eigenvalues --    0.85454   0.85454   0.87464   0.87464   1.06051
 Alpha virt. eigenvalues --    1.10887   1.10887   1.59494   2.74389   2.76130
 Alpha virt. eigenvalues --    2.76130   2.81690   2.81690   2.85687   2.86238
 Alpha virt. eigenvalues --    2.86238   2.87901   2.87901   2.90709   2.90709
 Alpha virt. eigenvalues --    5.06274   5.14856   5.14856   8.68061   8.69120
 Alpha virt. eigenvalues --    8.69120   8.72319   8.72319   8.77724   8.77724
 Alpha virt. eigenvalues --    9.11723   9.14296   9.14296   9.22062   9.22062
 Alpha virt. eigenvalues --   10.42832
  Beta  occ. eigenvalues --  -26.36354  -1.47926  -0.68029  -0.68029
  Beta virt. eigenvalues --    0.03555   0.19814   0.19814   0.20184   0.24442
  Beta virt. eigenvalues --    0.87281   0.87281   0.87490   0.87490   0.87603
  Beta virt. eigenvalues --    1.12417   1.12417   1.21080   1.63923   2.82596
  Beta virt. eigenvalues --    2.82596   2.84916   2.84916   2.85798   2.88531
  Beta virt. eigenvalues --    2.88763   2.88763   2.89456   2.89456   2.90602
  Beta virt. eigenvalues --    2.90602   5.17535   5.17535   5.23926   8.75338
  Beta virt. eigenvalues --    8.75686   8.75686   8.76728   8.76728   8.78454
  Beta virt. eigenvalues --    8.78454   9.24191   9.24191   9.25309   9.25309
  Beta virt. eigenvalues --    9.25711  10.47810
          Condensed to atoms (all electrons):
               1
     1  F    9.000000
          Atomic-Atomic Spin Densities.
               1
     1  F    1.000000
 Mulliken charges and spin densities:
               1          2
     1  F   -0.000000   1.000000
 Sum of Mulliken charges =  -0.00000   1.00000
 Mulliken charges and spin densities with hydrogens summed into heavy atoms:
               1          2
     1  F   -0.000000   1.000000
 Electronic spatial extent (au):  <R**2>=             10.2800
 Charge=             -0.0000 electrons
 Dipole moment (field-independent basis, Debye):
    X=              0.0000    Y=              0.0000    Z=              0.0000  Tot=              0.0000
 Quadrupole moment (field-independent basis, Debye-Ang):
   XX=             -4.9147   YY=             -4.9147   ZZ=             -3.9976
   XY=              0.0000   XZ=              0.0000   YZ=             -0.0000
 Traceless Quadrupole moment (field-independent basis, Debye-Ang):
   XX=             -0.3057   YY=             -0.3057   ZZ=              0.6114
   XY=              0.0000   XZ=              0.0000   YZ=             -0.0000
 Octapole moment (field-independent basis, Debye-Ang**2):
  XXX=              0.0000  YYY=              0.0000  ZZZ=              0.0000  XYY=              0.0000
  XXY=              0.0000  XXZ=              0.0000  XZZ=              0.0000  YZZ=              0.0000
  YYZ=              0.0000  XYZ=              0.0000
 Hexadecapole moment (field-independent basis, Debye-Ang**3):
 XXXX=             -3.0825 YYYY=             -3.0825 ZZZZ=             -2.0736 XXXY=              0.0000
 XXXZ=              0.0000 YYYX=             -0.0000 YYYZ=             -0.0000 ZZZX=              0.0000
 ZZZY=             -0.0000 XXYY=             -1.0275 XXZZ=             -0.8591 YYZZ=             -0.8591
 XXYZ=             -0.0000 YYXZ=              0.0000 ZZXY=              0.0000
 N-N= 0.000000000000D+00 E-N=-2.385879376297D+02  KE= 9.937325337429D+01
 Symmetry AG   KE= 8.269690946439D+01
 Symmetry B1G  KE= 5.384586468336D-53
 Symmetry B2G  KE= 2.470410075982D-35
 Symmetry B3G  KE= 2.470410075982D-35
 Symmetry AU   KE= 4.222774432240D-36
 Symmetry B1U  KE= 3.488017924722D+00
 Symmetry B2U  KE= 6.594162992589D+00
 Symmetry B3U  KE= 6.594162992589D+00
 Symmetry AG   SP=-3.299376288672D-15
 Symmetry B1G  SP= 4.045648518629D-53
 Symmetry B2G  SP=-1.857277732604D-36
 Symmetry B3G  SP=-1.857277732604D-36
 Symmetry AU   SP= 7.444604024583D-37
 Symmetry B1U  SP= 1.000000000000D+00
 Symmetry B2U  SP=-3.402944701199D-15
 Symmetry B3U  SP= 3.171155829249D-15
 Leave Link  601 at Mon Oct  5 21:23:22 2020, MaxMem=   268435456 cpu:               2.4 elap:               0.7
 (Enter /applis/site/cecic/gaussian16/B.01/nehalem/g16/l9999.exe)
 1\1\GINC-DAHU74\SP\UCCSD(T)-FC\Aug-CC-pVTZ\F1(2)\TINACCIL\05-Oct-2020\
 0\\#P CCSD(T)/aug-cc-pvtz\\Title\\0,2\F\\Version=ES64L-G16RevB.01\HF=-
 99.4068794\MP2=-99.6121061\MP3=-99.6221684\MP4D=-99.6245306\MP4DQ=-99.
 6222833\PUHF=-99.4100232\PMP2-0=-99.6137182\PMP3-0=-99.6230058\MP4SDQ=
 -99.6232588\CCSD=-99.6234522\CCSD(T)=-99.6278268\S2=0.754134\S2-1=0.75
 01\S2A=0.750009\RMSD=5.435e-09\PG=OH [O(F1)]\\@


 KNOWING HOW CONTENTED, FREE, AND JOYFUL IS LIFE IN
 THE REALMS OF SCIENCE, ONE FERVENTLY WISHES THAT
 MANY WOULD ENTER HER PORTALS.
   --  DMITRI IVANOVICH MENDELEEV
 "FIRST PRINCIPLES OF CHEMISTRY", LONGMANS, GREEN,
 AND CO.  LONDON, 1891
 Job cpu time:       0 days  0 hours 18 minutes 48.3 seconds.
 Elapsed time:       0 days  0 hours  2 minutes 37.6 seconds.
 File lengths (MBytes):  RWF=     21 Int=      0 D2E=      0 Chk=      1 Scr=      1
 Normal termination of Gaussian 16 at Mon Oct  5 21:23:23 2020.
