[Molden Format]
[Title]
[Atoms] AU
C      1     6  0.36617990726822E+00  0.19608580735435E+01  0.22110028035578E-01
N      2     7 -0.44291571981215E+00  0.15997570497903E+00  0.18705980448420E+01
C      3     6 -0.39576113224433E+00  0.18751582237956E+00 -0.19955485726287E+01
C      4     6  0.15885619553755E+01 -0.65499037289963E+00  0.12366426638173E+00
C      5     6 -0.11160650105872E+01 -0.16533592280024E+01 -0.20823766630619E-01
[GTO]
           1 0
 s           4   1.0000000000000000     
   51.049363095579913      -0.16312063210127389     
   8.7911227406887544      -0.19911024581000730     
  0.70640422258929825       0.31882047753655751     
  0.26922813413411617       0.12706504184240380     
 p           4   1.0000000000000000     
   5.8263656140800002       0.73716451545209605     
   1.5106896018720002       0.68216371614850257     
  0.53256483288000001       0.35783053929253711     
  0.21202323690600003        5.3983030275847881E-002

           2 0
 s           4   1.0000000000000000     
   63.594024466941008      -0.19234388414721629     
   10.951417231523665      -0.23478107924953728     
  0.87999310257376984       0.37593753901700888     
  0.33538715296521110       0.14982889271862770     
 p           4   1.0000000000000000     
   7.2965040481495080       0.97658666315667420     
   1.8918745450712575       0.90372226730345739     
  0.66694432110824120       0.47404958461536373     
  0.26552202674130870        7.1516067715011844E-002

           3 0
 s           4   1.0000000000000000     
   51.049363095579913      -0.16312063210127389     
   8.7911227406887544      -0.19911024581000730     
  0.70640422258929825       0.31882047753655751     
  0.26922813413411617       0.12706504184240380     
 p           4   1.0000000000000000     
   5.8263656140800002       0.73716451545209605     
   1.5106896018720002       0.68216371614850257     
  0.53256483288000001       0.35783053929253711     
  0.21202323690600003        5.3983030275847881E-002

           4 0
 s           4   1.0000000000000000     
   51.049363095579913      -0.16312063210127389     
   8.7911227406887544      -0.19911024581000730     
  0.70640422258929825       0.31882047753655751     
  0.26922813413411617       0.12706504184240380     
 p           4   1.0000000000000000     
   5.8263656140800002       0.73716451545209605     
   1.5106896018720002       0.68216371614850257     
  0.53256483288000001       0.35783053929253711     
  0.21202323690600003        5.3983030275847881E-002

           5 0
 s           4   1.0000000000000000     
   51.049363095579913      -0.16312063210127389     
   8.7911227406887544      -0.19911024581000730     
  0.70640422258929825       0.31882047753655751     
  0.26922813413411617       0.12706504184240380     
 p           4   1.0000000000000000     
   5.8263656140800002       0.73716451545209605     
   1.5106896018720002       0.68216371614850257     
  0.53256483288000001       0.35783053929253711     
  0.21202323690600003        5.3983030275847881E-002

[MO]
Sym=     1a
Ene=  -0.78358230999141498     
Spin= Alpha
Occup=     2.00000000
           1  0.22428171537287050     
           2  -1.2815214851153313E-002
           3 -0.12902404899833395     
           4   9.8267770754223369E-003
           5  0.27376027785074319     
           6   8.0704406147778407E-002
           7  -3.0696061815964175E-002
           8 -0.21304256638284083     
           9  0.20520088050746590     
          10   2.9566100185485212E-002
          11  -1.3570240837894237E-002
          12  0.11560904072267081     
          13  0.28747144606463998     
          14 -0.15204047971800866     
          15   6.2333474694446424E-002
          16   9.9709997054568816E-003
          17  0.22434870294032000     
          18   8.1390931948649617E-002
          19  0.10058417508101444     
          20   1.2587054414443435E-002
Sym=     2a
Ene=  -0.67026194633393077     
Spin= Alpha
Occup=     2.00000000
           1  0.41451245709986190     
           2   4.1232584338535466E-002
           3  -4.1346230992665219E-002
           4   4.9799293987631457E-002
           5  -3.8145509545405481E-003
           6  0.14469776520733449     
           7  0.35752925360289678     
           8   3.8483179628109789E-003
           9   4.8059585328201013E-003
          10   7.8083851931790280E-002
          11  0.18972437873194739     
          12   2.9385783936246523E-003
          13  -1.1679374010764264E-003
          14  0.11730581071024629     
          15  0.28540534553778169     
          16   2.6310938600935309E-004
          17 -0.41301988488476843     
          18  -5.8698978030599251E-002
          19   1.4429532585141613E-003
          20  -5.4791127861641191E-002
Sym=     3a
Ene=  -0.66790701036509714     
Spin= Alpha
Occup=     2.00000000
           1   5.6403158639774201E-002
           2  -2.4054666873209011E-002
           3  -2.5686673328201223E-003
           4 -0.23640160605229432     
           5 -0.44536428678718232     
           6 -0.13868439718030739     
           7   5.2981426422050018E-002
           8  -2.1171925519416667E-002
           9  0.44988664289609048     
          10   4.0041861157645284E-002
          11  -1.9135682548793310E-002
          12   4.3576670309571582E-002
          13  -2.5766896437125028E-002
          14   2.0317662285845328E-003
          15  -4.1964143963864803E-004
          16 -0.31833069414092718     
          17   6.4542984168436221E-002
          18  -1.2168866421077104E-002
          19   2.3463590942965948E-002
          20 -0.23479253621373203     
Sym=     4a
Ene=  -0.63225367021772327     
Spin= Alpha
Occup=     2.00000000
           1  0.12099371311773097     
           2 -0.26297237526905376     
           3   4.4949102930615062E-002
           4   4.1103442936988512E-002
           5  0.25790732843142017     
           6 -0.36037180137247760     
           7  0.14819018447214516     
           8  -8.7096822181013112E-002
           9   7.3782390367480882E-002
          10 -0.20849437320454017     
          11   8.4599953585816665E-002
          12   5.0280357875877590E-002
          13 -0.49035767829919985     
          14  -8.9884964442494428E-002
          15   3.6303968378548677E-002
          16  -8.2384314072574075E-003
          17  0.12217331499481862     
          18 -0.21899925970113693     
          19  0.15170372398715296     
          20   4.2555543450085706E-002
Sym=     5a
Ene=  -0.56354193098830463     
Spin= Alpha
Occup=     2.00000000
           1  0.10607694909955342     
           2   4.7844903699413216E-002
           3   2.8556182722088229E-002
           4 -0.38556579043454819     
           5  -1.4502045428961780E-004
           6 -0.16474815970819326     
           7 -0.40407174501971965     
           8  -4.5843611549840424E-003
           9   8.0401953209171097E-004
          10  0.16219832612934909     
          11  0.39710052016123271     
          12   4.5683084176154310E-003
          13  -3.6037379018807403E-004
          14   2.7866379369892606E-002
          15   6.8151938220732663E-002
          16   2.1361900161105682E-003
          17 -0.10605858489851203     
          18  -1.7458520338267124E-002
          19   4.5932191493920638E-002
          20  0.38587144341405949     
Sym=     6a
Ene=  -0.51877364437861295     
Spin= Alpha
Occup=     2.00000000
           1  0.17542433413319292     
           2  -9.5279516001391222E-003
           3   6.5279724402042355E-002
           4   3.6603804783488812E-002
           5 -0.58915808124441815     
           6   8.5519372330012514E-002
           7  -2.8391985681076825E-002
           8 -0.54028799645542980     
           9 -0.42499907834018208     
          10 -0.12022072033634110     
          11   4.6375390370607367E-002
          12  0.27343429490615195     
          13  -4.9337910050187110E-002
          14  -6.8762412398061024E-002
          15   2.6170885008692728E-002
          16  0.12870183734786300     
          17  0.17497516199989652     
          18  -5.2294502957359615E-002
          19  -4.0719880325450208E-002
          20   3.5263180802523858E-002
Sym=     7a
Ene=  -0.51507804992349882     
Spin= Alpha
Occup=     2.00000000
           1   1.3716041535388985E-002
           2   3.1030004003521627E-002
           3  -2.2335271281358385E-002
           4  0.13792306086776621     
           5   9.5543530246385761E-002
           6 -0.47231423352379265     
           7  0.19342160404876149     
           8  -5.9741122998560103E-002
           9 -0.38330424990029638     
          10  0.36235785694168271     
          11 -0.14955403583530388     
          12  0.17521384499146153     
          13  0.19803394248479053     
          14  0.14124198880239608     
          15  -5.2759796376035520E-002
          16 -0.43674615948068601     
          17   1.2955458537415409E-002
          18   3.6832125053066475E-002
          19  -8.4358169211348148E-003
          20  0.13981630718337432     
Sym=     8a
Ene=  -0.49163588569495198     
Spin= Alpha
Occup=     2.00000000
           1  0.21362845827660898     
           2 -0.39641135278723966     
           3  0.24226802745236697     
           4  -1.7440813959165188E-002
           5   1.3891342725277449E-003
           6   6.4898895201427442E-002
           7  0.15940611918421632     
           8   5.9177827220598172E-003
           9   5.6737319301155761E-004
          10   7.0205372804507227E-002
          11  0.17417112533002344     
          12   1.4875729471918139E-003
          13   1.8266797196012600E-003
          14 -0.19918510716528698     
          15 -0.49175533914507286     
          16  -5.3316110882274340E-003
          17 -0.20086548816698768     
          18  0.44834445142331808     
          19 -0.11613073980772057     
          20   1.8465774481845932E-002
Sym=     9a
Ene=  -0.48330209455920425     
Spin= Alpha
Occup=     1.99997968
           1 -0.51186881082089097     
           2 -0.19165182637348663     
           3 -0.39166006476343251     
           4   7.3009789489931120E-003
           5  -7.5749699926093705E-002
           6  -1.2675112552562560E-002
           7   1.0462299184669491E-002
           8 -0.28440866316824975     
           9   1.1997740854771574E-002
          10  -1.9293586702140451E-002
          11   9.8479244148076319E-003
          12   1.9519446339583958E-002
          13   2.0124610001162530E-003
          14  -4.8542195978249505E-002
          15   1.3033216470565524E-002
          16   4.3542338193892140E-004
          17 -0.51761757231338301     
          18  0.15066460619474725     
          19  0.41049407015601480     
          20   1.7583280264800147E-002
Sym=    10a
Ene=  -0.46277406640446100     
Spin= Alpha
Occup=     1.00002032
           1   3.1061370117791944E-002
           2 -0.18550290203386005     
           3   3.7290406030368019E-002
           4  -1.7948957188185344E-002
           5  -1.7285124239215046E-002
           6 -0.15007210874447829     
           7   6.1631546771295127E-002
           8  -4.1614925759100717E-002
           9   8.9874125235966662E-002
          10 -0.31506968055346046     
          11  0.12842262949885208     
          12   8.2215400777531627E-003
          13  0.56411146428689884     
          14  0.61711879499647826     
          15 -0.25326498655412777     
          16  0.15987885758483714     
          17   3.2658693854739580E-002
          18 -0.16094253328471117     
          19  0.10404744952627949     
          20  -1.7381605322739059E-002
Sym=    11a
Ene=  -0.40829931165082423     
Spin= Alpha
Occup=     1.00000000
           1   4.6743116609824741E-002
           2   6.2101846773397300E-002
           3   6.6546883136545609E-002
           4  0.26625587361022213     
           5 -0.12049998875525599     
           6 -0.12062276621844721     
           7   5.5168945474344991E-002
           8 -0.49043024163119059     
           9  0.32145385668645016     
          10  0.14434615742174159     
          11  -5.0864186330221654E-002
          12 -0.70247333842869253     
          13   4.0373366849363219E-003
          14   2.4238614245589155E-002
          15  -1.0141182108677616E-002
          16   1.0826222010479336E-002
          17   4.6317565005131234E-002
          18  -4.6866333070776410E-003
          19  -9.5447332154853154E-002
          20  0.26432898653387860     
Sym=    12a
Ene=  -0.39932359787852101     
Spin= Alpha
Occup=     1.00000000
           1  0.29543755289780549     
           2  0.28774764651481083     
           3  0.51554002620507811     
           4   7.9281464902990706E-002
           5  -1.6496104829755078E-005
           6 -0.10876432635202074     
           7 -0.26533044223895047     
           8  -2.6524693110618301E-003
           9  -2.1877682912433083E-004
          10 -0.12464776897648759     
          11 -0.30271485857935920     
          12  -3.2010476652518691E-003
          13   3.7759862569654198E-004
          14  -2.4695671635527761E-003
          15  -6.5536652960758463E-003
          16  -4.9564769078981125E-005
          17 -0.29482801018553484     
          18  0.15717169209689244     
          19  0.57034917912743854     
          20  -6.6748386655467173E-002
Sym=    13a
Ene=  -0.24692585402515604     
Spin= Alpha
Occup=     0.00000000
           1   9.9450743006710626E-003
           2 -0.54851329702354301     
           3  0.21986413263358737     
           4   7.3030044426759151E-003
           5   1.1248159613553969E-002
           6  0.47549122632282326     
           7 -0.19525839198287293     
           8  -1.6456103361852624E-002
           9   5.2954582720885143E-003
          10  0.58142996232153377     
          11 -0.23900938867146551     
          12   1.2540326919986008E-002
          13   3.2746616242038998E-003
          14   9.5977926869738162E-002
          15  -3.8169469734516195E-002
          16  -3.3253415886041401E-002
          17   9.9843778607859920E-003
          18 -0.54232124608140908     
          19  0.22732590865594374     
          20   7.4081709795038335E-003
Sym=    14a
Ene=  -0.16952035276973701     
Spin= Alpha
Occup=     0.00000000
           1  -5.8121827663708521E-003
           2  -5.9170036318029001E-002
           3   1.4032000540960902E-002
           4  0.39829567240374980     
           5  -7.2134087589701010E-002
           6  0.44391241974679890     
           7 -0.18482513339583381     
           8  0.12642323125537794     
           9   4.2059631171757171E-002
          10 -0.50089581936241079     
          11  0.20370799845749252     
          12   2.3817084770812718E-002
          13   5.7560293943981058E-002
          14  -2.2736707899962620E-002
          15   2.2013946005185626E-002
          16 -0.82648203590779745     
          17  -6.3482534935107530E-003
          18  -5.2496114891919528E-002
          19   2.1027505242830494E-002
          20  0.39980233029358275     
Sym=    15a
Ene=  -0.14284372993452896     
Spin= Alpha
Occup=     0.00000000
           1  -8.7567013675069846E-002
           2  0.58170496402083005     
           3  -6.0730164414777806E-002
           4  -2.0073349162398207E-002
           5  -1.0358172894929837E-005
           6  0.16520508130922887     
           7  0.39468032799882402     
           8   4.9552877691259730E-003
           9   1.2035853531666953E-004
          10  0.14228750684094968     
          11  0.34825158442401066     
          12   4.3499562418998277E-003
          13  -6.2030931881477513E-004
          14 -0.28837671339223642     
          15 -0.70643229054535739     
          16  -1.1276509024102349E-002
          17   8.7749381161013912E-002
          18 -0.45762719313597572     
          19  0.36759255388528328     
          20   2.6204594489623652E-002
Sym=    16a
Ene=    7.7484317587609673E-003
Spin= Alpha
Occup=     0.00000000
           1   5.6908535545367421E-002
           2  -7.4930580744548322E-002
           3 -0.11423327232520943     
           4  0.53249792767188298     
           5 -0.70842891641492345     
           6 -0.23217830054318747     
           7   9.3286871449760375E-002
           8  0.56950980943011276     
           9  0.47525805471300236     
          10  0.17471869306381246     
          11  -8.2316633093270725E-002
          12  0.34882926667590142     
          13   5.1731510257487574E-002
          14 -0.11667717431440441     
          15   4.2199243382111666E-002
          16  0.43917573786086733     
          17   5.5417482628067831E-002
          18   2.1598597084290037E-002
          19  0.12254127063352893     
          20  0.54547196489918259     
Sym=    17a
Ene=    6.7787228636891877E-002
Spin= Alpha
Occup=     0.00000000
           1   2.4288699971118780E-002
           2   2.9714153939775852E-003
           3   3.3530921123462891E-002
           4 -0.73110749788705587     
           5   6.6415366445337510E-003
           6  0.24629058608762436     
           7  0.59426752915076830     
           8   1.3789414512003744E-003
           9  -2.1970561817242881E-003
          10 -0.28432176004118193     
          11 -0.69225963269018753     
          12  -9.0685602973357149E-003
          13  -2.8110156765582062E-003
          14   1.4936265460167372E-002
          15   2.7290366829948152E-002
          16  -2.1537041291165978E-003
          17  -2.5432759981400668E-002
          18   1.6550677045863323E-002
          19   7.3920013669269936E-003
          20  0.72367297176213374     
Sym=    18a
Ene=   0.10262152157527721     
Spin= Alpha
Occup=     0.00000000
           1 -0.15902079345661260     
           2 -0.27405760613666114     
           3  0.26863367268725402     
           4 -0.12217618911707361     
           5 -0.21458205907729883     
           6 -0.28061729000485897     
           7  0.14974607092905728     
           8  0.23695526747304610     
           9 -0.35152700536471254     
          10 -0.19526624306719109     
          11  0.11776602085266592     
          12 -0.38318723796927606     
          13  0.83274879361903742     
          14 -0.80644939529576432     
          15  0.36768554353529104     
          16  -6.7945922047270421E-003
          17  -7.8603043495161534E-002
          18 -0.33031029832702313     
          19   5.5906766447442920E-002
          20 -0.11752259483497209     
Sym=    19a
Ene=   0.11451525878690146     
Spin= Alpha
Occup=     0.00000000
           1  0.62799145701210568     
           2   3.1400620997283626E-003
           3 -0.57066882040439071     
           4   4.0120393579209110E-003
           5  -1.2744702243317939E-002
           6 -0.20636512647072264     
           7 -0.45105965256281383     
           8   8.7811092885033415E-003
           9  -2.2620642529463768E-002
          10 -0.20332906798278561     
          11 -0.45790830232911750     
          12  -3.0068034551716399E-002
          13   5.3912977644742843E-002
          14 -0.25806190014439634     
          15 -0.47847842148566749     
          16  -6.8683789732608301E-003
          17 -0.64452170420350030     
          18 -0.44985276264355561     
          19 -0.40136534600369150     
          20  -3.2073281894356126E-002
Sym=    20a
Ene=   0.33166311470531540     
Spin= Alpha
Occup=     0.00000000
           1 -0.58400853011279763     
           2  0.19738163787944854     
           3  0.62990666931762773     
           4  0.11907886696227271     
           5  0.37745873053053408     
           6  -6.9999514827529197E-002
           7   3.4141715075961650E-002
           8 -0.43977946758370445     
           9  0.63421522667532859     
          10  -2.1388981651635261E-002
          11   2.7584136172078473E-003
          12  0.67088592949191117     
          13  0.20630659427445686     
          14 -0.17907066494168306     
          15   7.2263599518407759E-002
          16   5.5113824715540230E-002
          17 -0.58194810287738064     
          18 -0.30283265215100352     
          19 -0.58754991129754064     
          20  0.10250791729583415     
