      -----------------------------------------------------------      
     |                   =====================                   |     
     |                           x T B                           |     
     |                   =====================                   |     
     |                         S. Grimme                         |     
     |          Mulliken Center for Theoretical Chemistry        |     
     |                    University of Bonn                     |     
      -----------------------------------------------------------      

   * xtb version 6.2.2 (9d81278992624c895f80dd42a50cac0aa55982e2) compiled by '@Darwin' on 04/03/2020

   xtb is free software: you can redistribute it and/or modify it under
   the terms of the GNU Lesser General Public License as published by
   the Free Software Foundation, either version 3 of the License, or
   (at your option) any later version.
   
   xtb is distributed in the hope that it will be useful,
   but WITHOUT ANY WARRANTY; without even the implied warranty of
   MERCHANTABILITY or FITNESS FOR A PARTICULAR PURPOSE.  See the
   GNU Lesser General Public License for more details.
   
   Cite this work as:
   * S. Grimme, C. Bannwarth, P. Shushkov, J. Chem. Theory Comput., 2017,
     13, 1989-2009. DOI: 10.1021/acs.jctc.7b00118
   * C. Bannwarth, S. Ehlert and S. Grimme., J. Chem. Theory Comput., 2019,
     15, 1652-1671. DOI: 10.1021/acs.jctc.8b01176
   * P. Pracht, E. Caldeweyher, S. Ehlert, S. Grimme, ChemRxiv, 2019, preprint.
     DOI: 10.26434/chemrxiv.8326202.v1
   
   for DFT-D4:
   * E. Caldeweyher, C. Bannwarth and S. Grimme, J. Chem. Phys., 2017,
     147, 034112. DOI: 10.1063/1.4993215
   * E. Caldeweyher, S. Ehlert, A. Hansen, H. Neugebauer, S. Spicher,
     C. Bannwarth and S. Grimme, J. Chem. Phys., 2019, 150, 154122.
     DOI: 10.1063/1.5090222
   
   for sTDA-xTB:
   * S. Grimme and C. Bannwarth, J. Chem. Phys., 2016, 145, 054103.
     DOI: 10.1063/1.4959605
   
   in the mass-spec context:
   * V. Asgeirsson, C. Bauer and S. Grimme, Chem. Sci., 2017, 8, 4879.
     DOI: 10.1039/c7sc00601b
   
   for metadynamics refer to:
   * S. Grimme, J. Chem. Theory Comput., 2019, 155, 2847-2862
     DOI: 10.1021/acs.jctc.9b00143
   
   with help from (in alphabetical order)
   C. Bannwarth, F. Bohle, G. Brandenburg, E. Caldeweyher, M. Checinski,
   S. Dohm, S. Ehlert, S. Ehrlich, F. März, H. Neugebauer, J. Pisarek,
   P. Pracht, P. Shushkov, and S. Spicher.
   
 * started run on 2020/05/12 at 11:44:19.239     

           -------------------------------------------------
          |                Calculation Setup                |
           -------------------------------------------------

          program call               : xtb --input C4N1_46_S_3.input C4N1_46_S_3.xyz --ohess --molden --namespace C4N1_46_S_3 output.out
          calculation namespace      : C4N1_46_S_3
          coordinate file            : C4N1_46_S_3.xyz
          number of atoms            :                     5
          number of electrons        :                    21
          charge                     :                     0
          spin                       :                   1.5
          first test random number   :      0.43038765014511

   ID    Z sym.   atoms
    1    6 C      1, 3-5
    2    7 N      2

           -------------------------------------------------
          |                 G F N 2 - x T B                 |
           -------------------------------------------------

        Reference                      10.1021/acs.jctc.8b01176
      * Hamiltonian:
        H0-scaling (s, p, d)           1.850000    2.230000    2.230000
        zeta-weighting                 0.500000
      * Dispersion:
        s8                             2.700000
        a1                             0.520000
        a2                             5.000000
        s9                             5.000000
      * Repulsion:
        kExp                           1.500000    1.000000
        rExp                           1.000000
      * Coulomb:
        alpha                          2.000000
        third order                    shell-resolved
        anisotropic                    true
        a3                             3.000000
        a5                             4.000000
        cn-shift                       1.200000
        cn-exp                         4.000000
        max-rad                        5.000000


          ...................................................
          :                      SETUP                      :
          :.................................................:
          :  # basis functions                  20          :
          :  # atomic orbitals                  20          :
          :  # shells                           10          :
          :  # electrons                        21          :
          :  max. iterations                   250          :
          :  Hamiltonian                  GFN2-xTB          :
          :  restarted?                      false          :
          :  GBSA solvation                  false          :
          :  PC potential                    false          :
          :  electronic temp.          300.0000000     K    :
          :  accuracy                    1.0000000          :
          :  -> integral cutoff          0.2500000E+02      :
          :  -> integral neglect         0.1000000E-07      :
          :  -> SCF convergence          0.1000000E-05 Eh   :
          :  -> wf. convergence          0.1000000E-03 e    :
          :  Broyden damping             0.4000000          :
          ...................................................

 iter      E             dE          RMSdq      gap      omega  full diag
   1    -10.9347416 -0.109347E+02  0.838E+00    0.75       0.0  T
   2    -10.9538629 -0.191213E-01  0.535E+00    0.78       1.0  T
   3    -10.9474797  0.638321E-02  0.203E+00    0.80       1.0  T
   4    -10.9567120 -0.923222E-02  0.814E-01    0.78       1.0  T
   5    -10.9395084  0.172036E-01  0.156E+00    0.78       1.0  T
   6    -10.9580512 -0.185429E-01  0.560E-01    0.79       1.0  T
   7    -10.9406176  0.174336E-01  0.144E+00    0.78       1.0  T
   8    -10.9595620 -0.189444E-01  0.156E-01    0.80       1.0  T
   9    -10.9596328 -0.708179E-04  0.102E-01    0.80       1.0  T
  10    -10.9597040 -0.712127E-04  0.266E-02    0.80       1.7  T
  11    -10.9597103 -0.623950E-05  0.617E-03    0.80       7.2  T
  12    -10.9597104 -0.116799E-06  0.288E-03    0.80      15.5  T
  13    -10.9597104 -0.399114E-07  0.755E-04    0.80      59.3  T
  14    -10.9597104  0.268169E-08  0.877E-04    0.80      51.0  T

   *** convergence criteria satisfied after 14 iterations ***

         #    Occupation            Energy/Eh            Energy/eV
      -------------------------------------------------------------
         1        2.0000           -0.7918732             -21.5480
       ...           ...                  ...                  ...
         6        2.0000           -0.5256787             -14.3044
         7        2.0000           -0.5184543             -14.1079
         8        2.0000           -0.5016026             -13.6493
         9        1.5011           -0.4885226             -13.2934
        10        1.4989           -0.4885144             -13.2932
        11        1.0000           -0.3879286             -10.5561
        12        1.0000           -0.3879240             -10.5559 (HOMO)
        13        0.0000           -0.3585368              -9.7563 (LUMO)
        14                         -0.2950142              -8.0277
        15                         -0.0942602              -2.5650
        16                         -0.0942419              -2.5645
        17                         -0.0029136              -0.0793
       ...                                ...                  ...
        20                          0.2509052               6.8275
      -------------------------------------------------------------
                  HL-Gap            0.0293873 Eh            0.7997 eV
             Fermi-level           -0.4307104 Eh          -11.7202 eV

 SCC (total)                   0 d,  0 h,  0 min,  0.005 sec
 SCC setup                      ...        0 min,  0.000 sec (  1.995%)
 Dispersion                     ...        0 min,  0.000 sec (  0.419%)
 integral evaluation            ...        0 min,  0.001 sec ( 29.251%)
 zeroth order Hamiltonian       ...        0 min,  0.000 sec (  0.503%)
 iterations                     ...        0 min,  0.002 sec ( 36.247%)
 molecular gradient             ...        0 min,  0.001 sec ( 30.267%)
 printout                       ...        0 min,  0.000 sec (  1.142%)

         :::::::::::::::::::::::::::::::::::::::::::::::::::::
         ::                     SUMMARY                     ::
         :::::::::::::::::::::::::::::::::::::::::::::::::::::
         :: total energy             -10.861711908972 Eh    ::
         :: gradient norm              0.145695711157 Eh/a0 ::
         :: HOMO-LUMO gap              0.799667853520 eV    ::
         ::.................................................::
         :: SCC energy               -10.959710418667 Eh    ::
         :: -> isotropic ES           -0.014076333493 Eh    ::
         :: -> anisotropic ES          0.004943985819 Eh    ::
         :: -> anisotropic XC          0.007990903953 Eh    ::
         :: -> dispersion             -0.002794780961 Eh    ::
         :: repulsion energy           0.097998468808 Eh    ::
         :: add. restraining           0.000000000000 Eh    ::
         :::::::::::::::::::::::::::::::::::::::::::::::::::::

      ----------------------------------------------------------- 
     |                   =====================                   |
     |                        A N C O P T                        |
     |                   =====================                   |
     |               Approximate Normal Coordinate               |
     |                Rational Function Optimizer                |
      ----------------------------------------------------------- 

          ...................................................
          :                      SETUP                      :
          :.................................................:
          :   optimization level            normal          :
          :   max. optcycles                   200          :
          :   ANC micro-cycles                  20          :
          :   degrees of freedom                 9          :
          :.................................................:
          :   RF solver                   davidson          :
          :   write xtbopt.log                true          :
          :   linear?                        false          :
          :   energy convergence         0.5000000E-05 Eh   :
          :   grad. convergence          0.1000000E-02 Eh/α :
          :   maximium RF displ.         1.0000000          :
          :   Hlow (freq-cutoff)         0.1000000E-01      :
          :   Hmax (freq-cutoff)         5.0000000          :
          :   S6 in model hess.         20.0000000          :
          ...................................................

generating ANC from model Hessian ...
Using Lindh-Hessian (1995)
 Shifting diagonal of input Hessian by    0.0000000000000000     
 Lowest  eigenvalues of input Hessian
   -0.000000   -0.000000   -0.000000    0.000000    0.000000    0.000000
    0.165639    0.165642    0.686010    0.749606    0.915635    0.915703
    1.292106    1.292182    1.763999
 Highest eigenvalues
    0.749606    0.915635    0.915703    1.292106    1.292182    1.763999


........................................................................
.............................. CYCLE    1 ..............................
........................................................................
   1    -10.9597104 -0.109597E+02  0.746E-04    0.80       0.0  T
   2    -10.9597103  0.147421E-06  0.404E-03    0.80      11.1  T
   3    -10.9597104 -0.137313E-06  0.133E-03    0.80      33.7  T
   4    -10.9597104 -0.121321E-07  0.262E-04    0.80     170.5  T
   5    -10.9597104  0.170314E-09  0.274E-04    0.80     163.2  T
     SCC iter.                  ...        0 min,  0.001 sec
     gradient                   ...        0 min,  0.001 sec
 * total energy  :   -10.8617119 Eh     change       -0.3445383E-08 Eh
   gradient norm :     0.1456956 Eh/α   predicted     0.0000000E+00 (-100.00%)
   displ. norm   :     0.1622311 α      lambda       -0.2185418E-01
   maximum displ.:     0.1527334 α      in ANC's #3, #9, #4, ...

........................................................................
.............................. CYCLE    2 ..............................
........................................................................
   1    -10.9778307 -0.109778E+02  0.136E+00    0.85       0.0  T
   2    -10.9780103 -0.179610E-03  0.771E-01    0.86       1.0  T
   3    -10.9777005  0.309877E-03  0.263E-01    0.86       1.0  T
   4    -10.9770164  0.684040E-03  0.366E-01    0.85       1.0  T
   5    -10.9778461 -0.829663E-03  0.177E-01    0.86       1.0  T
   6    -10.9780765 -0.230442E-03  0.418E-02    0.86       1.1  T
   7    -10.9779403  0.136173E-03  0.132E-01    0.86       1.0  T
   8    -10.9780842 -0.143879E-03  0.861E-03    0.86       5.2  T
   9    -10.9780845 -0.320993E-06  0.464E-03    0.86       9.6  T
  10    -10.9780846 -0.473266E-07  0.332E-03    0.86      13.5  T
  11    -10.9780846 -0.290929E-07  0.250E-03    0.86      17.9  T
  12    -10.9780847 -0.307886E-07  0.110E-03    0.86      40.6  T
  13    -10.9780847 -0.714446E-08  0.736E-05    0.86     607.7  T
  14    -10.9780847 -0.174118E-10  0.497E-05    0.86     900.6  T
     SCC iter.                  ...        0 min,  0.001 sec
     gradient                   ...        0 min,  0.001 sec
 * total energy  :   -10.8783768 Eh     change       -0.1666491E-01 Eh
   gradient norm :     0.0775196 Eh/α   predicted    -0.1121468E-01 ( -32.70%)
   displ. norm   :     0.1843263 α      lambda       -0.1328355E-01
   maximum displ.:     0.1728538 α      in ANC's #3, #9, #4, ...

........................................................................
.............................. CYCLE    3 ..............................
........................................................................
   1    -10.9892698 -0.109893E+02  0.141E+00    0.93       0.0  T
   2    -10.9895962 -0.326371E-03  0.818E-01    0.94       1.0  T
   3    -10.9891642  0.432036E-03  0.324E-01    0.93       1.0  T
   4    -10.9874790  0.168520E-02  0.534E-01    0.93       1.0  T
   5    -10.9890728 -0.159385E-02  0.291E-01    0.93       1.0  T
   6    -10.9896689 -0.596056E-03  0.608E-02    0.93       1.0  T
   7    -10.9895893  0.795968E-04  0.114E-01    0.93       1.0  T
   8    -10.9896789 -0.896019E-04  0.374E-02    0.93       1.2  T
   9    -10.9896823 -0.337256E-05  0.291E-02    0.93       1.5  T
  10    -10.9896849 -0.263835E-05  0.193E-02    0.93       2.3  T
  11    -10.9896869 -0.198299E-05  0.405E-03    0.94      11.0  T
  12    -10.9896870 -0.888868E-07  0.647E-04    0.94      69.2  T
  13    -10.9896870  0.924985E-09  0.684E-04    0.94      65.4  T
     SCC iter.                  ...        0 min,  0.001 sec
     gradient                   ...        0 min,  0.001 sec
 * total energy  :   -10.8859273 Eh     change       -0.7550523E-02 Eh
   gradient norm :     0.0240793 Eh/α   predicted    -0.6867434E-02 (  -9.05%)
   displ. norm   :     0.0393632 α      lambda       -0.7469906E-03
   maximum displ.:     0.0267206 α      in ANC's #3, #9, #4, ...

........................................................................
.............................. CYCLE    4 ..............................
........................................................................
   1    -10.9874994 -0.109875E+02  0.316E-01    0.93       0.0  T
   2    -10.9875073 -0.786668E-05  0.205E-01    0.93       1.0  T
   3    -10.9868044  0.702864E-03  0.294E-01    0.94       1.0  T
   4    -10.9860285  0.775946E-03  0.462E-01    0.93       1.0  T
   5    -10.9874151 -0.138660E-02  0.143E-01    0.93       1.0  T
   6    -10.9874071  0.801651E-05  0.146E-01    0.93       1.0  T
   7    -10.9874121 -0.501666E-05  0.140E-01    0.93       1.0  T
   8    -10.9874850 -0.729049E-04  0.802E-02    0.94       1.0  T
   9    -10.9875241 -0.390778E-04  0.165E-02    0.94       2.7  T
  10    -10.9875249 -0.863034E-06  0.276E-03    0.94      16.2  T
  11    -10.9875250 -0.194115E-07  0.176E-03    0.94      25.4  T
  12    -10.9875250 -0.742621E-08  0.129E-03    0.94      34.5  T
  13    -10.9875250 -0.497120E-08  0.871E-04    0.94      51.3  T
  14    -10.9875250 -0.409272E-08  0.271E-04    0.94     165.3  T
     SCC iter.                  ...        0 min,  0.001 sec
     gradient                   ...        0 min,  0.001 sec
 * total energy  :   -10.8864178 Eh     change       -0.4904377E-03 Eh
   gradient norm :     0.0121199 Eh/α   predicted    -0.3740750E-03 ( -23.73%)
   displ. norm   :     0.0323431 α      lambda       -0.2774223E-03
   maximum displ.:     0.0222652 α      in ANC's #1, #9, #4, ...

........................................................................
.............................. CYCLE    5 ..............................
........................................................................
   1    -10.9848858 -0.109849E+02  0.460E-01    0.90       0.0  T
   2    -10.9841454  0.740352E-03  0.530E-01    0.89       1.0  T
   3    -10.9844172 -0.271748E-03  0.358E-01    0.90       1.0  T
   4    -10.9827163  0.170087E-02  0.592E-01    0.89       1.0  T
   5    -10.9839466 -0.123027E-02  0.412E-01    0.89       1.0  T
   6    -10.9842611 -0.314488E-03  0.356E-01    0.90       1.0  T
   7    -10.9848331 -0.571991E-03  0.161E-01    0.91       1.0  T
   8    -10.9849787 -0.145627E-03  0.626E-02    0.91       1.0  T
   9    -10.9849944 -0.157299E-04  0.395E-02    0.91       1.1  T
  10    -10.9849987 -0.431316E-05  0.269E-02    0.91       1.7  T
  11    -10.9850025 -0.373640E-05  0.119E-02    0.91       3.8  T
  12    -10.9850029 -0.402763E-06  0.289E-03    0.91      15.5  T
  13    -10.9850029 -0.176382E-07  0.758E-04    0.91      59.0  T
  14    -10.9850029 -0.853175E-09  0.446E-04    0.91     100.2  T
     SCC iter.                  ...        0 min,  0.001 sec
     gradient                   ...        0 min,  0.001 sec
 * total energy  :   -10.8867264 Eh     change       -0.3086012E-03 Eh
   gradient norm :     0.0210948 Eh/α   predicted    -0.1388569E-03 ( -55.00%)
   displ. norm   :     0.0566216 α      lambda       -0.7408932E-03
   maximum displ.:     0.0534428 α      in ANC's #1, #8, #9, ...

........................................................................
.............................. CYCLE    6 ..............................
........................................................................
   1    -10.9835414 -0.109835E+02  0.772E-01    0.85       0.0  T
   2    -10.9513298  0.322116E-01  0.175E+00    0.74       1.0  T
   3    -10.9737261 -0.223963E-01  0.112E+00    0.92       1.0  T
   4    -10.9809989 -0.727275E-02  0.743E-01    0.87       1.0  T
   5    -10.9846162 -0.361731E-02  0.308E-01    0.84       1.0  T
   6    -10.9847000 -0.838238E-04  0.244E-01    0.84       1.0  T
   7    -10.9847004 -0.358062E-06  0.247E-01    0.84       1.0  T
   8    -10.9847034 -0.302620E-05  0.111E-01    0.84       1.0  T
   9    -10.9847143 -0.109342E-04  0.887E-02    0.84       1.0  T
  10    -10.9847255 -0.112164E-04  0.444E-02    0.85       1.0  T
  11    -10.9847281 -0.252161E-05  0.179E-02    0.85       2.5  T
  12    -10.9847291 -0.104784E-05  0.602E-03    0.85       7.4  T
  13    -10.9847291 -0.146221E-07  0.401E-03    0.85      11.1  T
  14    -10.9847291 -0.881541E-08  0.555E-04    0.85      80.6  T
  15    -10.9847291 -0.145429E-08  0.169E-04    0.85     265.1  T
     SCC iter.                  ...        0 min,  0.001 sec
     gradient                   ...        0 min,  0.001 sec
 * total energy  :   -10.8876701 Eh     change       -0.9436868E-03 Eh
   gradient norm :     0.0247820 Eh/α   predicted    -0.3716341E-03 ( -60.62%)
   displ. norm   :     0.0953416 α      lambda       -0.1720354E-02
   maximum displ.:     0.0918363 α      in ANC's #1, #2, #8, ...

........................................................................
.............................. CYCLE    7 ..............................
........................................................................
   1    -10.9797403 -0.109797E+02  0.115E+00    0.81       0.0  T
   2    -10.8402834  0.139457E+00  0.379E+00    0.50       1.0  T
   3    -10.9770860 -0.136803E+00  0.110E+00    0.84       1.0  T
   4    -10.9854851 -0.839908E-02  0.468E-01    0.75       1.0  T
   5    -10.9854085  0.766080E-04  0.428E-01    0.76       1.0  T
   6    -10.9854058  0.275469E-05  0.432E-01    0.76       1.0  T
   7    -10.9855492 -0.143489E-03  0.354E-01    0.75       1.0  T
   8    -10.9857987 -0.249435E-03  0.194E-01    0.75       1.0  T
   9    -10.9858201 -0.213896E-04  0.156E-01    0.75       1.0  T
  10    -10.9858543 -0.341869E-04  0.421E-02    0.75       1.1  T
  11    -10.9858561 -0.180766E-05  0.205E-02    0.75       2.2  T
  12    -10.9858567 -0.620615E-06  0.700E-03    0.75       6.4  T
  13    -10.9858568 -0.715244E-07  0.816E-04    0.75      54.8  T
  14    -10.9858568  0.375548E-09  0.701E-04    0.75      63.8  T
     SCC iter.                  ...        0 min,  0.001 sec
     gradient                   ...        0 min,  0.001 sec
 * total energy  :   -10.8898827 Eh     change       -0.2212596E-02 Eh
   gradient norm :     0.0313296 Eh/α   predicted    -0.8679974E-03 ( -60.77%)
   displ. norm   :     0.1672539 α      lambda       -0.4792584E-02
   maximum displ.:     0.1607517 α      in ANC's #1, #2, #3, ...

........................................................................
.............................. CYCLE    8 ..............................
........................................................................
   1    -10.9842899 -0.109843E+02  0.128E+00    0.68       0.0  T
   2    -10.9639718  0.203181E-01  0.159E+00    0.23       1.0  T
   3    -10.9882895 -0.243176E-01  0.682E-01    0.63       1.0  T
   4    -10.9897494 -0.145990E-02  0.329E-01    0.55       1.0  T
   5    -10.9905631 -0.813755E-03  0.945E-02    0.55       1.0  T
   6    -10.9905746 -0.114610E-04  0.620E-02    0.56       1.0  T
   7    -10.9905830 -0.845070E-05  0.144E-02    0.55       3.1  T
   8    -10.9905836 -0.574246E-06  0.803E-03    0.55       5.6  T
   9    -10.9905837 -0.102544E-06  0.265E-03    0.55      16.9  T
  10    -10.9905837 -0.769826E-08  0.706E-04    0.55      63.3  T
  11    -10.9905837 -0.873545E-09  0.200E-04    0.55     223.3  T
     SCC iter.                  ...        0 min,  0.001 sec
     gradient                   ...        0 min,  0.001 sec
 * total energy  :   -10.8966646 Eh     change       -0.6781975E-02 Eh
   gradient norm :     0.0548029 Eh/α   predicted    -0.2463325E-02 ( -63.68%)
   displ. norm   :     0.2764907 α      lambda       -0.1365463E-01
   maximum displ.:     0.2662851 α      in ANC's #1, #2, #3, ...

........................................................................
.............................. CYCLE    9 ..............................
........................................................................
   1    -10.9982107 -0.109982E+02  0.181E+00    0.46       0.0  T
   2    -10.9908323  0.737836E-02  0.120E+00    0.25       1.0  T
   3    -10.9757337  0.150987E-01  0.179E+00    0.64       1.0  T
   4    -11.0004700 -0.247363E-01  0.262E-01    0.37       1.0  T
   5    -11.0004716 -0.160511E-05  0.229E-01    0.38       1.0  T
   6    -11.0006998 -0.228234E-03  0.114E-01    0.38       1.0  T
   7    -11.0006851  0.147046E-04  0.726E-02    0.37       1.0  T
   8    -11.0007124 -0.272987E-04  0.161E-02    0.37       2.8  T
   9    -11.0007125 -0.713851E-07  0.101E-02    0.37       4.4  T
  10    -11.0007125 -0.363986E-07  0.121E-03    0.37      36.8  T
  11    -11.0007125 -0.124778E-08  0.500E-04    0.37      89.4  T
  12    -11.0007125 -0.488232E-09  0.765E-05    0.37     584.6  T
     SCC iter.                  ...        0 min,  0.001 sec
     gradient                   ...        0 min,  0.001 sec
 * total energy  :   -10.9106122 Eh     change       -0.1394757E-01 Eh
   gradient norm :     0.0714668 Eh/α   predicted    -0.7349237E-02 ( -47.31%)
   displ. norm   :     0.9787024 α      lambda       -0.4950578E-01
   maximum displ.:     0.9397960 α      in ANC's #1, #2, #3, ...

........................................................................
.............................. CYCLE   10 ..............................
........................................................................
   1    -10.8991266 -0.108991E+02  0.107E+01    0.76       0.0  T
   2    -10.4883958  0.410731E+00  0.948E+00    0.55       1.0  T
   3    -10.6431022 -0.154706E+00  0.790E+00    1.31       1.0  T
   4    -10.9636117 -0.320509E+00  0.516E+00    0.29       1.0  T
   5    -11.0051269 -0.415152E-01  0.393E+00    0.37       1.0  T
   6    -11.0013282  0.379870E-02  0.254E+00    0.37       1.0  T
   7    -10.9838920  0.174362E-01  0.307E+00    0.35       1.0  T
   8    -11.0207179 -0.368259E-01  0.655E-01    0.30       1.0  T
   9    -11.0205359  0.181954E-03  0.504E-01    0.29       1.0  T
  10    -11.0178767  0.265922E-02  0.123E+00    0.31       1.0  T
  11    -11.0193177 -0.144105E-02  0.662E-01    0.31       1.0  T
  12    -11.0208122 -0.149445E-02  0.150E-01    0.29       1.0  T
  13    -11.0208614 -0.491608E-04  0.588E-02    0.30       1.0  T
  14    -11.0208711 -0.971617E-05  0.575E-03    0.30       7.8  T
  15    -11.0208708  0.248192E-06  0.119E-02    0.30       3.8  T
  16    -11.0208712 -0.399165E-06  0.991E-04    0.30      45.1  T
  17    -11.0208712 -0.362518E-08  0.543E-04    0.30      82.3  T
     SCC iter.                  ...        0 min,  0.001 sec
     gradient                   ...        0 min,  0.001 sec
 * total energy  :   -10.8926927 Eh     change        0.1791950E-01 Eh
   gradient norm :     0.1575921 Eh/α   predicted    -0.4846261E-01 (-370.45%)
   displ. norm   :     0.4264930 α      lambda       -0.4538612E-01
   maximum displ.:     0.4044456 α      in ANC's #1, #2, #8, ...

........................................................................
.............................. CYCLE   11 ..............................
........................................................................
   1    -10.9916202 -0.109916E+02  0.752E+00    0.08       0.0  T
   2    -10.9718785  0.197417E-01  0.450E+00    0.06       1.0  T
   3    -10.5806712  0.391207E+00  0.699E+00    0.63       1.0  T
   4    -10.9780122 -0.397341E+00  0.368E+00    0.22       1.0  T
   5    -10.9806171 -0.260494E-02  0.281E+00    0.10       1.0  T
   6    -11.0105711 -0.299539E-01  0.859E-01    0.02       1.0  T
   7    -11.0081300  0.244102E-02  0.112E+00    0.01       1.0  T
   8    -11.0093386 -0.120856E-02  0.960E-01    0.01       1.0  T
   9    -11.0124645 -0.312588E-02  0.165E-01    0.02       1.0  T
  10    -11.0124889 -0.244564E-04  0.110E-01    0.02       1.0  T
  11    -11.0125284 -0.394999E-04  0.137E-02    0.03       3.3  T
  12    -11.0125285 -0.637487E-07  0.320E-03    0.03      14.0  T
  13    -11.0125285 -0.160780E-07  0.162E-03    0.03      27.6  T
  14    -11.0125285 -0.540608E-08  0.625E-04    0.03      71.6  T
  15    -11.0125285 -0.934264E-09  0.447E-04    0.03     100.1  T
     SCC iter.                  ...        0 min,  0.001 sec
     gradient                   ...        0 min,  0.001 sec
 * total energy  :   -10.9240106 Eh     change       -0.3131794E-01 Eh
   gradient norm :     0.0959908 Eh/α   predicted    -0.2682085E-01 ( -14.36%)
   displ. norm   :     0.2536041 α      lambda       -0.1380685E-01
   maximum displ.:     0.2240005 α      in ANC's #1, #3, #9, ...

........................................................................
.............................. CYCLE   12 ..............................
........................................................................
   1    -11.0119637 -0.110120E+02  0.334E+00    0.39       0.0  T
   2    -10.8578017  0.154162E+00  0.547E+00    0.39       1.0  T
   3    -10.9830308 -0.125229E+00  0.317E+00    0.53       1.0  T
   4    -11.0144083 -0.313775E-01  0.189E+00    0.24       1.0  T
   5    -11.0203129 -0.590464E-02  0.145E+00    0.21       1.0  T
   6    -11.0212058 -0.892828E-03  0.133E+00    0.19       1.0  T
   7    -11.0211217  0.840992E-04  0.134E+00    0.19       1.0  T
   8    -11.0212368 -0.115182E-03  0.133E+00    0.19       1.0  T
   9    -11.0251224 -0.388557E-02  0.534E-01    0.06       1.0  T
  10    -11.0256071 -0.484669E-03  0.325E-01    0.07       1.0  T
  11    -11.0255316  0.754849E-04  0.366E-01    0.07       1.0  T
  12    -11.0258751 -0.343486E-03  0.774E-02    0.08       1.0  T
  13    -11.0258872 -0.121307E-04  0.381E-02    0.09       1.2  T
  14    -11.0258909 -0.364942E-05  0.900E-03    0.09       5.0  T
  15    -11.0258910 -0.121739E-06  0.605E-03    0.09       7.4  T
  16    -11.0258911 -0.969254E-07  0.749E-04    0.09      59.7  T
  17    -11.0258911 -0.109489E-08  0.381E-04    0.09     117.4  T
     SCC iter.                  ...        0 min,  0.002 sec
     gradient                   ...        0 min,  0.001 sec
 * total energy  :   -10.9356558 Eh     change       -0.1164515E-01 Eh
   gradient norm :     0.1388855 Eh/α   predicted    -0.7347412E-02 ( -36.91%)
   displ. norm   :     0.9110873 α      lambda       -0.5804350E-01
   maximum displ.:     0.7133800 α      in ANC's #1, #3, #9, ...

........................................................................
.............................. CYCLE   13 ..............................
........................................................................
   1    -11.0193728 -0.110194E+02  0.531E+00    1.29       0.0  T
   2    -10.9992906  0.200823E-01  0.337E+00    1.09       1.0  T
   3    -10.8619619  0.137329E+00  0.441E+00    1.11       1.0  T
   4    -11.0230234 -0.161061E+00  0.911E-01    1.21       1.0  T
   5    -11.0259359 -0.291258E-02  0.633E-01    1.25       1.0  T
   6    -11.0264942 -0.558222E-03  0.482E-01    1.24       1.0  T
   7    -11.0263684  0.125722E-03  0.326E-01    1.23       1.0  T
   8    -11.0267299 -0.361431E-03  0.137E-01    1.23       1.0  T
   9    -11.0267759 -0.459881E-04  0.404E-02    1.22       1.1  T
  10    -11.0267775 -0.161839E-05  0.728E-03    1.22       6.1  T
  11    -11.0267775 -0.595887E-07  0.315E-03    1.22      14.2  T
  12    -11.0267775 -0.113830E-07  0.561E-04    1.22      79.8  T
  13    -11.0267775 -0.515138E-09  0.334E-04    1.22     133.9  T
     SCC iter.                  ...        0 min,  0.001 sec
     gradient                   ...        0 min,  0.001 sec
 * total energy  :   -10.9280164 Eh     change        0.7639420E-02 Eh
   gradient norm :     0.0970735 Eh/α   predicted    -0.5311208E-01 (-795.24%)
   displ. norm   :     0.4562970 α      lambda       -0.3794057E-01
   maximum displ.:     0.4003642 α      in ANC's #1, #3, #9, ...

........................................................................
.............................. CYCLE   14 ..............................
........................................................................
   1    -11.0489128 -0.110489E+02  0.339E+00    1.66       0.0  T
   2    -11.0273874  0.215254E-01  0.261E+00    1.81       1.0  T
   3    -11.0258957  0.149165E-02  0.243E+00    1.58       1.0  T
   4    -11.0390000 -0.131043E-01  0.174E+00    1.72       1.0  T
   5    -11.0592842 -0.202842E-01  0.537E-01    1.75       1.0  T
   6    -11.0602384 -0.954187E-03  0.262E-01    1.74       1.0  T
   7    -11.0600480  0.190421E-03  0.279E-01    1.74       1.0  T
   8    -11.0603215 -0.273553E-03  0.637E-02    1.74       1.0  T
   9    -11.0603486 -0.270889E-04  0.105E-02    1.74       4.3  T
  10    -11.0603486  0.349450E-07  0.727E-03    1.74       6.2  T
  11    -11.0603487 -0.146398E-06  0.157E-03    1.74      28.5  T
  12    -11.0603487 -0.325876E-09  0.130E-03    1.74      34.5  T
  13    -11.0603487 -0.358466E-08  0.167E-04    1.74     268.4  T
  14    -11.0603487  0.300915E-11  0.506E-05    1.74     883.5  T
     SCC iter.                  ...        0 min,  0.001 sec
     gradient                   ...        0 min,  0.001 sec
 * total energy  :   -10.9595260 Eh     change       -0.3150960E-01 Eh
   gradient norm :     0.1006299 Eh/α   predicted    -0.2292005E-01 ( -27.26%)
   displ. norm   :     0.4988649 α      lambda       -0.2977181E-01
   maximum displ.:     0.4705343 α      in ANC's #1, #9, #2, ...

........................................................................
.............................. CYCLE   15 ..............................
........................................................................
   1    -11.0841436 -0.110841E+02  0.410E+00    1.28       0.0  T
   2    -11.0850843 -0.940737E-03  0.238E+00    1.01       1.0  T
   3    -11.0591375  0.259468E-01  0.185E+00    1.47       1.0  T
   4    -11.0841361 -0.249986E-01  0.667E-01    1.11       1.0  T
   5    -11.0871878 -0.305169E-02  0.196E-01    1.14       1.0  T
   6    -11.0873524 -0.164686E-03  0.111E-01    1.15       1.0  T
   7    -11.0873987 -0.462690E-04  0.461E-02    1.15       1.0  T
   8    -11.0874099 -0.112214E-04  0.106E-02    1.14       4.2  T
   9    -11.0874103 -0.391746E-06  0.567E-03    1.14       7.9  T
  10    -11.0874104 -0.109870E-06  0.452E-04    1.14      99.0  T
  11    -11.0874104 -0.601309E-09  0.125E-04    1.14     357.8  T
     SCC iter.                  ...        0 min,  0.001 sec
     gradient                   ...        0 min,  0.001 sec
 * total energy  :   -10.9638650 Eh     change       -0.4339003E-02 Eh
   gradient norm :     0.0969336 Eh/α   predicted    -0.1859051E-01 ( 328.45%)
   displ. norm   :     0.2515885 α      lambda       -0.1903287E-01
   maximum displ.:     0.2139549 α      in ANC's #1, #3, #9, ...

........................................................................
.............................. CYCLE   16 ..............................
........................................................................
   1    -11.0832387 -0.110832E+02  0.180E+00    1.67       0.0  T
   2    -11.0827792  0.459435E-03  0.114E+00    1.84       1.0  T
   3    -11.0695826  0.131966E-01  0.143E+00    1.65       1.0  T
   4    -11.0818878 -0.123052E-01  0.611E-01    1.73       1.0  T
   5    -11.0836809 -0.179302E-02  0.309E-01    1.79       1.0  T
   6    -11.0843517 -0.670829E-03  0.439E-02    1.76       1.0  T
   7    -11.0843515  0.234730E-06  0.319E-02    1.76       1.4  T
   8    -11.0843536 -0.217943E-05  0.162E-02    1.77       2.8  T
   9    -11.0843552 -0.150973E-05  0.269E-03    1.76      16.6  T
  10    -11.0843552 -0.111440E-07  0.474E-04    1.76      94.3  T
  11    -11.0843552 -0.912513E-09  0.115E-04    1.76     388.0  T
     SCC iter.                  ...        0 min,  0.001 sec
     gradient                   ...        0 min,  0.001 sec
 * total energy  :   -10.9738055 Eh     change       -0.9940480E-02 Eh
   gradient norm :     0.0578482 Eh/α   predicted    -0.1011878E-01 (   1.79%)
   displ. norm   :     0.0779286 α      lambda       -0.4036016E-02
   maximum displ.:     0.0700273 α      in ANC's #3, #9, #2, ...

........................................................................
.............................. CYCLE   17 ..............................
........................................................................
   1    -11.0907296 -0.110907E+02  0.503E-01    2.09       0.0  T
   2    -11.0903155  0.414125E-03  0.381E-01    2.13       1.0  T
   3    -11.0896010  0.714516E-03  0.482E-01    2.10       1.0  T
   4    -11.0904200 -0.819006E-03  0.252E-01    2.09       1.0  T
   5    -11.0908733 -0.453309E-03  0.286E-02    2.11       1.6  T
   6    -11.0908760 -0.273272E-05  0.130E-02    2.11       3.4  T
   7    -11.0908761 -0.812968E-07  0.104E-02    2.11       4.3  T
   8    -11.0908765 -0.405352E-06  0.227E-03    2.11      19.7  T
   9    -11.0908765 -0.186220E-07  0.821E-04    2.11      54.5  T
  10    -11.0908765 -0.852848E-09  0.511E-05    2.11     875.9  T
     SCC iter.                  ...        0 min,  0.001 sec
     gradient                   ...        0 min,  0.001 sec
 * total energy  :   -10.9767301 Eh     change       -0.2924596E-02 Eh
   gradient norm :     0.0287220 Eh/α   predicted    -0.2030264E-02 ( -30.58%)
   displ. norm   :     0.0677185 α      lambda       -0.1786078E-02
   maximum displ.:     0.0520467 α      in ANC's #3, #1, #9, ...

........................................................................
.............................. CYCLE   18 ..............................
........................................................................
   1    -11.0958294 -0.110958E+02  0.546E-01    2.26       0.0  T
   2    -11.0955516  0.277734E-03  0.359E-01    2.26       1.0  T
   3    -11.0938950  0.165663E-02  0.588E-01    2.27       1.0  T
   4    -11.0957450 -0.185001E-02  0.148E-01    2.26       1.0  T
   5    -11.0959098 -0.164797E-03  0.166E-02    2.26       2.7  T
   6    -11.0959098  0.390719E-07  0.861E-03    2.26       5.2  T
   7    -11.0959099 -0.114166E-06  0.270E-03    2.26      16.6  T
   8    -11.0959099 -0.220440E-07  0.997E-04    2.26      44.9  T
   9    -11.0959099  0.444398E-09  0.757E-04    2.26      59.1  T
     SCC iter.                  ...        0 min,  0.001 sec
     gradient                   ...        0 min,  0.001 sec
 * total energy  :   -10.9775996 Eh     change       -0.8695403E-03 Eh
   gradient norm :     0.0138388 Eh/α   predicted    -0.8971344E-03 (   3.17%)
   displ. norm   :     0.0121708 α      lambda       -0.9081335E-04
   maximum displ.:     0.0106797 α      in ANC's #2, #7, #9, ...

........................................................................
.............................. CYCLE   19 ..............................
........................................................................
   1    -11.0948365 -0.110948E+02  0.755E-02    2.27       0.0  T
   2    -11.0948009  0.356022E-04  0.868E-02    2.26       1.0  T
   3    -11.0948286 -0.277714E-04  0.572E-02    2.27       1.0  T
   4    -11.0948415 -0.128628E-04  0.139E-02    2.27       3.2  T
   5    -11.0948429 -0.135797E-05  0.504E-03    2.27       8.9  T
   6    -11.0948429 -0.368411E-07  0.316E-03    2.27      14.1  T
   7    -11.0948430 -0.554652E-07  0.507E-04    2.27      88.1  T
   8    -11.0948430 -0.586317E-09  0.247E-04    2.27     180.9  T
     SCC iter.                  ...        0 min,  0.001 sec
     gradient                   ...        0 min,  0.001 sec
 * total energy  :   -10.9776803 Eh     change       -0.8065760E-04 Eh
   gradient norm :     0.0098323 Eh/α   predicted    -0.4541355E-04 ( -43.70%)
   displ. norm   :     0.0836699 α      lambda       -0.4243060E-03
   maximum displ.:     0.0750446 α      in ANC's #2, #7, #1, ...

........................................................................
.............................. CYCLE   20 ..............................
........................................................................
   1    -11.0901706 -0.110902E+02  0.502E-01    2.36       0.0  T
   2    -11.0881526  0.201804E-02  0.626E-01    2.34       1.0  T
   3    -11.0899807 -0.182812E-02  0.362E-01    2.37       1.0  T
   4    -11.0905068 -0.526121E-03  0.609E-02    2.36       1.0  T
   5    -11.0905284 -0.215585E-04  0.248E-02    2.36       1.8  T
   6    -11.0905290 -0.581166E-06  0.911E-03    2.36       4.9  T
   7    -11.0905290 -0.665719E-07  0.732E-03    2.36       6.1  T
   8    -11.0905294 -0.356046E-06  0.239E-03    2.36      18.7  T
   9    -11.0905294 -0.212032E-07  0.115E-03    2.36      39.0  T
  10    -11.0905294 -0.391884E-08  0.127E-04    2.36     353.2  T
  11    -11.0905294 -0.307772E-10  0.168E-05    2.36    2663.2  T
     SCC iter.                  ...        0 min,  0.001 sec
     gradient                   ...        0 min,  0.001 sec
 * total energy  :   -10.9779539 Eh     change       -0.2736845E-03 Eh
   gradient norm :     0.0120484 Eh/α   predicted    -0.2136386E-03 ( -21.94%)
   displ. norm   :     0.0756554 α      lambda       -0.2013593E-03
   maximum displ.:     0.0698050 α      in ANC's #2, #7, #1, ...
 * RMSD in coord.:     0.6858295 α      energy gain  -0.1162420E+00 Eh

generating ANC from model Hessian ...
Using Lindh-Hessian (1995)
 Shifting diagonal of input Hessian by    0.0000000000000000     
 Lowest  eigenvalues of input Hessian
   -0.000000   -0.000000   -0.000000    0.000000    0.000000    0.000000
    0.166406    0.407331    0.603466    0.800673    0.829930    0.981683
    1.289569    1.364395    1.540595
 Highest eigenvalues
    0.800673    0.829930    0.981683    1.289569    1.364395    1.540595


........................................................................
.............................. CYCLE   21 ..............................
........................................................................
   1    -11.0878536 -0.110879E+02  0.466E-01    2.50       0.0  T
   2    -11.0861823  0.167131E-02  0.561E-01    2.48       1.0  T
   3    -11.0876133 -0.143102E-02  0.351E-01    2.51       1.0  T
   4    -11.0881159 -0.502614E-03  0.793E-02    2.49       1.0  T
   5    -11.0881586 -0.426457E-04  0.207E-02    2.49       2.2  T
   6    -11.0881578  0.786892E-06  0.164E-02    2.49       2.7  T
   7    -11.0881589 -0.115133E-05  0.594E-03    2.49       7.5  T
   8    -11.0881591 -0.223561E-06  0.208E-03    2.49      21.5  T
   9    -11.0881592 -0.135025E-07  0.242E-04    2.49     185.1  T
  10    -11.0881592 -0.135291E-09  0.109E-04    2.49     411.5  T
     SCC iter.                  ...        0 min,  0.001 sec
     gradient                   ...        0 min,  0.001 sec
 * total energy  :   -10.9781226 Eh     change       -0.1687014E-03 Eh
   gradient norm :     0.0215010 Eh/α   predicted     0.0000000E+00 (-100.00%)
   displ. norm   :     0.0337606 α      lambda       -0.4743562E-03
   maximum displ.:     0.0289157 α      in ANC's #1, #9, #2, ...

........................................................................
.............................. CYCLE   22 ..............................
........................................................................
   1    -11.0915767 -0.110916E+02  0.191E-01    2.57       0.0  T
   2    -11.0915322  0.445129E-04  0.139E-01    2.57       1.0  T
   3    -11.0913938  0.138409E-03  0.188E-01    2.58       1.0  T
   4    -11.0915688 -0.175018E-03  0.576E-02    2.57       1.0  T
   5    -11.0915926 -0.237869E-04  0.159E-02    2.57       2.8  T
   6    -11.0915933 -0.701610E-06  0.919E-03    2.57       4.9  T
   7    -11.0915934 -0.102886E-06  0.486E-03    2.57       9.2  T
   8    -11.0915936 -0.154199E-06  0.751E-04    2.57      59.6  T
   9    -11.0915936 -0.611140E-09  0.245E-04    2.57     182.7  T
     SCC iter.                  ...        0 min,  0.001 sec
     gradient                   ...        0 min,  0.001 sec
 * total energy  :   -10.9785188 Eh     change       -0.3962123E-03 Eh
   gradient norm :     0.0116915 Eh/α   predicted    -0.2374480E-03 ( -40.07%)
   displ. norm   :     0.1218144 α      lambda       -0.1055711E-02
   maximum displ.:     0.1073186 α      in ANC's #1, #2, #9, ...

........................................................................
.............................. CYCLE   23 ..............................
........................................................................
   1    -11.0973196 -0.110973E+02  0.766E-01    2.89       0.0  T
   2    -11.0965359  0.783709E-03  0.548E-01    2.88       1.0  T
   3    -11.0949820  0.155392E-02  0.709E-01    2.91       1.0  T
   4    -11.0970818 -0.209982E-02  0.259E-01    2.88       1.0  T
   5    -11.0976233 -0.541520E-03  0.441E-02    2.89       1.0  T
   6    -11.0976281 -0.477359E-05  0.207E-02    2.89       2.2  T
   7    -11.0976275  0.598772E-06  0.115E-02    2.89       3.9  T
   8    -11.0976284 -0.878858E-06  0.317E-03    2.89      14.1  T
   9    -11.0976284 -0.503941E-07  0.122E-03    2.89      36.7  T
  10    -11.0976284 -0.176711E-08  0.120E-04    2.89     373.4  T
  11    -11.0976284 -0.191278E-10  0.207E-05    2.89    2163.8  T
     SCC iter.                  ...        0 min,  0.001 sec
     gradient                   ...        0 min,  0.001 sec
 * total energy  :   -10.9792537 Eh     change       -0.7348853E-03 Eh
   gradient norm :     0.0183319 Eh/α   predicted    -0.5356871E-03 ( -27.11%)
   displ. norm   :     0.1678215 α      lambda       -0.9411391E-03
   maximum displ.:     0.1482035 α      in ANC's #1, #2, #9, ...

........................................................................
.............................. CYCLE   24 ..............................
........................................................................
   1    -11.0985739 -0.110986E+02  0.120E+00    3.42       0.0  T
   2    -11.0963519  0.222201E-02  0.853E-01    3.40       1.0  T
   3    -11.0939780  0.237384E-02  0.105E+00    3.45       1.0  T
   4    -11.0977417 -0.376362E-02  0.453E-01    3.39       1.0  T
   5    -11.0994758 -0.173411E-02  0.817E-02    3.42       1.0  T
   6    -11.0994841 -0.836435E-05  0.475E-02    3.42       1.0  T
   7    -11.0994866 -0.242552E-05  0.175E-02    3.42       2.5  T
   8    -11.0994881 -0.151879E-05  0.757E-03    3.42       5.9  T
   9    -11.0994884 -0.349742E-06  0.351E-03    3.42      12.7  T
  10    -11.0994885 -0.362753E-07  0.217E-04    3.42     206.0  T
  11    -11.0994885 -0.507896E-10  0.739E-05    3.42     604.8  T
     SCC iter.                  ...        0 min,  0.001 sec
     gradient                   ...        0 min,  0.001 sec
 * total energy  :   -10.9799959 Eh     change       -0.7421303E-03 Eh
   gradient norm :     0.0323875 Eh/α   predicted    -0.4838218E-03 ( -34.81%)
   displ. norm   :     0.3013832 α      lambda       -0.1733856E-02
   maximum displ.:     0.2570298 α      in ANC's #1, #2, #3, ...

........................................................................
.............................. CYCLE   25 ..............................
........................................................................
   1    -11.0929128 -0.110929E+02  0.248E+00    4.05       0.0  T
   2    -11.0906733  0.223950E-02  0.147E+00    4.08       1.0  T
   3    -11.0845047  0.616861E-02  0.151E+00    4.04       1.0  T
   4    -11.0915277 -0.702301E-02  0.742E-01    4.03       1.0  T
   5    -11.0962365 -0.470881E-02  0.220E-01    4.11       1.0  T
   6    -11.0963278 -0.912793E-04  0.149E-01    4.11       1.0  T
   7    -11.0963325 -0.476415E-05  0.106E-01    4.11       1.0  T
   8    -11.0963700 -0.374831E-04  0.113E-02    4.11       4.0  T
   9    -11.0963703 -0.319174E-06  0.873E-03    4.11       5.1  T
  10    -11.0963705 -0.181944E-06  0.495E-04    4.11      90.3  T
  11    -11.0963705 -0.604985E-09  0.192E-04    4.11     232.6  T
     SCC iter.                  ...        0 min,  0.001 sec
     gradient                   ...        0 min,  0.001 sec
 * total energy  :   -10.9809095 Eh     change       -0.9136468E-03 Eh
   gradient norm :     0.0377221 Eh/α   predicted    -0.9456764E-03 (   3.51%)
   displ. norm   :     0.0456020 α      lambda       -0.1128657E-02
   maximum displ.:     0.0409181 α      in ANC's #2, #8, #5, ...

........................................................................
.............................. CYCLE   26 ..............................
........................................................................
   1    -11.0951888 -0.110952E+02  0.399E-01    4.12       0.0  T
   2    -11.0949402  0.248662E-03  0.300E-01    4.09       1.0  T
   3    -11.0947932  0.146980E-03  0.291E-01    4.12       1.0  T
   4    -11.0951936 -0.400449E-03  0.141E-01    4.11       1.0  T
   5    -11.0953399 -0.146290E-03  0.232E-02    4.11       1.9  T
   6    -11.0953409 -0.100778E-05  0.150E-02    4.11       3.0  T
   7    -11.0953413 -0.391246E-06  0.951E-03    4.11       4.7  T
   8    -11.0953417 -0.373938E-06  0.144E-03    4.11      31.2  T
   9    -11.0953417 -0.303753E-08  0.651E-04    4.11      68.7  T
  10    -11.0953417 -0.597701E-09  0.467E-05    4.11     957.9  T
     SCC iter.                  ...        0 min,  0.001 sec
     gradient                   ...        0 min,  0.001 sec
 * total energy  :   -10.9817822 Eh     change       -0.8726679E-03 Eh
   gradient norm :     0.0229315 Eh/α   predicted    -0.5655005E-03 ( -35.20%)
   displ. norm   :     0.0590292 α      lambda       -0.9462721E-03
   maximum displ.:     0.0442119 α      in ANC's #2, #5, #8, ...

........................................................................
.............................. CYCLE   27 ..............................
........................................................................
   1    -11.0919339 -0.110919E+02  0.504E-01    4.10       0.0  T
   2    -11.0917047  0.229130E-03  0.353E-01    4.08       1.0  T
   3    -11.0911233  0.581450E-03  0.366E-01    4.10       1.0  T
   4    -11.0919243 -0.801052E-03  0.157E-01    4.09       1.0  T
   5    -11.0921048 -0.180414E-03  0.292E-02    4.09       1.5  T
   6    -11.0921065 -0.174961E-05  0.199E-02    4.09       2.2  T
   7    -11.0921074 -0.886577E-06  0.965E-03    4.09       4.6  T
   8    -11.0921078 -0.382337E-06  0.210E-03    4.09      21.3  T
   9    -11.0921078 -0.732926E-08  0.899E-04    4.09      49.8  T
  10    -11.0921078 -0.917781E-09  0.778E-05    4.09     575.1  T
     SCC iter.                  ...        0 min,  0.001 sec
     gradient                   ...        0 min,  0.001 sec
 * total energy  :   -10.9822931 Eh     change       -0.5108773E-03 Eh
   gradient norm :     0.0074013 Eh/α   predicted    -0.4747829E-03 (  -7.07%)
   displ. norm   :     0.0156463 α      lambda       -0.7720166E-04
   maximum displ.:     0.0090458 α      in ANC's #1, #3, #5, ...

........................................................................
.............................. CYCLE   28 ..............................
........................................................................
   1    -11.0914238 -0.110914E+02  0.102E-01    4.10       0.0  T
   2    -11.0914242 -0.319558E-06  0.573E-02    4.10       1.0  T
   3    -11.0914069  0.173107E-04  0.450E-02    4.10       1.0  T
   4    -11.0914250 -0.181319E-04  0.554E-03    4.10       8.1  T
   5    -11.0914249  0.410308E-07  0.420E-03    4.10      10.6  T
   6    -11.0914250 -0.716008E-07  0.106E-03    4.10      42.1  T
   7    -11.0914250 -0.770982E-08  0.479E-04    4.10      93.4  T
   8    -11.0914250 -0.830287E-09  0.174E-04    4.10     256.8  T
     SCC iter.                  ...        0 min,  0.001 sec
     gradient                   ...        0 min,  0.002 sec
 * total energy  :   -10.9823488 Eh     change       -0.5577257E-04 Eh
   gradient norm :     0.0063765 Eh/α   predicted    -0.3861028E-04 ( -30.77%)
   displ. norm   :     0.0694129 α      lambda       -0.2139324E-03
   maximum displ.:     0.0439397 α      in ANC's #1, #2, #3, ...

........................................................................
.............................. CYCLE   29 ..............................
........................................................................
   1    -11.0896866 -0.110897E+02  0.624E-01    4.13       0.0  T
   2    -11.0896483  0.383639E-04  0.371E-01    4.11       1.0  T
   3    -11.0887232  0.925089E-03  0.384E-01    4.13       1.0  T
   4    -11.0896400 -0.916794E-03  0.149E-01    4.13       1.0  T
   5    -11.0898226 -0.182660E-03  0.306E-02    4.12       1.5  T
   6    -11.0898258 -0.321099E-05  0.190E-02    4.12       2.4  T
   7    -11.0898272 -0.135529E-05  0.343E-03    4.12      13.0  T
   8    -11.0898272 -0.428830E-07  0.136E-03    4.12      32.9  T
   9    -11.0898272 -0.122846E-08  0.459E-04    4.12      97.5  T
  10    -11.0898272 -0.376309E-09  0.911E-05    4.12     491.0  T
     SCC iter.                  ...        0 min,  0.001 sec
     gradient                   ...        0 min,  0.001 sec
 * total energy  :   -10.9824844 Eh     change       -0.1355619E-03 Eh
   gradient norm :     0.0111401 Eh/α   predicted    -0.1074818E-03 ( -20.71%)
   displ. norm   :     0.0505360 α      lambda       -0.1878238E-03
   maximum displ.:     0.0267540 α      in ANC's #2, #3, #4, ...

........................................................................
.............................. CYCLE   30 ..............................
........................................................................
   1    -11.0901800 -0.110902E+02  0.459E-01    4.15       0.0  T
   2    -11.0899896  0.190417E-03  0.315E-01    4.14       1.0  T
   3    -11.0892482  0.741393E-03  0.361E-01    4.15       1.0  T
   4    -11.0902299 -0.981724E-03  0.919E-02    4.15       1.0  T
   5    -11.0902892 -0.592807E-04  0.232E-02    4.15       1.9  T
   6    -11.0902902 -0.102208E-05  0.157E-02    4.15       2.9  T
   7    -11.0902912 -0.974180E-06  0.239E-03    4.15      18.7  T
   8    -11.0902912 -0.208957E-07  0.924E-04    4.15      48.4  T
   9    -11.0902912 -0.287613E-09  0.370E-04    4.15     121.0  T
     SCC iter.                  ...        0 min,  0.001 sec
     gradient                   ...        0 min,  0.001 sec
 * total energy  :   -10.9826167 Eh     change       -0.1323221E-03 Eh
   gradient norm :     0.0093640 Eh/α   predicted    -0.9415298E-04 ( -28.85%)
   displ. norm   :     0.0361317 α      lambda       -0.1560977E-03
   maximum displ.:     0.0213064 α      in ANC's #2, #4, #1, ...

........................................................................
.............................. CYCLE   31 ..............................
........................................................................
   1    -11.0917899 -0.110918E+02  0.338E-01    4.16       0.0  T
   2    -11.0915930  0.196905E-03  0.269E-01    4.16       1.0  T
   3    -11.0914532  0.139832E-03  0.238E-01    4.16       1.0  T
   4    -11.0918522 -0.399000E-03  0.583E-02    4.16       1.0  T
   5    -11.0918737 -0.214681E-04  0.189E-02    4.16       2.4  T
   6    -11.0918738 -0.992117E-07  0.140E-02    4.16       3.2  T
   7    -11.0918748 -0.101318E-05  0.149E-03    4.16      30.0  T
   8    -11.0918748 -0.545338E-08  0.700E-04    4.16      63.9  T
   9    -11.0918748 -0.104093E-09  0.248E-04    4.16     180.0  T
     SCC iter.                  ...        0 min,  0.001 sec
     gradient                   ...        0 min,  0.001 sec
 * total energy  :   -10.9827080 Eh     change       -0.9128709E-04 Eh
   gradient norm :     0.0033523 Eh/α   predicted    -0.7815007E-04 ( -14.39%)
   displ. norm   :     0.0084987 α      lambda       -0.2081156E-04
   maximum displ.:     0.0050733 α      in ANC's #2, #5, #1, ...

........................................................................
.............................. CYCLE   32 ..............................
........................................................................
   1    -11.0921039 -0.110921E+02  0.708E-02    4.16       0.0  T
   2    -11.0920971  0.682441E-05  0.531E-02    4.15       1.0  T
   3    -11.0920828  0.143061E-04  0.539E-02    4.15       1.0  T
   4    -11.0921065 -0.237044E-04  0.654E-03    4.15       6.8  T
   5    -11.0921067 -0.142779E-06  0.379E-03    4.15      11.8  T
   6    -11.0921067 -0.169276E-07  0.208E-03    4.15      21.5  T
   7    -11.0921067 -0.305970E-07  0.268E-04    4.15     166.8  T
   8    -11.0921067 -0.635136E-10  0.136E-04    4.15     329.4  T
     SCC iter.                  ...        0 min,  0.001 sec
     gradient                   ...        0 min,  0.001 sec
 * total energy  :   -10.9827203 Eh     change       -0.1229323E-04 Eh
   gradient norm :     0.0019892 Eh/α   predicted    -0.1040584E-04 ( -15.35%)
   displ. norm   :     0.0045138 α      lambda       -0.4077326E-05
   maximum displ.:     0.0028439 α      in ANC's #2, #5, #4, ...

........................................................................
.............................. CYCLE   33 ..............................
........................................................................
   1    -11.0918469 -0.110918E+02  0.389E-02    4.15       0.0  T
   2    -11.0918446  0.225219E-05  0.298E-02    4.15       1.5  T
   3    -11.0918412  0.339618E-05  0.287E-02    4.15       1.6  T
   4    -11.0918477 -0.642048E-05  0.472E-03    4.15       9.5  T
   5    -11.0918478 -0.122790E-06  0.212E-03    4.15      21.1  T
   6    -11.0918478 -0.724366E-08  0.137E-03    4.15      32.5  T
   7    -11.0918478 -0.820086E-08  0.234E-04    4.15     191.4  T
   8    -11.0918478 -0.241288E-09  0.886E-05    4.15     504.8  T
     SCC iter.                  ...        0 min,  0.001 sec
     gradient                   ...        0 min,  0.001 sec
 * total energy  :   -10.9827241 Eh     change       -0.3843252E-05 Eh
   gradient norm :     0.0012809 Eh/α   predicted    -0.2037149E-05 ( -46.99%)
   displ. norm   :     0.0112133 α      lambda       -0.3450133E-05
   maximum displ.:     0.0077251 α      in ANC's #2, #1, #4, ...

........................................................................
.............................. CYCLE   34 ..............................
........................................................................
   1    -11.0915757 -0.110916E+02  0.106E-01    4.14       0.0  T
   2    -11.0915639  0.118783E-04  0.727E-02    4.14       1.0  T
   3    -11.0915134  0.504943E-04  0.907E-02    4.14       1.0  T
   4    -11.0915802 -0.668599E-04  0.599E-03    4.14       7.5  T
   5    -11.0915802  0.379039E-07  0.480E-03    4.14       9.3  T
   6    -11.0915803 -0.120016E-06  0.132E-03    4.14      33.8  T
   7    -11.0915803 -0.923548E-08  0.301E-04    4.14     148.7  T
   8    -11.0915803 -0.173017E-10  0.149E-04    4.14     299.3  T
     SCC iter.                  ...        0 min,  0.001 sec
     gradient                   ...        0 min,  0.001 sec
 * total energy  :   -10.9827259 Eh     change       -0.1768808E-05 Eh
   gradient norm :     0.0012673 Eh/α   predicted    -0.1726196E-05 (  -2.41%)
   displ. norm   :     0.0077591 α      lambda       -0.4393570E-05
   maximum displ.:     0.0054992 α      in ANC's #1, #4, #3, ...

........................................................................
.............................. CYCLE   35 ..............................
........................................................................
   1    -11.0912090 -0.110912E+02  0.532E-02    4.14       0.0  T
   2    -11.0912090  0.983257E-07  0.311E-02    4.15       1.4  T
   3    -11.0912056  0.332722E-05  0.289E-02    4.14       1.5  T
   4    -11.0912096 -0.402637E-05  0.967E-03    4.14       4.6  T
   5    -11.0912104 -0.714031E-06  0.324E-03    4.14      13.8  T
   6    -11.0912104 -0.538712E-07  0.170E-03    4.14      26.3  T
   7    -11.0912104 -0.133757E-07  0.718E-04    4.14      62.3  T
   8    -11.0912104 -0.177586E-08  0.113E-04    4.14     396.6  T
     SCC iter.                  ...        0 min,  0.001 sec
     gradient                   ...        0 min,  0.002 sec
 * total energy  :   -10.9827283 Eh     change       -0.2387807E-05 Eh
   gradient norm :     0.0016557 Eh/α   predicted    -0.2196683E-05 (  -8.00%)
   displ. norm   :     0.0021071 α      lambda       -0.1673246E-05
   maximum displ.:     0.0011274 α      in ANC's #9, #2, #3, ...

........................................................................
.............................. CYCLE   36 ..............................
........................................................................
   1    -11.0915162 -0.110915E+02  0.167E-02    4.15       0.0  T
   2    -11.0915159  0.311002E-06  0.122E-02    4.15       3.7  T
   3    -11.0915156  0.318835E-06  0.112E-02    4.15       4.0  T
   4    -11.0915163 -0.686977E-06  0.440E-03    4.15      10.2  T
   5    -11.0915165 -0.159553E-06  0.960E-04    4.15      46.6  T
   6    -11.0915165 -0.340302E-08  0.477E-04    4.15      93.7  T
     SCC iter.                  ...        0 min,  0.001 sec
     gradient                   ...        0 min,  0.001 sec
 * total energy  :   -10.9827299 Eh     change       -0.1645427E-05 Eh
   gradient norm :     0.0005515 Eh/α   predicted    -0.8364512E-06 ( -49.17%)
   displ. norm   :     0.0022090 α      lambda       -0.4775597E-06
   maximum displ.:     0.0013463 α      in ANC's #4, #3, #2, ...

   *** GEOMETRY OPTIMIZATION CONVERGED AFTER 36 ITERATIONS ***

------------------------------------------------------------------------
 total energy gain   :        -0.1210180 Eh      -75.9400 kcal/mol
 total RMSD          :         0.7897562 a0        0.4179 Å
 total power (kW/mol):        -8.8259110 (step)-2284.3987 (real)
------------------------------------------------------------------------

 ANCopt (total)                0 d,  0 h,  0 min,  0.139 sec
 optimizer setup                ...        0 min,  0.000 sec (  0.042%)
 model hessian                  ...        0 min,  0.000 sec (  0.106%)
 ANC generation                 ...        0 min,  0.000 sec (  0.081%)
 coordinate transformation      ...        0 min,  0.000 sec (  0.053%)
 single point calculation       ...        0 min,  0.136 sec ( 97.926%)
 optimization log               ...        0 min,  0.001 sec (  0.573%)
 hessian update                 ...        0 min,  0.000 sec (  0.050%)
 rational function              ...        0 min,  0.001 sec (  0.531%)

================
 final structure:
================
5
 xtb: 6.2.2 (9d81278992624c895f80dd42a50cac0aa55982e2)
C         0.19376860607207    1.03764249676777    0.01170261146231
N        -0.23438482559755    0.08465255034890    0.98987727752757
C        -0.20942462500217    0.09922985559769   -1.05599948370968
C         0.84063244926423   -0.34660172353924    0.06544264707097
C        -0.59059160473658   -0.87492317917512   -0.01102305235118

 Bond Distances (Angstroems)
 ---------------------------
C1-N2=1.4312         C1-C3=1.4776         C1-C4=1.5289         N2-C1=1.4312         N2-C4=1.4820         N2-C5=1.4316         
C3-C1=1.4776         C3-C4=1.5997         C3-C5=1.4786         C4-C1=1.5289         C4-N2=1.4820         C4-C3=1.5997         
C4-C5=1.5275         C5-N2=1.4316         C5-C3=1.4786         C5-C4=1.5275         
 C  C  Rav=1.5225 sigma=0.0447  Rmin=1.4776  Rmax=1.5997     5
 N  C  Rav=1.4483 sigma=0.0238  Rmin=1.4312  Rmax=1.4820     3

 selected bond angles (degree)
 --------------------
C3-C1-N2= 89.39                C4-C1-N2= 59.98                C4-C1-C3= 64.27                C4-N2-C1= 63.28                
C5-N2-C1= 92.46                C5-N2-C4= 63.21                C4-C3-C1= 59.42                C5-C3-C1= 88.74                
C5-C3-C4= 59.35                N2-C4-C1= 56.74                C3-C4-C1= 56.31                C3-C4-N2= 83.11                
C5-C4-C1= 85.12                C5-C4-N2= 56.78                C5-C4-C3= 56.38                C3-C5-N2= 89.33                
C4-C5-N2= 60.00                C4-C5-C3= 64.28                

 selected dihedral angles (degree)
 ---------------------------------
C4-N2-C1-C3= 60.31            C5-N2-C1-C3=  2.09            C5-N2-C1-C4=301.78            C4-C3-C1-N2=303.39            
C5-C3-C1-N2=357.98            C5-C3-C1-C4= 54.59            N2-C4-C1-C3=254.64            C3-C4-C1-N2=105.36            
C5-C4-C1-N2= 53.02            C5-C4-C1-C3=307.66            C1-C4-N2-C5=107.93            C3-C4-N2-C1=306.08            
C3-C4-N2-C5= 54.02            C5-C4-N2-C1=252.07            C1-C4-C3-C5=251.30            N2-C4-C3-C1= 54.31            
N2-C4-C3-C5=305.61            C5-C4-C3-C1=108.70            C3-C5-N2-C1=357.91            C3-C5-N2-C4=299.63            
C4-C5-N2-C1= 58.28            N2-C5-C3-C1=  2.02            N2-C5-C3-C4= 56.68            C4-C5-C3-C1=305.34            
N2-C5-C4-C1=307.02            N2-C5-C4-C3=254.74            C3-C5-C4-C1= 52.28            C3-C5-C4-N2=105.26            
           -------------------------------------------------
          |                Final Singlepoint                |
           -------------------------------------------------

          ...................................................
          :                      SETUP                      :
          :.................................................:
          :  # basis functions                  20          :
          :  # atomic orbitals                  20          :
          :  # shells                           10          :
          :  # electrons                        21          :
          :  max. iterations                   250          :
          :  Hamiltonian                  GFN2-xTB          :
          :  restarted?                      false          :
          :  GBSA solvation                  false          :
          :  PC potential                    false          :
          :  electronic temp.          300.0000000     K    :
          :  accuracy                    1.0000000          :
          :  -> integral cutoff          0.2500000E+02      :
          :  -> integral neglect         0.1000000E-07      :
          :  -> SCF convergence          0.1000000E-05 Eh   :
          :  -> wf. convergence          0.1000000E-03 e    :
          :  Broyden damping             0.4000000          :
          ...................................................

 iter      E             dE          RMSdq      gap      omega  full diag
   1    -11.0915165 -0.110915E+02  0.182E-04    4.15       0.0  T
   2    -11.0915165 -0.576303E-10  0.127E-04    4.15     352.6  T
   3    -11.0915165 -0.909761E-10  0.434E-05    4.15    1031.0  T

   *** convergence criteria satisfied after 3 iterations ***

         #    Occupation            Energy/Eh            Energy/eV
      -------------------------------------------------------------
         1        2.0000           -0.7835825             -21.3224
       ...           ...                  ...                  ...
         6        2.0000           -0.5187738             -14.1166
         7        2.0000           -0.5150781             -14.0160
         8        2.0000           -0.4916360             -13.3781
         9        2.0000           -0.4833023             -13.1513
        10        1.0000           -0.4627741             -12.5927
        11        1.0000           -0.4082994             -11.1104
        12        1.0000           -0.3993238             -10.8662 (HOMO)
        13                         -0.2469260              -6.7192 (LUMO)
        14                         -0.1695204              -4.6129
        15                         -0.1428438              -3.8870
        16                          0.0077483               0.2108
        17                          0.0677871               1.8446
       ...                                ...                  ...
        20                          0.3316629               9.0250
      -------------------------------------------------------------
                  HL-Gap            0.1523978 Eh            4.1470 eV
             Fermi-level           -0.3980815 Eh          -10.8323 eV

 SCC (total)                   0 d,  0 h,  0 min,  0.003 sec
 SCC setup                      ...        0 min,  0.000 sec (  1.747%)
 Dispersion                     ...        0 min,  0.000 sec (  0.409%)
 integral evaluation            ...        0 min,  0.001 sec ( 39.064%)
 zeroth order Hamiltonian       ...        0 min,  0.000 sec (  0.528%)
 iterations                     ...        0 min,  0.000 sec ( 12.375%)
 molecular gradient             ...        0 min,  0.001 sec ( 43.709%)
 printout                       ...        0 min,  0.000 sec (  1.903%)

         :::::::::::::::::::::::::::::::::::::::::::::::::::::
         ::                     SUMMARY                     ::
         :::::::::::::::::::::::::::::::::::::::::::::::::::::
         :: total energy             -10.982729939535 Eh    ::
         :: gradient norm              0.000555100323 Eh/a0 ::
         :: HOMO-LUMO gap              4.146955211932 eV    ::
         ::.................................................::
         :: SCC energy               -11.091516468796 Eh    ::
         :: -> isotropic ES           -0.002927752674 Eh    ::
         :: -> anisotropic ES          0.004073032819 Eh    ::
         :: -> anisotropic XC          0.003739410435 Eh    ::
         :: -> dispersion             -0.002597236650 Eh    ::
         :: repulsion energy           0.108786512210 Eh    ::
         :: add. restraining           0.000000000000 Eh    ::
         :::::::::::::::::::::::::::::::::::::::::::::::::::::

           ------------------------------------------------- 
          |                Numerical Hessian                |
           ------------------------------------------------- 
step length          :   0.00500
SCC accuracy         :   0.30000
Hessian scale factor :   1.00000
frozen atoms in %    :   0.00000    0
RMS gradient         :   0.00056
estimated CPU  time      0.00 min
estimated wall time      0.00 min

writing file <hessian>.

 projected vibrational frequencies (cm-1)
eigval :       -0.00    -0.00    -0.00     0.00     0.00     0.00
eigval :      267.86   412.35   549.82   889.03   997.35  1054.85
eigval :     1137.25  1159.97  1406.30
           -------------------------------------------------
          |                Property Printout                |
           -------------------------------------------------

    * Orbital Energies and Occupations

         #    Occupation            Energy/Eh            Energy/eV
      -------------------------------------------------------------
         1        2.0000           -0.7835823             -21.3224
         2        2.0000           -0.6702619             -18.2388
         3        2.0000           -0.6679070             -18.1747
         4        2.0000           -0.6322537             -17.2045
         5        2.0000           -0.5635419             -15.3348
         6        2.0000           -0.5187736             -14.1165
         7        2.0000           -0.5150780             -14.0160
         8        2.0000           -0.4916359             -13.3781
         9        2.0000           -0.4833021             -13.1513
        10        1.0000           -0.4627741             -12.5927
        11        1.0000           -0.4082993             -11.1104
        12        1.0000           -0.3993236             -10.8661 (HOMO)
        13                         -0.2469259              -6.7192 (LUMO)
        14                         -0.1695204              -4.6129
        15                         -0.1428437              -3.8870
        16                          0.0077484               0.2108
        17                          0.0677872               1.8446
        18                          0.1026215               2.7925
        19                          0.1145153               3.1161
        20                          0.3316631               9.0250
      -------------------------------------------------------------
                  HL-Gap            0.1523977 Eh            4.1470 eV
             Fermi-level           -0.3980814 Eh          -10.8323 eV

     #   Z        covCN         q      C6AA      α(0)
     1   6 C      3.215    -0.014    27.664     8.557
     2   7 N      2.990    -0.079    22.768     7.087
     3   6 C      3.188    -0.009    27.767     8.597
     4   6 C      3.819     0.116    18.677     6.150
     5   6 C      3.215    -0.014    27.669     8.558

 Mol. C6AA /au·bohr⁶  :        617.872463
 Mol. C8AA /au·bohr⁸  :      17013.092800
 Mol. α(0) /au        :         38.949262


Wiberg/Mayer (AO) data.
largest (>0.10) Wiberg bond orders for each atom
          total WBO             WBO to atom ...
     1  C   2.793        N    2 0.939    C    3 0.917    C    4 0.737    C    5 0.200
     2  N   2.836        C    1 0.939    C    5 0.938    C    4 0.813    C    3 0.145
     3  C   2.608        C    1 0.917    C    5 0.914    C    4 0.632    N    2 0.145
     4  C   2.921        N    2 0.813    C    5 0.739    C    1 0.737    C    3 0.632
     5  C   2.791        N    2 0.938    C    3 0.914    C    4 0.739    C    1 0.200

MOs/occ written to file <molden.input>


molecular dipole:
                 x           y           z       tot (Debye)
 q only:        0.233      -0.094      -0.115
   full:        0.494      -0.201       0.085       1.373
molecular quadrupole (traceless):
                xx          xy          yy          xz          yz          zz
 q only:        0.434      -0.224      -0.015       0.120      -0.046      -0.418
  q+dip:        1.404      -1.158      -0.939       0.390      -0.170      -0.465
   full:        1.975      -1.619      -1.299       0.373      -0.169      -0.676

           -------------------------------------------------
          |                Geometry Summary                 |
           -------------------------------------------------

      molecular mass/u    :       62.0496468
   center of mass at/Å    :       -0.0075394       0.0027231       0.0318417
  moments of inertia/u·Å² :        0.3820427E+02   0.3965267E+02   0.5277803E+02
rotational constants/cm⁻¹ :        0.4412500E+00   0.4251323E+00   0.3194062E+00

 * 3 selected distances

     #   Z        #   Z                                     value/Å
     1   6 C      2   7 N                                 1.4311991 (min)
     2   7 N      4   6 C                                 1.4819655 (max)
     2   7 N      5   6 C                                 1.4315971

 * 1 distinct bonds (by element types)

   Z      Z             #   av. dist./Å        max./Å        min./Å
   6 C    7 N           3     1.4482539     1.4819655     1.4311991

           -------------------------------------------------
Molecule has the following symmetry elements: (sigma) 
It seems to be the Cs point group
          |               Frequency Printout                |
           -------------------------------------------------
 projected vibrational frequencies (cm-1)
eigval :       -0.00    -0.00    -0.00     0.00     0.00     0.00
eigval :      267.86   412.35   549.82   889.03   997.35  1054.85
eigval :     1137.25  1159.97  1406.30
 reduced masses (amu)
   1: 12.62   2: 12.53   3: 12.27   4: 12.28   5: 12.60   6: 12.33   7: 12.31   8: 12.03
   9: 12.75  10: 12.32  11: 12.52  12: 12.53  13: 12.48  14: 12.20  15: 12.37
 IR intensities (amu)
   1:  0.15   2:  0.02   3:  0.03   4:  0.16   5:  0.12   6:  0.12   7:  1.20   8:  0.28
   9:  0.62  10:  0.20  11:  0.51  12:  0.26  13:  0.99  14:  1.24  15:  0.27
 Raman intensities (amu)
   1:  0.00   2:  0.00   3:  0.00   4:  0.00   5:  0.00   6:  0.00   7:  0.00   8:  0.00
   9:  0.00  10:  0.00  11:  0.00  12:  0.00  13:  0.00  14:  0.00  15:  0.00
 output can be read by thermo (or use thermo option).
 writing <g98.out> molden fake output.
 recommended (thermochemical) frequency scaling factor: 1.0
           -------------------------------------------------
          |             Thermodynamic Functions             |
           -------------------------------------------------

cs  symmetry found (for desy threshold:  0.10E+00) used in thermo

          ...................................................
          :                      SETUP                      :
          :.................................................:
          :  # frequencies                           9      :
          :  # imaginary freq.                       0      :
          :  linear?                             false      :
          :  only rotor calc.                    false      :
          :  symmetry                               cs      :
          :  rotational number                       1      :
          :  scaling factor                  1.0000000      :
          :  rotor cutoff                   50.0000000 cm⁻¹ :
          :  imag. cutoff                  -20.0000000 cm⁻¹ :
          :.................................................:

    mode    ω/cm⁻¹     T·S(HO)/kcal·mol⁻¹    T·S(FR)/kcal·mol⁻¹   T·S(vib)
   ------------------------------------------------------------------------
       1    267.86    -0.00000 ( 99.88%)     0.01499 (  0.12%)     0.00002
   ------------------------------------------------------------------------

   temp. (K)  partition function   enthalpy   heat capacity  entropy
                                   cal/mol     cal/K/mol   cal/K/mol   J/K/mol
 298.15  VIB   1.78                  703.397      6.118      3.509
         ROT  0.216E+05              888.752      2.981     22.815
         INT  0.385E+05             1592.150      9.099     26.323
         TR   0.473E+27             1481.254      4.968     38.278
         TOT                        3073.4035    14.0668    64.6013   270.2919

   temp. (K)  partition function   enthalpy   heat capacity  entropy
                                   cal/mol     cal/K/mol   cal/K/mol   J/K/mol
 120.00  VIB   1.05                   42.868      1.375      0.457
         ROT  0.552E+04              357.707      2.981     20.102
         INT  0.580E+04              400.575      4.356     20.559
         TR   0.121E+27              596.178      4.968     33.759
         TOT                         996.7532     9.3245    54.3173   227.2637

   temp. (K)  partition function   enthalpy   heat capacity  entropy
                                   cal/mol     cal/K/mol   cal/K/mol   J/K/mol
 100.00  VIB   1.02                   20.306      0.886      0.252
         ROT  0.420E+04              298.089      2.981     19.558
         INT  0.430E+04              318.395      3.867     19.811
         TR   0.919E+26              496.815      4.968     32.853
         TOT                         815.2097     8.8355    52.6641   220.3465

   temp. (K)  partition function   enthalpy   heat capacity  entropy
                                   cal/mol     cal/K/mol   cal/K/mol   J/K/mol
  80.00  VIB   1.01                    7.034      0.455      0.106
         ROT  0.300E+04              238.471      2.981     18.893
         INT  0.303E+04              245.506      3.436     18.999
         TR   0.657E+26              397.452      4.968     31.745
         TOT                         642.9575     8.4039    50.7444   212.3144

   temp. (K)  partition function   enthalpy   heat capacity  entropy
                                   cal/mol     cal/K/mol   cal/K/mol   J/K/mol
  60.00  VIB   1.00                    1.308      0.144      0.025
         ROT  0.195E+04              178.853      2.981     18.036
         INT  0.195E+04              180.162      3.125     18.061
         TR   0.427E+26              298.089      4.968     30.317
         TOT                         478.2506     8.0931    48.3777   202.4123

   temp. (K)  partition function   enthalpy   heat capacity  entropy
                                   cal/mol     cal/K/mol   cal/K/mol   J/K/mol
  40.00  VIB   1.00                    0.051      0.012      0.001
         ROT  0.106E+04              119.236      2.981     16.827
         INT  0.106E+04              119.286      2.993     16.828
         TR   0.232E+26              198.726      4.968     28.303
         TOT                         318.0121     7.9613    45.1313   188.8293

   temp. (K)  partition function   enthalpy   heat capacity  entropy
                                   cal/mol     cal/K/mol   cal/K/mol   J/K/mol
  20.00  VIB   1.00                    0.000      0.000     -0.001
         ROT   375.                   59.618      2.981     14.761
         INT   375.                   59.618      2.981     14.759
         TR   0.822E+25               99.363      4.968     24.861
         TOT                         158.9808     7.9490    39.6207   165.7729

   temp. (K)  partition function   enthalpy   heat capacity  entropy
                                   cal/mol     cal/K/mol   cal/K/mol   J/K/mol
  10.00  VIB   1.00                    0.000      0.000     -0.002
         ROT   133.                   29.809      2.981     12.695
         INT   133.                   29.809      2.981     12.692
         TR   0.290E+25               49.681      4.968     21.419
         TOT                          79.4904     7.9490    34.1114   142.7223

       T/K    H(0)-H(T)+PV         H(T)/Eh          T*S/Eh         G(T)/Eh
   ------------------------------------------------------------------------
    298.15    0.489778E-02    0.228378E-01    0.306942E-01   -0.785632E-02
    120.00    0.158843E-02    0.195285E-01    0.103872E-01    0.914127E-02
    100.00    0.129912E-02    0.192392E-01    0.839255E-02    0.108466E-01
     80.00    0.102462E-02    0.189647E-01    0.646930E-02    0.124954E-01
     60.00    0.762141E-03    0.187022E-01    0.462569E-02    0.140765E-01
     40.00    0.506785E-03    0.184469E-01    0.287685E-02    0.155700E-01
     20.00    0.253352E-03    0.181934E-01    0.126279E-02    0.169306E-01
     10.00    0.126676E-03    0.180667E-01    0.543600E-03    0.175231E-01 (used)
   ------------------------------------------------------------------------

         :::::::::::::::::::::::::::::::::::::::::::::::::::::
         ::                  THERMODYNAMIC                  ::
         :::::::::::::::::::::::::::::::::::::::::::::::::::::
         :: total free energy         -10.965206797190 Eh   ::
         ::.................................................::
         :: total energy              -10.982729939660 Eh   ::
         :: zero point energy           0.017940066928 Eh   ::
         :: G(RRHO) w/o ZPVE           -0.000416924458 Eh   ::
         :: G(RRHO) contrib.            0.017523142470 Eh   ::
         :::::::::::::::::::::::::::::::::::::::::::::::::::::

optimized geometry written to: xtbopt.xyz


           -------------------------------------------------
          | TOTAL ENERGY              -10.982729939660 Eh   |
          | TOTAL ENTHALPY            -10.964663196716 Eh   |
          | TOTAL FREE ENERGY         -10.965206797190 Eh   |
          | GRADIENT NORM               0.000555134649 Eh/α |
          | HOMO-LUMO GAP               4.146953688745 eV   |
           -------------------------------------------------

------------------------------------------------------------------------
 * finished run on 2020/05/12 at 11:44:19.505     
------------------------------------------------------------------------
 total:
 * wall-time:     0 d,  0 h,  0 min,  0.266 sec
 *  cpu-time:     0 d,  0 h,  0 min,  0.265 sec
 * ratio c/w:     0.997 speedup
 SCF:
 * wall-time:     0 d,  0 h,  0 min,  0.005 sec
 *  cpu-time:     0 d,  0 h,  0 min,  0.005 sec
 * ratio c/w:     0.995 speedup
 ANC optimizer:
 * wall-time:     0 d,  0 h,  0 min,  0.143 sec
 *  cpu-time:     0 d,  0 h,  0 min,  0.143 sec
 * ratio c/w:     0.999 speedup
 numerical hessian:
 * wall-time:     0 d,  0 h,  0 min,  0.104 sec
 *  cpu-time:     0 d,  0 h,  0 min,  0.103 sec
 * ratio c/w:     0.996 speedup

