 Entering Gaussian System
 *********************************************
 Gaussian 98:
 frequency output generated by the xtb code
 *********************************************
                         Standard orientation:
 --------------------------------------------------------------------
  Center     Atomic     Atomic              Coordinates (Angstroms)
  Number     Number      Type              X           Y           Z
 --------------------------------------------------------------------
    1          6             0        1.633790   -0.028815   -0.027346
    2          6             0        0.416382   -0.008644    0.096570
    3          6             0       -1.013463    0.639152   -0.029049
    4          6             0       -1.036709   -0.601694   -0.040175
 --------------------------------------------------------------------
     1 basis functions        1 primitive gaussians
     1 alpha electrons        1 beta electrons

 Harmonic frequencies (cm**-1), IR intensities (KM/Mole),
 Raman scattering activities (A**4/amu), Raman depolarization ratios,
 reduced masses (AMU), force constants (mDyne/A) and normal coordinates:
                      1                      2                      3
                        a                      a                      a 
 Frequencies --  -612.2037               221.5864               346.0976
 Red. masses --    12.0107                12.0107                12.0107
 Frc consts  --     0.0000                 0.0000                 0.0000
 IR Inten    --     0.7784                 0.1528                 0.2320
 Raman Activ --     0.0000                 0.0000                 0.0000
 Depolar     --     0.0000                 0.0000                 0.0000
 Atom AN      X      Y      Z        X      Y      Z        X      Y      Z
   1   6    -0.00  -0.16  -0.00     0.14  -0.01   0.45    -0.01  -0.50  -0.01
   2   6    -0.01  -0.26  -0.00     0.12   0.01  -0.81     0.01   0.80   0.01
   3   6    -0.64   0.22  -0.03    -0.13  -0.03   0.18    -0.15  -0.15   0.08
   4   6     0.64   0.20   0.03    -0.13   0.03   0.18     0.15  -0.15  -0.08
                      4                      5                      6
                        a                      a                      a 
 Frequencies --   691.5017              1655.1602              1997.7346
 Red. masses --    12.0107                12.0107                12.0107
 Frc consts  --     0.0000                 0.0000                 0.0000
 IR Inten    --     0.6924                 0.7721                 2.6807
 Raman Activ --     0.0000                 0.0000                 0.0000
 Depolar     --     0.0000                 0.0000                 0.0000
 Atom AN      X      Y      Z        X      Y      Z        X      Y      Z
   1   6    -0.45   0.01   0.10     0.62  -0.01  -0.03     0.38  -0.01  -0.03
   2   6    -0.50   0.01  -0.23    -0.49   0.01   0.01    -0.49   0.01   0.01
   3   6     0.48   0.10   0.07    -0.05   0.43   0.01     0.05  -0.55   0.00
   4   6     0.47  -0.12   0.06    -0.07  -0.43   0.01     0.07   0.55   0.01
