$hessian                                                                        
        0.7806501297  -0.0129976911  -0.0487747621  -0.6696902316   0.0105488185
        0.0329553191  -0.0570927714  -0.0603719866   0.0072546591  -0.0538671266
        0.0628208592   0.0085647840
       -0.0129976911   0.0097112134   0.0008653169   0.0108306609  -0.0291907787
       -0.0007305397  -0.0122551833   0.0108961233  -0.0030691719   0.0144222136
        0.0085834420   0.0029343947
       -0.0487747621   0.0008653169   0.0089350365   0.0329674402  -0.0007293759
       -0.0137273660   0.0080716640   0.0160899013   0.0025085369   0.0077356580
       -0.0162258423   0.0022837925
       -0.6696902316   0.0108306609   0.0329674402   0.7983430785  -0.0136327486
        0.0084615495  -0.0609615524   0.2171839633  -0.0187076582  -0.0676912945
       -0.2143818756  -0.0227213315
        0.0105488185  -0.0291907787  -0.0007293759  -0.0136327486   0.0240830173
       -0.0001459709  -0.0329817027  -0.0003345523   0.0027557334   0.0360656328
        0.0054423137  -0.0018803865
        0.0329553191  -0.0007305397  -0.0137273660   0.0084615495  -0.0001459709
        0.0262544098  -0.0211901237  -0.0100285230  -0.0063238981  -0.0202267449
        0.0109050337  -0.0062031458
       -0.0570927714  -0.0122551833   0.0080716640  -0.0609615524  -0.0329817027
       -0.0211901237  -0.0102217775  -0.0383420882   0.0022958445   0.1282761013
        0.0835789742   0.0108226153
       -0.0603719866   0.0108961233   0.0160899013   0.2171839633  -0.0003345523
       -0.0100285230  -0.0383420882   0.7754634651   0.0043936564  -0.1184698886
       -0.7860250361  -0.0104550346
        0.0072546591  -0.0030691719   0.0025085369  -0.0187076582   0.0027557334
       -0.0063238981   0.0022958445   0.0043936564   0.0021756501   0.0091571547
       -0.0040802179   0.0016397110
       -0.0538671266   0.0144222136   0.0077356580  -0.0676912945   0.0360656328
       -0.0202267449   0.1282761013  -0.1184698886   0.0091571547  -0.0067176801
        0.0679820423   0.0033339322
        0.0628208592   0.0085834420  -0.0162258423  -0.2143818756   0.0054423137
        0.0109050337   0.0835789742  -0.7860250361  -0.0040802179   0.0679820423
        0.7719992803   0.0094010265
        0.0085647840   0.0029343947   0.0022837925  -0.0227213315  -0.0018803865
       -0.0062031458   0.0108226153  -0.0104550346   0.0016397110   0.0033339322
        0.0094010265   0.0022796422
