[Molden Format]
[Title]
[Atoms] AU
C      1     6  0.30874154437540E+01 -0.54452579283198E-01 -0.51676311357710E-01
C      2     6  0.78684724965961E+00 -0.16334063140251E-01  0.18249163442363E+00
C      3     6 -0.19151668113432E+01  0.12078215626968E+01 -0.54894936762520E-01
C      4     6 -0.19590958820803E+01 -0.11370368099993E+01 -0.75920386300104E-01
[GTO]
           1 0
 s           4   1.0000000000000000     
   51.049363095579913      -0.16312063210127389     
   8.7911227406887544      -0.19911024581000730     
  0.70640422258929825       0.31882047753655751     
  0.26922813413411617       0.12706504184240380     
 p           4   1.0000000000000000     
   5.8263656140800002       0.73716451545209605     
   1.5106896018720002       0.68216371614850257     
  0.53256483288000001       0.35783053929253711     
  0.21202323690600003        5.3983030275847881E-002

           2 0
 s           4   1.0000000000000000     
   51.049363095579913      -0.16312063210127389     
   8.7911227406887544      -0.19911024581000730     
  0.70640422258929825       0.31882047753655751     
  0.26922813413411617       0.12706504184240380     
 p           4   1.0000000000000000     
   5.8263656140800002       0.73716451545209605     
   1.5106896018720002       0.68216371614850257     
  0.53256483288000001       0.35783053929253711     
  0.21202323690600003        5.3983030275847881E-002

           3 0
 s           4   1.0000000000000000     
   51.049363095579913      -0.16312063210127389     
   8.7911227406887544      -0.19911024581000730     
  0.70640422258929825       0.31882047753655751     
  0.26922813413411617       0.12706504184240380     
 p           4   1.0000000000000000     
   5.8263656140800002       0.73716451545209605     
   1.5106896018720002       0.68216371614850257     
  0.53256483288000001       0.35783053929253711     
  0.21202323690600003        5.3983030275847881E-002

           4 0
 s           4   1.0000000000000000     
   51.049363095579913      -0.16312063210127389     
   8.7911227406887544      -0.19911024581000730     
  0.70640422258929825       0.31882047753655751     
  0.26922813413411617       0.12706504184240380     
 p           4   1.0000000000000000     
   5.8263656140800002       0.73716451545209605     
   1.5106896018720002       0.68216371614850257     
  0.53256483288000001       0.35783053929253711     
  0.21202323690600003        5.3983030275847881E-002

[MO]
Sym=     1a
Ene=  -0.71484309187904149     
Spin= Alpha
Occup=     2.00000000
           1   4.6527501702362875E-002
           2  -4.2096640679299538E-002
           3   7.4758805154987677E-004
           4   7.1340601844786301E-004
           5  0.25554346477621032     
           6 -0.13282010225619376     
           7   2.5926482281471291E-003
           8  -1.5499953250643036E-002
           9  0.42843769646978969     
          10   6.1958907395394953E-002
          11 -0.18426678164039995     
          12   6.3379769559643029E-003
          13  0.42835464853764826     
          14   6.8716738403991867E-002
          15  0.18163524300831993     
          16   9.6097914315232090E-003
Sym=     2a
Ene=  -0.64933566834706746     
Spin= Alpha
Occup=     2.00000000
           1 -0.48808793294107666     
           2  0.17574646772139199     
           3  -2.9654382918173445E-003
           4  -1.5736737657194137E-002
           5 -0.45282525700636728     
           6 -0.24942865733773018     
           7   4.1000458592004158E-003
           8   2.1872278925412970E-002
           9  0.12877554975777591     
          10 -0.11914514517113417     
          11  -5.5363797212747028E-002
          12  -1.2490077532082433E-003
          13  0.12908797743581876     
          14 -0.11676488605840366     
          15   5.9593302313200813E-002
          16  -2.1002116121858694E-004
Sym=     3a
Ene=  -0.56848539027261158     
Spin= Alpha
Occup=     2.00000000
           1 -0.32947568819382866     
           2  -2.5380586308504652E-002
           3   9.7155013178263771E-004
           4  -1.6138847167188643E-003
           5  0.18959210029992737     
           6 -0.31811055731772564     
           7   6.8446459493620541E-003
           8   2.2102047567316770E-002
           9 -0.17154630128488937     
          10  0.43140176807718500     
          11  0.10134190106730746     
          12   6.2869478624274569E-002
          13 -0.17546133950295231     
          14  0.42655316075237165     
          15 -0.11601548510369404     
          16   6.0824629356565588E-002
Sym=     4a
Ene=  -0.56187922491326237     
Spin= Alpha
Occup=     2.00000000
           1  -1.1146288382059650E-003
           2  -2.3140962992867732E-003
           3 -0.12243069469100902     
           4  -1.0848622025700959E-003
           5   9.6839849487973884E-004
           6  -7.2773699142373348E-003
           7 -0.34509092844904243     
           8  -2.9872200830748288E-003
           9 -0.48885607707757750     
          10  -7.7101191765495528E-002
          11 -0.31441711569162967     
          12  -9.6349242250645881E-003
          13  0.48733835350983623     
          14   6.9025604412731936E-002
          15 -0.31782126265637811     
          16   4.4908983532559957E-003
Sym=     5a
Ene=  -0.53321700980872333     
Spin= Alpha
Occup=     2.00000000
           1  -2.1466635605128483E-002
           2  -9.9895236183145317E-003
           3   1.6452885253789044E-003
           4 -0.16372070652577364     
           5  -3.4759984203554306E-002
           6  -2.1626575203054471E-002
           7   3.7302999845462894E-003
           8 -0.37585593259489114     
           9  -5.4640740208762618E-003
          10   7.2386086887110110E-002
          11   1.1095165261364729E-002
          12 -0.51952605411967201     
          13  -5.4549466434342456E-003
          14   7.2073971485046698E-002
          15  -4.4943472115860500E-003
          16 -0.51938868312727138     
Sym=     6a
Ene=  -0.45622937001421271     
Spin= Alpha
Occup=     2.00000000
           1  -5.1543336664532427E-004
           2  -8.8673765498732751E-003
           3 -0.48206691187069628     
           4  -4.1656650877763086E-003
           5   4.6006789111389165E-004
           6  -9.5909835851412956E-003
           7 -0.54128061279592632     
           8  -4.7240710576465089E-003
           9  0.27131785100707012     
          10 -0.24078149710594310     
          11  0.21320152019048874     
          12  -1.7781921783449280E-002
          13 -0.27228440310228308     
          14  0.24842665484409915     
          15  0.20513208386670323     
          16   2.1354860793333950E-002
Sym=     7a
Ene=  -0.43496969066294722     
Spin= Alpha
Occup=     1.99999983
           1 -0.31304962169913181     
           2 -0.24982430265069086     
           3  -2.6285680702129441E-004
           4  0.54887279142132184     
           5  0.15451251190916890     
           6   7.3790248872222686E-002
           7  -5.2317101868053486E-003
           8  0.46959203864155907     
           9  -2.8245302895119517E-003
          10  -6.1805600342432078E-002
          11   1.2395125440617099E-003
          12 -0.29866961788581725     
          13  -2.5105691178910509E-003
          14  -6.2100564229481285E-002
          15   6.1981883509010802E-003
          16 -0.29884099497929617     
Sym=     8a
Ene=  -0.42124025360700224     
Spin= Alpha
Occup=     1.72410333
           1  0.49662919183449938     
           2  0.57676457946054105     
           3  -1.2117888678699201E-002
           4  0.23521998023841925     
           5 -0.17818154276796580     
           6 -0.10507546183104362     
           7  -2.0947300215373463E-004
           8  0.23578393682865822     
           9 -0.12904090140922209     
          10  0.17984307999117788     
          11 -0.23670095932133986     
          12 -0.12527833847423459     
          13 -0.12926890078782846     
          14  0.18884847294598411     
          15  0.23214373372566990     
          16 -0.12117872865911702     
Sym=     9a
Ene=  -0.41775846989616361     
Spin= Alpha
Occup=     0.27589684
           1  0.22425242694917358     
           2  0.23784502010629852     
           3  -5.9206465611619449E-003
           4   9.9078648182459192E-002
           5  -5.3322577710597334E-002
           6  -6.7802715757882409E-002
           7  -3.4867619769323816E-004
           8   9.6938827320010759E-002
           9  0.37597775834299385     
          10   3.7778568301909003E-002
          11  0.56112486298543440     
          12  -4.7605337875864039E-002
          13  0.37556336553343428     
          14   1.7724395170940665E-002
          15 -0.56080718206676128     
          16  -5.7645630434691245E-002
Sym=    10a
Ene=  -0.29889967116056304     
Spin= Alpha
Occup=     0.00000000
           1   2.4756083365586307E-006
           2  -1.3013989671896273E-002
           3 -0.75760439477668762     
           4  -6.8063387692065469E-003
           5  -6.5243606205592311E-006
           6   4.0331168023544734E-003
           7  0.23405449862406982     
           8   2.1034347117141333E-003
           9  -3.6653121957917333E-002
          10  0.51825785724877071     
          11  -5.1281343356909447E-002
          12   6.4293092267826119E-002
          13   3.6447959732216657E-002
          14 -0.52000460688944572     
          15  -3.0545722787623287E-002
          16  -6.5083474821647447E-002
Sym=    11a
Ene=  -0.26279105353731236     
Spin= Alpha
Occup=     0.00000000
           1  -2.1717823919962779E-005
           2  -2.6390915113965352E-004
           3  -1.8430424327554325E-002
           4   6.0857238696837243E-004
           5  -8.2285246834159438E-005
           6   6.0689096047859683E-005
           7   1.7573995025264729E-003
           8  -3.7076023896828378E-004
           9   5.5977170888537686E-004
          10   8.6180905057920296E-002
          11   6.0032526336832705E-003
          12 -0.81429094245883282     
          13  -5.2599726906050104E-004
          14  -8.6108336331170404E-002
          15  -5.3720159864455814E-003
          16  0.81463496039644490     
Sym=    12a
Ene=  -0.19060379305666464     
Spin= Alpha
Occup=     0.00000000
           1  -1.8435030406690776E-002
           2  -1.4004966877485595E-002
           3  -7.2724145720245784E-003
           4  0.81304744008617980     
           5 -0.18647042984912965     
           6   8.0336794731126288E-002
           7   5.9594131213757204E-003
           8 -0.79490411031992581     
           9   3.4515866074014551E-002
          10   6.8447780487846402E-002
          11  -1.1422833360269393E-002
          12  0.17090455635505489     
          13   3.4544459970397359E-002
          14   6.9307486025847923E-002
          15   5.7453736516513620E-003
          16  0.16974118190672077     
Sym=    13a
Ene=   -4.1924541437137745E-002
Spin= Alpha
Occup=     0.00000000
           1   5.6134720066471750E-004
           2  -1.4865501385660864E-002
           3 -0.50389704913253430     
           4  -6.7046131102531902E-003
           5  -1.3609492397635410E-002
           6   2.4146267249253707E-002
           7  0.84112996351407543     
           8   1.1184214049776734E-002
           9  -6.9271149152377268E-002
          10 -0.60908418137112530     
          11 -0.14371896840622822     
          12  -5.9199799485758348E-002
          13   7.7258151882934695E-002
          14  0.61816036694197996     
          15 -0.16496505383417823     
          16   5.6827560017257840E-002
Sym=    14a
Ene=   -1.7540462320110604E-002
Spin= Alpha
Occup=     0.00000000
           1   4.4188786205244017E-002
           2 -0.37923315533190033     
           3   1.5355596846254014E-002
           4 -0.12037118548052726     
           5 -0.89569078469676300     
           6  0.59905915151350408     
           7  -2.5939760983103195E-002
           8  0.21635256639003136     
           9  0.27409653116701549     
          10  0.49156986030979261     
          11  -8.6555887610503993E-002
          12   1.7941049023342759E-002
          13  0.27181563820828708     
          14  0.47500221383143987     
          15   7.3638494343989447E-002
          16   1.7628369684935637E-002
Sym=    15a
Ene=   0.74657842631908788     
Spin= Alpha
Occup=     0.00000000
           1   3.7335966784336077E-004
           2   4.1481581172036266E-004
           3   4.9725684682529900E-002
           4   4.7189778316169553E-004
           5  -6.1298508170764350E-004
           6  -2.6358182296155629E-003
           7 -0.13806988604275511     
           8  -1.1502474361601716E-003
           9  0.93494175653071510     
          10   2.5137787969519668E-002
          11  -1.0125965784784026     
          12  -5.0098878153423459E-003
          13 -0.93482320644736716     
          14  -6.2848277408976874E-002
          15  -1.0109170443469953     
          16  -1.3135479712796279E-002
Sym=    16a
Ene=   0.98375078101275992     
Spin= Alpha
Occup=     0.00000000
           1  0.97134115079579419     
           2  -1.0194374684978578     
           3   1.6698124482699871E-002
           4  0.11650514065392156     
           5 -0.73866915684889933     
           6  -1.2402457294639850     
           7   2.1208315614893627E-002
           8   8.3692982099035196E-002
           9 -0.16340321186083018     
          10 -0.16597973514361850     
          11   5.8402076310166452E-002
          12  -3.4333098629134876E-002
          13 -0.16262127858271996     
          14 -0.16800735832332239     
          15  -5.0766744758592573E-002
          16  -3.5271327911428632E-002
