      -----------------------------------------------------------      
     |                   =====================                   |     
     |                           x T B                           |     
     |                   =====================                   |     
     |                         S. Grimme                         |     
     |          Mulliken Center for Theoretical Chemistry        |     
     |                    University of Bonn                     |     
      -----------------------------------------------------------      

   * xtb version 6.2.2 (9d81278992624c895f80dd42a50cac0aa55982e2) compiled by '@Darwin' on 04/03/2020

   xtb is free software: you can redistribute it and/or modify it under
   the terms of the GNU Lesser General Public License as published by
   the Free Software Foundation, either version 3 of the License, or
   (at your option) any later version.
   
   xtb is distributed in the hope that it will be useful,
   but WITHOUT ANY WARRANTY; without even the implied warranty of
   MERCHANTABILITY or FITNESS FOR A PARTICULAR PURPOSE.  See the
   GNU Lesser General Public License for more details.
   
   Cite this work as:
   * S. Grimme, C. Bannwarth, P. Shushkov, J. Chem. Theory Comput., 2017,
     13, 1989-2009. DOI: 10.1021/acs.jctc.7b00118
   * C. Bannwarth, S. Ehlert and S. Grimme., J. Chem. Theory Comput., 2019,
     15, 1652-1671. DOI: 10.1021/acs.jctc.8b01176
   * P. Pracht, E. Caldeweyher, S. Ehlert, S. Grimme, ChemRxiv, 2019, preprint.
     DOI: 10.26434/chemrxiv.8326202.v1
   
   for DFT-D4:
   * E. Caldeweyher, C. Bannwarth and S. Grimme, J. Chem. Phys., 2017,
     147, 034112. DOI: 10.1063/1.4993215
   * E. Caldeweyher, S. Ehlert, A. Hansen, H. Neugebauer, S. Spicher,
     C. Bannwarth and S. Grimme, J. Chem. Phys., 2019, 150, 154122.
     DOI: 10.1063/1.5090222
   
   for sTDA-xTB:
   * S. Grimme and C. Bannwarth, J. Chem. Phys., 2016, 145, 054103.
     DOI: 10.1063/1.4959605
   
   in the mass-spec context:
   * V. Asgeirsson, C. Bauer and S. Grimme, Chem. Sci., 2017, 8, 4879.
     DOI: 10.1039/c7sc00601b
   
   for metadynamics refer to:
   * S. Grimme, J. Chem. Theory Comput., 2019, 155, 2847-2862
     DOI: 10.1021/acs.jctc.9b00143
   
   with help from (in alphabetical order)
   C. Bannwarth, F. Bohle, G. Brandenburg, E. Caldeweyher, M. Checinski,
   S. Dohm, S. Ehlert, S. Ehrlich, F. März, H. Neugebauer, J. Pisarek,
   P. Pracht, P. Shushkov, and S. Spicher.
   
 * started run on 2020/05/12 at 11:45:11.949     

           -------------------------------------------------
          |                Calculation Setup                |
           -------------------------------------------------

          program call               : xtb --input H1C4_10_S_1.input H1C4_10_S_1.xyz --ohess --molden --namespace H1C4_10_S_1 output.out
          calculation namespace      : H1C4_10_S_1
          coordinate file            : H1C4_10_S_1.xyz
          number of atoms            :                     5
          number of electrons        :                    17
          charge                     :                     0
          spin                       :                   0.5
          first test random number   :      0.98884324742745

   ID    Z sym.   atoms
    1    6 C      1-4
    2    1 H      5

           -------------------------------------------------
          |                 G F N 2 - x T B                 |
           -------------------------------------------------

        Reference                      10.1021/acs.jctc.8b01176
      * Hamiltonian:
        H0-scaling (s, p, d)           1.850000    2.230000    2.230000
        zeta-weighting                 0.500000
      * Dispersion:
        s8                             2.700000
        a1                             0.520000
        a2                             5.000000
        s9                             5.000000
      * Repulsion:
        kExp                           1.500000    1.000000
        rExp                           1.000000
      * Coulomb:
        alpha                          2.000000
        third order                    shell-resolved
        anisotropic                    true
        a3                             3.000000
        a5                             4.000000
        cn-shift                       1.200000
        cn-exp                         4.000000
        max-rad                        5.000000


          ...................................................
          :                      SETUP                      :
          :.................................................:
          :  # basis functions                  17          :
          :  # atomic orbitals                  17          :
          :  # shells                            9          :
          :  # electrons                        17          :
          :  max. iterations                   250          :
          :  Hamiltonian                  GFN2-xTB          :
          :  restarted?                      false          :
          :  GBSA solvation                  false          :
          :  PC potential                    false          :
          :  electronic temp.          300.0000000     K    :
          :  accuracy                    1.0000000          :
          :  -> integral cutoff          0.2500000E+02      :
          :  -> integral neglect         0.1000000E-07      :
          :  -> SCF convergence          0.1000000E-05 Eh   :
          :  -> wf. convergence          0.1000000E-03 e    :
          :  Broyden damping             0.4000000          :
          ...................................................

 iter      E             dE          RMSdq      gap      omega  full diag
   1     -8.5971992 -0.859720E+01  0.705E+00    0.12       0.0  T
   2     -8.1867401  0.410459E+00  0.919E+00    0.07       1.0  T
   3     -8.2337348 -0.469948E-01  0.785E+00    0.18       1.0  T
   4     -8.3968826 -0.163148E+00  0.690E+00    0.20       1.0  T
   5     -8.5530974 -0.156215E+00  0.480E+00    0.14       1.0  T
   6     -8.6130708 -0.599734E-01  0.377E+00    0.08       1.0  T
   7     -8.4169356  0.196135E+00  0.665E+00    0.07       1.0  T
   8     -8.6136339 -0.196698E+00  0.358E+00    0.12       1.0  T
   9     -8.6106304  0.300356E-02  0.358E+00    0.12       1.0  T
  10     -8.6150354 -0.440499E-02  0.308E+00    0.12       1.0  T
  11     -8.6370918 -0.220564E-01  0.219E+00    0.13       1.0  T
  12     -8.6415511 -0.445928E-02  0.172E+00    0.12       1.0  T
  13     -8.6453199 -0.376883E-02  0.141E+00    0.12       1.0  T
  14     -8.6469561 -0.163619E-02  0.126E+00    0.12       1.0  T
  15     -8.6516893 -0.473320E-02  0.749E-01    0.12       1.0  T
  16     -8.6517314 -0.420962E-04  0.742E-01    0.12       1.0  T
  17     -8.6518896 -0.158269E-03  0.489E-01    0.12       1.0  T
  18     -8.6520287 -0.139095E-03  0.400E-01    0.12       1.0  T
  19     -8.6520458 -0.170903E-04  0.400E-01    0.12       1.0  T
  20     -8.6522498 -0.203941E-03  0.265E-01    0.12       1.0  T
  21     -8.6523196 -0.698565E-04  0.211E-01    0.12       1.0  T
  22     -8.6524352 -0.115580E-03  0.755E-02    0.12       1.0  T
  23     -8.6524483 -0.131135E-04  0.313E-02    0.12       1.4  T
  24     -8.6524508 -0.244133E-05  0.130E-02    0.12       3.4  T
  25     -8.6524515 -0.688604E-06  0.387E-03    0.12      11.6  T
  26     -8.6524515 -0.546270E-07  0.112E-03    0.12      40.0  T
  27     -8.6524515 -0.298936E-08  0.748E-04    0.12      59.8  T
  28     -8.6524515 -0.263293E-08  0.180E-04    0.12     249.1  T

   *** convergence criteria satisfied after 28 iterations ***

         #    Occupation            Energy/Eh            Energy/eV
      -------------------------------------------------------------
         1        2.0000           -0.7268508             -19.7786
       ...           ...                  ...                  ...
         3        2.0000           -0.5870395             -15.9742
         4        2.0000           -0.5840109             -15.8917
         5        2.0000           -0.4983103             -13.5597
         6        1.9994           -0.4314779             -11.7411
         7        1.9130           -0.4266152             -11.6088
         8        1.6866           -0.4251643             -11.5693
         9        1.2862           -0.4238128             -11.5325 (HOMO)
        10        0.1147           -0.4195215             -11.4158 (LUMO)
        11                         -0.1774640              -4.8290
        12                         -0.1137222              -3.0945
        13                         -0.0968427              -2.6352
        14                          0.0792400               2.1562
       ...                                ...                  ...
        17                          0.3073346               8.3630
      -------------------------------------------------------------
                  HL-Gap            0.0042913 Eh            0.1168 eV
             Fermi-level           -0.4229238 Eh          -11.5083 eV

 SCC (total)                   0 d,  0 h,  0 min,  0.005 sec
 SCC setup                      ...        0 min,  0.000 sec (  1.459%)
 Dispersion                     ...        0 min,  0.000 sec (  0.291%)
 integral evaluation            ...        0 min,  0.001 sec ( 20.130%)
 zeroth order Hamiltonian       ...        0 min,  0.000 sec (  0.317%)
 iterations                     ...        0 min,  0.003 sec ( 53.389%)
 molecular gradient             ...        0 min,  0.001 sec ( 22.236%)
 printout                       ...        0 min,  0.000 sec (  1.957%)

         :::::::::::::::::::::::::::::::::::::::::::::::::::::
         ::                     SUMMARY                     ::
         :::::::::::::::::::::::::::::::::::::::::::::::::::::
         :: total energy              -8.547561967541 Eh    ::
         :: gradient norm              0.168332380892 Eh/a0 ::
         :: HOMO-LUMO gap              0.116772554249 eV    ::
         ::.................................................::
         :: SCC energy                -8.652451514212 Eh    ::
         :: -> isotropic ES           -0.007056553966 Eh    ::
         :: -> anisotropic ES          0.001139064048 Eh    ::
         :: -> anisotropic XC          0.004353048880 Eh    ::
         :: -> dispersion             -0.001988203312 Eh    ::
         :: repulsion energy           0.104889527257 Eh    ::
         :: add. restraining           0.000000000000 Eh    ::
         :::::::::::::::::::::::::::::::::::::::::::::::::::::

      ----------------------------------------------------------- 
     |                   =====================                   |
     |                        A N C O P T                        |
     |                   =====================                   |
     |               Approximate Normal Coordinate               |
     |                Rational Function Optimizer                |
      ----------------------------------------------------------- 

          ...................................................
          :                      SETUP                      :
          :.................................................:
          :   optimization level            normal          :
          :   max. optcycles                   200          :
          :   ANC micro-cycles                  20          :
          :   degrees of freedom                 9          :
          :.................................................:
          :   RF solver                   davidson          :
          :   write xtbopt.log                true          :
          :   linear?                        false          :
          :   energy convergence         0.5000000E-05 Eh   :
          :   grad. convergence          0.1000000E-02 Eh/α :
          :   maximium RF displ.         1.0000000          :
          :   Hlow (freq-cutoff)         0.1000000E-01      :
          :   Hmax (freq-cutoff)         5.0000000          :
          :   S6 in model hess.         20.0000000          :
          ...................................................

generating ANC from model Hessian ...
Using Lindh-Hessian (1995)
 Shifting diagonal of input Hessian by    0.0000000000000000     
 Lowest  eigenvalues of input Hessian
   -0.000000   -0.000000   -0.000000   -0.000000    0.000000    0.000000
    0.096027    0.160207    0.363499    0.589185    0.732469    0.940485
    0.980705    1.195553    1.693764
 Highest eigenvalues
    0.589185    0.732469    0.940485    0.980705    1.195553    1.693764


........................................................................
.............................. CYCLE    1 ..............................
........................................................................
   1     -8.6524515 -0.865245E+01  0.406E-05    0.12       0.0  T
   2     -8.6524515  0.114237E-08  0.454E-04    0.12      98.6  T
   3     -8.6524515 -0.112066E-08  0.758E-05    0.12     590.1  T
     SCC iter.                  ...        0 min,  0.001 sec
     gradient                   ...        0 min,  0.001 sec
 * total energy  :    -8.5475620 Eh     change        0.1871836E-09 Eh
   gradient norm :     0.1683323 Eh/α   predicted     0.0000000E+00 (-100.00%)
   displ. norm   :     0.4289421 α      lambda       -0.6647673E-01
   maximum displ.:     0.2977307 α      in ANC's #3, #2, #5, ...

........................................................................
.............................. CYCLE    2 ..............................
........................................................................
   1     -8.7203876 -0.872039E+01  0.311E+00    0.89       0.0  T
   2     -8.7091689  0.112187E-01  0.210E+00    0.92       1.0  T
   3     -8.6919064  0.172625E-01  0.262E+00    0.81       1.0  T
   4     -8.7226369 -0.307305E-01  0.643E-01    0.96       1.0  T
   5     -8.7241897 -0.155281E-02  0.259E-01    0.90       1.0  T
   6     -8.7242292 -0.394621E-04  0.245E-01    0.90       1.0  T
   7     -8.7244475 -0.218294E-03  0.140E-01    0.91       1.0  T
   8     -8.7244529 -0.544135E-05  0.363E-02    0.91       1.2  T
   9     -8.7244553 -0.235017E-05  0.151E-02    0.90       3.0  T
  10     -8.7244553 -0.655099E-07  0.235E-03    0.90      19.1  T
  11     -8.7244553  0.103295E-08  0.116E-03    0.90      38.5  T
  12     -8.7244553 -0.541357E-08  0.314E-04    0.90     142.2  T
  13     -8.7244553 -0.293364E-09  0.695E-05    0.90     643.8  T
     SCC iter.                  ...        0 min,  0.001 sec
     gradient                   ...        0 min,  0.002 sec
 * total energy  :    -8.6162289 Eh     change       -0.6866693E-01 Eh
   gradient norm :     0.1642496 Eh/α   predicted    -0.3935395E-01 ( -42.69%)
   displ. norm   :     0.8824377 α      lambda       -0.1343116E+00
   maximum displ.:     0.6744907 α      in ANC's #3, #2, #5, ...

........................................................................
.............................. CYCLE    3 ..............................
........................................................................
   1     -8.8081403 -0.880814E+01  0.386E+00    2.68       0.0  T
   2     -8.8034779  0.466242E-02  0.255E+00    2.72       1.0  T
   3     -8.7693324  0.341454E-01  0.252E+00    2.49       1.0  T
   4     -8.8112771 -0.419447E-01  0.532E-01    2.77       1.0  T
   5     -8.8128157 -0.153854E-02  0.102E-01    2.71       1.0  T
   6     -8.8127121  0.103538E-03  0.134E-01    2.71       1.0  T
   7     -8.8128219 -0.109721E-03  0.578E-02    2.71       1.0  T
   8     -8.8128354 -0.135446E-04  0.970E-03    2.70       4.6  T
   9     -8.8128356 -0.196178E-06  0.215E-03    2.70      20.8  T
  10     -8.8128356 -0.559260E-08  0.563E-04    2.70      79.4  T
  11     -8.8128356 -0.263986E-09  0.854E-05    2.70     523.6  T
     SCC iter.                  ...        0 min,  0.001 sec
     gradient                   ...        0 min,  0.001 sec
 * total energy  :    -8.6901452 Eh     change       -0.7391630E-01 Eh
   gradient norm :     0.1171466 Eh/α   predicted    -0.1194498E+00 (  61.60%)
   displ. norm   :     0.1759239 α      lambda       -0.1343419E-01
   maximum displ.:     0.1089080 α      in ANC's #5, #2, #8, ...

........................................................................
.............................. CYCLE    4 ..............................
........................................................................
   1     -8.8202319 -0.882023E+01  0.745E-01    2.99       0.0  T
   2     -8.8200403  0.191562E-03  0.513E-01    3.02       1.0  T
   3     -8.8193321  0.708225E-03  0.434E-01    3.00       1.0  T
   4     -8.8203694 -0.103726E-02  0.152E-01    2.99       1.0  T
   5     -8.8205054 -0.136074E-03  0.279E-02    3.01       1.6  T
   6     -8.8204985  0.698669E-05  0.341E-02    3.01       1.3  T
   7     -8.8205077 -0.919232E-05  0.398E-03    3.01      11.2  T
   8     -8.8205077 -0.196446E-07  0.138E-03    3.01      32.4  T
   9     -8.8205077 -0.360426E-08  0.345E-04    3.01     129.6  T
  10     -8.8205077 -0.536300E-10  0.231E-05    3.01    1936.8  T
     SCC iter.                  ...        0 min,  0.001 sec
     gradient                   ...        0 min,  0.001 sec
 * total energy  :    -8.7011057 Eh     change       -0.1096050E-01 Eh
   gradient norm :     0.0942942 Eh/α   predicted    -0.6924985E-02 ( -36.82%)
   displ. norm   :     0.2692576 α      lambda       -0.1853951E-01
   maximum displ.:     0.1598456 α      in ANC's #8, #5, #2, ...

........................................................................
.............................. CYCLE    5 ..............................
........................................................................
   1     -8.8404728 -0.884047E+01  0.128E+00    2.71       0.0  T
   2     -8.8390880  0.138482E-02  0.990E-01    2.81       1.0  T
   3     -8.8389194  0.168607E-03  0.739E-01    2.74       1.0  T
   4     -8.8413813 -0.246185E-02  0.213E-01    2.72       1.0  T
   5     -8.8416269 -0.245656E-03  0.519E-02    2.75       1.0  T
   6     -8.8416270 -0.101966E-06  0.300E-02    2.75       1.5  T
   7     -8.8416336 -0.659564E-05  0.964E-03    2.75       4.6  T
   8     -8.8416342 -0.555041E-06  0.197E-03    2.75      22.7  T
   9     -8.8416342 -0.475884E-08  0.433E-04    2.75     103.3  T
  10     -8.8416342 -0.726637E-10  0.497E-05    2.75     900.7  T
     SCC iter.                  ...        0 min,  0.001 sec
     gradient                   ...        0 min,  0.001 sec
 * total energy  :    -8.7123835 Eh     change       -0.1127781E-01 Eh
   gradient norm :     0.0419336 Eh/α   predicted    -0.9941806E-02 ( -11.85%)
   displ. norm   :     0.1418277 α      lambda       -0.2917135E-02
   maximum displ.:     0.1037440 α      in ANC's #2, #8, #3, ...

........................................................................
.............................. CYCLE    6 ..............................
........................................................................
   1     -8.8479598 -0.884796E+01  0.453E-01    2.51       0.0  T
   2     -8.8479743 -0.144814E-04  0.271E-01    2.47       1.0  T
   3     -8.8478483  0.126036E-03  0.155E-01    2.51       1.0  T
   4     -8.8479611 -0.112844E-03  0.723E-02    2.48       1.0  T
   5     -8.8479931 -0.320090E-04  0.126E-02    2.48       3.5  T
   6     -8.8479920  0.106775E-05  0.122E-02    2.48       3.7  T
   7     -8.8479933 -0.126197E-05  0.869E-04    2.48      51.4  T
   8     -8.8479933 -0.253456E-08  0.324E-04    2.48     138.2  T
   9     -8.8479933 -0.552838E-10  0.583E-05    2.48     766.8  T
     SCC iter.                  ...        0 min,  0.001 sec
     gradient                   ...        0 min,  0.001 sec
 * total energy  :    -8.7144459 Eh     change       -0.2062402E-02 Eh
   gradient norm :     0.0259674 Eh/α   predicted    -0.1487905E-02 ( -27.86%)
   displ. norm   :     0.1209411 α      lambda       -0.1689391E-02
   maximum displ.:     0.0952278 α      in ANC's #2, #8, #9, ...

........................................................................
.............................. CYCLE    7 ..............................
........................................................................
   1     -8.8545980 -0.885460E+01  0.372E-01    2.32       0.0  T
   2     -8.8546346 -0.366347E-04  0.227E-01    2.26       1.0  T
   3     -8.8545996  0.350609E-04  0.150E-01    2.31       1.0  T
   4     -8.8546289 -0.292827E-04  0.718E-02    2.29       1.0  T
   5     -8.8546662 -0.373512E-04  0.124E-02    2.28       3.6  T
   6     -8.8546661  0.158295E-06  0.686E-03    2.28       6.5  T
   7     -8.8546664 -0.330002E-06  0.247E-03    2.28      18.1  T
   8     -8.8546664 -0.295041E-07  0.375E-04    2.28     119.4  T
   9     -8.8546664 -0.258822E-09  0.838E-05    2.28     533.8  T
     SCC iter.                  ...        0 min,  0.001 sec
     gradient                   ...        0 min,  0.001 sec
 * total energy  :    -8.7156097 Eh     change       -0.1163765E-02 Eh
   gradient norm :     0.0150851 Eh/α   predicted    -0.8570504E-03 ( -26.36%)
   displ. norm   :     0.0895463 α      lambda       -0.8110880E-03
   maximum displ.:     0.0707488 α      in ANC's #2, #8, #5, ...

........................................................................
.............................. CYCLE    8 ..............................
........................................................................
   1     -8.8585199 -0.885852E+01  0.296E-01    2.22       0.0  T
   2     -8.8585490 -0.290610E-04  0.178E-01    2.17       1.0  T
   3     -8.8585357  0.132426E-04  0.119E-01    2.21       1.0  T
   4     -8.8585480 -0.122569E-04  0.578E-02    2.20       1.0  T
   5     -8.8585711 -0.231048E-04  0.878E-03    2.19       5.1  T
   6     -8.8585711 -0.619725E-07  0.240E-03    2.19      18.6  T
   7     -8.8585711  0.163251E-08  0.111E-03    2.19      40.3  T
   8     -8.8585711 -0.456217E-08  0.730E-04    2.19      61.3  T
   9     -8.8585712 -0.412829E-08  0.678E-05    2.19     659.8  T
     SCC iter.                  ...        0 min,  0.001 sec
     gradient                   ...        0 min,  0.001 sec
 * total energy  :    -8.7161642 Eh     change       -0.5545178E-03 Eh
   gradient norm :     0.0134625 Eh/α   predicted    -0.4087948E-03 ( -26.28%)
   displ. norm   :     0.0578038 α      lambda       -0.3715865E-03
   maximum displ.:     0.0421117 α      in ANC's #2, #5, #8, ...

........................................................................
.............................. CYCLE    9 ..............................
........................................................................
   1     -8.8595394 -0.885954E+01  0.205E-01    2.19       0.0  T
   2     -8.8595485 -0.908001E-05  0.118E-01    2.17       1.0  T
   3     -8.8595409  0.761605E-05  0.700E-02    2.19       1.0  T
   4     -8.8595512 -0.103772E-04  0.203E-02    2.18       2.2  T
   5     -8.8595538 -0.254931E-05  0.659E-03    2.18       6.8  T
   6     -8.8595537  0.101612E-06  0.530E-03    2.18       8.4  T
   7     -8.8595539 -0.214709E-06  0.136E-03    2.18      32.9  T
   8     -8.8595539 -0.371820E-08  0.123E-04    2.18     362.5  T
   9     -8.8595539 -0.997247E-11  0.526E-05    2.18     849.6  T
     SCC iter.                  ...        0 min,  0.001 sec
     gradient                   ...        0 min,  0.001 sec
 * total energy  :    -8.7164086 Eh     change       -0.2443773E-03 Eh
   gradient norm :     0.0090380 Eh/α   predicted    -0.1864139E-03 ( -23.72%)
   displ. norm   :     0.0245600 α      lambda       -0.1070882E-03
   maximum displ.:     0.0160484 α      in ANC's #5, #2, #8, ...

........................................................................
.............................. CYCLE   10 ..............................
........................................................................
   1     -8.8585906 -0.885859E+01  0.945E-02    2.21       0.0  T
   2     -8.8585907 -0.145705E-06  0.556E-02    2.20       1.0  T
   3     -8.8585835  0.722699E-05  0.342E-02    2.21       1.3  T
   4     -8.8585911 -0.761351E-05  0.611E-03    2.21       7.3  T
   5     -8.8585913 -0.139447E-06  0.272E-03    2.21      16.4  T
   6     -8.8585912  0.944515E-08  0.169E-03    2.21      26.4  T
   7     -8.8585913 -0.203973E-07  0.564E-04    2.21      79.4  T
   8     -8.8585913 -0.100690E-08  0.473E-05    2.21     945.2  T
     SCC iter.                  ...        0 min,  0.001 sec
     gradient                   ...        0 min,  0.001 sec
 * total energy  :    -8.7164743 Eh     change       -0.6568805E-04 Eh
   gradient norm :     0.0037091 Eh/α   predicted    -0.5357744E-04 ( -18.44%)
   displ. norm   :     0.0065989 α      lambda       -0.1874926E-04
   maximum displ.:     0.0046343 α      in ANC's #6, #5, #9, ...

........................................................................
.............................. CYCLE   11 ..............................
........................................................................
   1     -8.8580432 -0.885804E+01  0.377E-02    2.24       0.0  T
   2     -8.8580438 -0.525302E-06  0.223E-02    2.24       2.0  T
   3     -8.8580438  0.413968E-08  0.134E-02    2.24       3.3  T
   4     -8.8580440 -0.289960E-06  0.242E-03    2.24      18.5  T
   5     -8.8580441 -0.389107E-07  0.904E-04    2.24      49.5  T
   6     -8.8580441  0.487156E-08  0.102E-03    2.24      43.9  T
   7     -8.8580441 -0.704871E-08  0.496E-05    2.24     901.8  T
     SCC iter.                  ...        0 min,  0.001 sec
     gradient                   ...        0 min,  0.001 sec
 * total energy  :    -8.7164869 Eh     change       -0.1266979E-04 Eh
   gradient norm :     0.0020376 Eh/α   predicted    -0.9374644E-05 ( -26.01%)
   displ. norm   :     0.0050931 α      lambda       -0.9159814E-05
   maximum displ.:     0.0046797 α      in ANC's #6, #9, #2, ...

........................................................................
.............................. CYCLE   12 ..............................
........................................................................
   1     -8.8576745 -0.885767E+01  0.343E-02    2.26       0.0  T
   2     -8.8576749 -0.450459E-06  0.200E-02    2.27       2.2  T
   3     -8.8576747  0.250250E-06  0.154E-02    2.26       2.9  T
   4     -8.8576750 -0.326429E-06  0.927E-03    2.27       4.8  T
   5     -8.8576755 -0.533387E-06  0.847E-04    2.27      52.8  T
   6     -8.8576755  0.938769E-08  0.117E-03    2.27      38.1  T
   7     -8.8576755 -0.105789E-07  0.146E-04    2.27     306.1  T
     SCC iter.                  ...        0 min,  0.001 sec
     gradient                   ...        0 min,  0.001 sec
 * total energy  :    -8.7164931 Eh     change       -0.6142156E-05 Eh
   gradient norm :     0.0015229 Eh/α   predicted    -0.4581082E-05 ( -25.42%)
   displ. norm   :     0.0061720 α      lambda       -0.4173513E-05
   maximum displ.:     0.0051655 α      in ANC's #6, #2, #5, ...

........................................................................
.............................. CYCLE   13 ..............................
........................................................................
   1     -8.8578616 -0.885786E+01  0.398E-02    2.29       0.0  T
   2     -8.8578622 -0.618671E-06  0.225E-02    2.30       2.0  T
   3     -8.8578619  0.322483E-06  0.187E-02    2.29       2.4  T
   4     -8.8578625 -0.598562E-06  0.104E-02    2.29       4.3  T
   5     -8.8578632 -0.659412E-06  0.112E-03    2.30      40.1  T
   6     -8.8578632  0.117604E-08  0.641E-04    2.30      69.7  T
   7     -8.8578632 -0.279983E-08  0.223E-04    2.30     200.3  T
     SCC iter.                  ...        0 min,  0.001 sec
     gradient                   ...        0 min,  0.001 sec
 * total energy  :    -8.7164958 Eh     change       -0.2715218E-05 Eh
   gradient norm :     0.0007981 Eh/α   predicted    -0.2085344E-05 ( -23.20%)
   displ. norm   :     0.0031353 α      lambda       -0.7176911E-06
   maximum displ.:     0.0023605 α      in ANC's #2, #3, #9, ...

   *** GEOMETRY OPTIMIZATION CONVERGED AFTER 13 ITERATIONS ***

------------------------------------------------------------------------
 total energy gain   :        -0.1689338 Eh     -106.0076 kcal/mol
 total RMSD          :         0.8633440 a0        0.4569 Å
 total power (kW/mol):       -34.1181289 (step)********** (real)
------------------------------------------------------------------------

 ANCopt (total)                0 d,  0 h,  0 min,  0.043 sec
 optimizer setup                ...        0 min,  0.000 sec (  0.169%)
 model hessian                  ...        0 min,  0.000 sec (  0.252%)
 ANC generation                 ...        0 min,  0.000 sec (  0.193%)
 coordinate transformation      ...        0 min,  0.000 sec (  0.081%)
 single point calculation       ...        0 min,  0.041 sec ( 96.623%)
 optimization log               ...        0 min,  0.000 sec (  0.827%)
 hessian update                 ...        0 min,  0.000 sec (  0.090%)
 rational function              ...        0 min,  0.000 sec (  0.749%)

================
 final structure:
================
5
 xtb: 6.2.2 (9d81278992624c895f80dd42a50cac0aa55982e2)
C         0.59878754134835    0.09034681037027    0.03500554661320
C        -0.42491912371366   -0.16333946587129    0.96045092740465
C        -1.28180542368507   -0.33714117884819   -0.15206666048659
C        -0.46120204280466    0.70173583574283   -0.65158123366583
H         1.56913904885504   -0.29160200139362   -0.19180857986544

 Bond Distances (Angstroems)
 ---------------------------
C1-C2=1.4031         C1-C3=1.9376         C1-C4=1.4031         C1-H5=1.0672         C2-C1=1.4031         C2-C3=1.4150         
C2-C4=1.8298         C3-C1=1.9376         C3-C2=1.4150         C3-C4=1.4150         C4-C1=1.4031         C4-C2=1.8298         
C4-C3=1.4150         H5-C1=1.0672         
 C  H  Rav=1.0672 sigma=0.0000  Rmin=1.0672  Rmax=1.0672     1
 C  C  Rav=1.5673 sigma=0.2260  Rmin=1.4031  Rmax=1.9376     6

 selected bond angles (degree)
 --------------------
C3-C1-C2= 46.82                C4-C1-C2= 81.39                C4-C1-C3= 46.82                H5-C1-C2=137.63                
H5-C1-C3=141.54                H5-C1-C4=137.63                C3-C2-C1= 86.87                C4-C2-C1= 49.30                
C4-C2-C3= 49.71                C2-C3-C1= 46.31                C4-C3-C1= 46.31                C4-C3-C2= 80.57                
C2-C4-C1= 49.30                C3-C4-C1= 86.87                C3-C4-C2= 49.71                

 selected dihedral angles (degree)
 ---------------------------------
C3-C2-C1-C4= 36.18            C3-C2-C1-H5=235.63            C4-C2-C1-C3=323.82            C4-C2-C1-H5=199.45            
C1-C3-C2-C4= 35.93            C4-C3-C2-C1=324.07            C2-C4-C1-C3= 36.18            C2-C4-C1-H5=160.55            
C3-C4-C1-C2=323.82            C3-C4-C1-H5=124.37            C1-C4-C2-C3=230.60            C3-C4-C2-C1=129.40            
C1-C4-C3-C2= 35.93            C2-C4-C3-C1=324.07            
           -------------------------------------------------
          |                Final Singlepoint                |
           -------------------------------------------------

          ...................................................
          :                      SETUP                      :
          :.................................................:
          :  # basis functions                  17          :
          :  # atomic orbitals                  17          :
          :  # shells                            9          :
          :  # electrons                        17          :
          :  max. iterations                   250          :
          :  Hamiltonian                  GFN2-xTB          :
          :  restarted?                      false          :
          :  GBSA solvation                  false          :
          :  PC potential                    false          :
          :  electronic temp.          300.0000000     K    :
          :  accuracy                    1.0000000          :
          :  -> integral cutoff          0.2500000E+02      :
          :  -> integral neglect         0.1000000E-07      :
          :  -> SCF convergence          0.1000000E-05 Eh   :
          :  -> wf. convergence          0.1000000E-03 e    :
          :  Broyden damping             0.4000000          :
          ...................................................

 iter      E             dE          RMSdq      gap      omega  full diag
   1     -8.8578632 -0.885786E+01  0.595E-05    2.30       0.0  T
   2     -8.8578632  0.817124E-12  0.380E-05    2.30    1177.6  T
   3     -8.8578632  0.844835E-11  0.419E-05    2.30    1066.1  T

   *** convergence criteria satisfied after 3 iterations ***

         #    Occupation            Energy/Eh            Energy/eV
      -------------------------------------------------------------
         1        2.0000           -0.7180649             -19.5395
       ...           ...                  ...                  ...
         3        2.0000           -0.6035183             -16.4226
         4        2.0000           -0.5628350             -15.3155
         5        2.0000           -0.5099228             -13.8757
         6        2.0000           -0.5073149             -13.8047
         7        2.0000           -0.4463110             -12.1447
         8        2.0000           -0.4204036             -11.4398
         9        1.0000           -0.3906668             -10.6306 (HOMO)
        10                         -0.3063161              -8.3353 (LUMO)
        11                         -0.2689454              -7.3184
        12                         -0.2460971              -6.6966
        13                          0.1029170               2.8005
        14                          0.1183916               3.2216
       ...                                ...                  ...
        17                          0.6424002              17.4806
      -------------------------------------------------------------
                  HL-Gap            0.0843507 Eh            2.2953 eV
             Fermi-level           -0.3770133 Eh          -10.2591 eV

 SCC (total)                   0 d,  0 h,  0 min,  0.003 sec
 SCC setup                      ...        0 min,  0.000 sec (  1.806%)
 Dispersion                     ...        0 min,  0.000 sec (  0.440%)
 integral evaluation            ...        0 min,  0.001 sec ( 40.262%)
 zeroth order Hamiltonian       ...        0 min,  0.000 sec (  0.485%)
 iterations                     ...        0 min,  0.000 sec ( 11.306%)
 molecular gradient             ...        0 min,  0.001 sec ( 42.563%)
 printout                       ...        0 min,  0.000 sec (  2.804%)

         :::::::::::::::::::::::::::::::::::::::::::::::::::::
         ::                     SUMMARY                     ::
         :::::::::::::::::::::::::::::::::::::::::::::::::::::
         :: total energy              -8.716495787571 Eh    ::
         :: gradient norm              0.000798026845 Eh/a0 ::
         :: HOMO-LUMO gap              2.295299403574 eV    ::
         ::.................................................::
         :: SCC energy                -8.857863175939 Eh    ::
         :: -> isotropic ES           -0.008351267213 Eh    ::
         :: -> anisotropic ES         -0.000023050279 Eh    ::
         :: -> anisotropic XC          0.007106063829 Eh    ::
         :: -> dispersion             -0.002016741008 Eh    ::
         :: repulsion energy           0.141367363644 Eh    ::
         :: add. restraining           0.000000000000 Eh    ::
         :::::::::::::::::::::::::::::::::::::::::::::::::::::

           ------------------------------------------------- 
          |                Numerical Hessian                |
           ------------------------------------------------- 
step length          :   0.00500
SCC accuracy         :   0.30000
Hessian scale factor :   1.00000
frozen atoms in %    :   0.00000    0
RMS gradient         :   0.00080
estimated CPU  time      0.00 min
estimated wall time      0.00 min

writing file <hessian>.

 projected vibrational frequencies (cm-1)
eigval :       -0.00    -0.00     0.00     0.00     0.00     0.00
eigval :      523.30   625.16   744.48   749.74   914.15  1054.86
eigval :     1272.82  1461.47  3186.82
           -------------------------------------------------
          |                Property Printout                |
           -------------------------------------------------

    * Orbital Energies and Occupations

         #    Occupation            Energy/Eh            Energy/eV
      -------------------------------------------------------------
         1        2.0000           -0.7180649             -19.5395
         2        2.0000           -0.6232153             -16.9586
         3        2.0000           -0.6035184             -16.4226
         4        2.0000           -0.5628352             -15.3155
         5        2.0000           -0.5099228             -13.8757
         6        2.0000           -0.5073149             -13.8047
         7        2.0000           -0.4463110             -12.1447
         8        2.0000           -0.4204034             -11.4398
         9        1.0000           -0.3906668             -10.6306 (HOMO)
        10                         -0.3063160              -8.3353 (LUMO)
        11                         -0.2689455              -7.3184
        12                         -0.2460970              -6.6966
        13                          0.1029167               2.8005
        14                          0.1183916               3.2216
        15                          0.1797022               4.8899
        16                          0.2701559               7.3513
        17                          0.6424000              17.4806
      -------------------------------------------------------------
                  HL-Gap            0.0843509 Eh            2.2953 eV
             Fermi-level           -0.3770133 Eh          -10.2591 eV

     #   Z        covCN         q      C6AA      α(0)
     1   6 C      3.505     0.060    21.048     6.798
     2   6 C      2.761    -0.039    28.948     8.811
     3   6 C      2.577    -0.061    29.547     8.887
     4   6 C      2.761    -0.039    28.948     8.811
     5   1 H      0.927     0.079     1.990     2.206

 Mol. C6AA /au·bohr⁶  :        492.071466
 Mol. C8AA /au·bohr⁸  :      13599.767905
 Mol. α(0) /au        :         35.512361


Wiberg/Mayer (AO) data.
largest (>0.10) Wiberg bond orders for each atom
          total WBO             WBO to atom ...
     1  C   3.856        C    4 1.205    C    2 1.205    H    5 0.955    C    3 0.492
     2  C   2.950        C    1 1.205    C    3 1.183    C    4 0.558
     3  C   2.887        C    2 1.183    C    4 1.183    C    1 0.492
     4  C   2.950        C    1 1.205    C    3 1.183    C    2 0.558
     5  H   0.994        C    1 0.955

MOs/occ written to file <molden.input>


molecular dipole:
                 x           y           z       tot (Debye)
 q only:        0.516      -0.034      -0.030
   full:        0.961       0.050       0.005       2.446
molecular quadrupole (traceless):
                xx          xy          yy          xz          yz          zz
 q only:        0.484      -0.265      -0.159      -0.162       0.136      -0.325
  q+dip:        1.099      -1.578      -0.043      -0.906       0.828      -1.056
   full:        0.406      -1.974       0.726      -1.113       1.482      -1.132

           -------------------------------------------------
          |                Geometry Summary                 |
           -------------------------------------------------

      molecular mass/u    :       49.0508844
   center of mass at/Å    :       -0.3519792       0.0654123       0.0430264
  moments of inertia/u·Å² :        0.2330863E+02   0.2905218E+02   0.4595933E+02
rotational constants/cm⁻¹ :        0.7232357E+00   0.5802536E+00   0.3667946E+00

 * 3 selected distances

     #   Z        #   Z                                     value/Å
     1   6 C      2   6 C                                 1.4031326 (max)
     1   6 C      4   6 C                                 1.4031307
     1   6 C      5   1 H                                 1.0671980 (min)

 * 2 distinct bonds (by element types)

   Z      Z             #   av. dist./Å        max./Å        min./Å
   1 H    6 C           1     1.0671980     1.0671980     1.0671980
   6 C    6 C           2     1.4031317     1.4031326     1.4031307

           -------------------------------------------------
          |               Frequency Printout                |
           -------------------------------------------------
 projected vibrational frequencies (cm-1)
eigval :       -0.00    -0.00     0.00     0.00     0.00     0.00
eigval :      523.30   625.16   744.48   749.74   914.15  1054.86
eigval :     1272.82  1461.47  3186.82
 reduced masses (amu)
Molecule has the following symmetry elements: (sigma) 
It seems to be the Cs point group
   1: 10.53   2: 11.98   3: 11.97   4: 11.90   5: 11.88   6: 10.58   7:  9.95   8:  9.76
   9: 11.79  10:  7.21  11:  3.79  12: 10.75  13: 11.49  14: 11.62  15:  1.96
 IR intensities (amu)
   1:  0.14   2:  0.11   3:  0.12   4:  0.10   5:  0.04   6:  0.14   7:  0.07   8:  0.36
   9:  0.76  10:  0.23  11:  0.62  12:  1.61  13:  0.77  14:  0.21  15:  0.09
 Raman intensities (amu)
   1:  0.00   2:  0.00   3:  0.00   4:  0.00   5:  0.00   6:  0.00   7:  0.00   8:  0.00
   9:  0.00  10:  0.00  11:  0.00  12:  0.00  13:  0.00  14:  0.00  15:  0.00
 output can be read by thermo (or use thermo option).
 writing <g98.out> molden fake output.
 recommended (thermochemical) frequency scaling factor: 1.0
           -------------------------------------------------
          |             Thermodynamic Functions             |
           -------------------------------------------------

cs  symmetry found (for desy threshold:  0.10E+00) used in thermo

          ...................................................
          :                      SETUP                      :
          :.................................................:
          :  # frequencies                           9      :
          :  # imaginary freq.                       0      :
          :  linear?                             false      :
          :  only rotor calc.                    false      :
          :  symmetry                               cs      :
          :  rotational number                       1      :
          :  scaling factor                  1.0000000      :
          :  rotor cutoff                   50.0000000 cm⁻¹ :
          :  imag. cutoff                  -20.0000000 cm⁻¹ :
          :.................................................:

    mode    ω/cm⁻¹     T·S(HO)/kcal·mol⁻¹    T·S(FR)/kcal·mol⁻¹   T·S(vib)
   ------------------------------------------------------------------------
   ------------------------------------------------------------------------

   temp. (K)  partition function   enthalpy   heat capacity  entropy
                                   cal/mol     cal/K/mol   cal/K/mol   J/K/mol
 298.15  VIB   1.23                  403.808      4.711      1.772
         ROT  0.135E+05              888.752      2.981     21.877
         INT  0.166E+05             1292.561      7.692     23.649
         TR   0.332E+27             1481.254      4.968     37.578
         TOT                        2773.8147    12.6597    61.2269   256.1735

   temp. (K)  partition function   enthalpy   heat capacity  entropy
                                   cal/mol     cal/K/mol   cal/K/mol   J/K/mol
 120.00  VIB   1.00                    4.424      0.256      0.042
         ROT  0.344E+04              357.707      2.981     19.164
         INT  0.345E+04              362.131      3.237     19.207
         TR   0.849E+26              596.178      4.968     33.058
         TOT                         958.3093     8.2055    52.2649   218.6763

   temp. (K)  partition function   enthalpy   heat capacity  entropy
                                   cal/mol     cal/K/mol   cal/K/mol   J/K/mol
 100.00  VIB   1.00                    1.124      0.091      0.013
         ROT  0.262E+04              298.089      2.981     18.621
         INT  0.262E+04              299.213      3.072     18.633
         TR   0.646E+26              496.815      4.968     32.153
         TOT                         796.0277     8.0402    50.7864   212.4902

   temp. (K)  partition function   enthalpy   heat capacity  entropy
                                   cal/mol     cal/K/mol   cal/K/mol   J/K/mol
  80.00  VIB   1.00                    0.152      0.019      0.002
         ROT  0.187E+04              238.471      2.981     17.956
         INT  0.187E+04              238.623      3.000     17.958
         TR   0.462E+26              397.452      4.968     31.045
         TOT                         636.0754     7.9678    49.0026   205.0267

   temp. (K)  partition function   enthalpy   heat capacity  entropy
                                   cal/mol     cal/K/mol   cal/K/mol   J/K/mol
  60.00  VIB   1.00                    0.006      0.001      0.000
         ROT  0.122E+04              178.853      2.981     17.098
         INT  0.122E+04              178.859      2.982     17.098
         TR   0.300E+26              298.089      4.968     29.616
         TOT                         476.9483     7.9503    46.7144   195.4532

   temp. (K)  partition function   enthalpy   heat capacity  entropy
                                   cal/mol     cal/K/mol   cal/K/mol   J/K/mol
  40.00  VIB   1.00                    0.000      0.000     -0.000
         ROT   662.                  119.236      2.981     15.889
         INT   662.                  119.236      2.981     15.889
         TR   0.163E+26              198.726      4.968     27.603
         TOT                         317.9616     7.9490    43.4922   181.9712

   temp. (K)  partition function   enthalpy   heat capacity  entropy
                                   cal/mol     cal/K/mol   cal/K/mol   J/K/mol
  20.00  VIB   1.00                    0.000      0.000     -0.000
         ROT   234.                   59.618      2.981     13.823
         INT   234.                   59.618      2.981     13.823
         TR   0.577E+25               99.363      4.968     24.161
         TOT                         158.9808     7.9490    37.9839   158.9245

   temp. (K)  partition function   enthalpy   heat capacity  entropy
                                   cal/mol     cal/K/mol   cal/K/mol   J/K/mol
  10.00  VIB   1.00                    0.000      0.000     -0.000
         ROT   82.8                   29.809      2.981     11.757
         INT   82.8                   29.809      2.981     11.757
         TR   0.204E+25               49.681      4.968     20.719
         TOT                          79.4904     7.9490    32.4756   135.8778

       T/K    H(0)-H(T)+PV         H(T)/Eh          T*S/Eh         G(T)/Eh
   ------------------------------------------------------------------------
    298.15    0.442036E-02    0.284158E-01    0.290909E-01   -0.675054E-03
    120.00    0.152716E-02    0.255226E-01    0.999473E-02    0.155279E-01
    100.00    0.126855E-02    0.252640E-01    0.809333E-02    0.171707E-01
     80.00    0.101365E-02    0.250091E-01    0.624724E-02    0.187619E-01
     60.00    0.760066E-03    0.247555E-01    0.446665E-02    0.202889E-01
     40.00    0.506704E-03    0.245022E-01    0.277237E-02    0.217298E-01
     20.00    0.253352E-03    0.242488E-01    0.121062E-02    0.230382E-01
     10.00    0.126676E-03    0.241222E-01    0.517531E-03    0.236046E-01 (used)
   ------------------------------------------------------------------------

         :::::::::::::::::::::::::::::::::::::::::::::::::::::
         ::                  THERMODYNAMIC                  ::
         :::::::::::::::::::::::::::::::::::::::::::::::::::::
         :: total free energy          -8.692891161800 Eh   ::
         ::.................................................::
         :: total energy               -8.716495788187 Eh   ::
         :: zero point energy           0.023995481618 Eh   ::
         :: G(RRHO) w/o ZPVE           -0.000390855231 Eh   ::
         :: G(RRHO) contrib.            0.023604626387 Eh   ::
         :::::::::::::::::::::::::::::::::::::::::::::::::::::

optimized geometry written to: xtbopt.xyz


           -------------------------------------------------
          | TOTAL ENERGY               -8.716495788187 Eh   |
          | TOTAL ENTHALPY             -8.692373630553 Eh   |
          | TOTAL FREE ENERGY          -8.692891161800 Eh   |
          | GRADIENT NORM               0.000797692079 Eh/α |
          | HOMO-LUMO GAP               2.295303596336 eV   |
           -------------------------------------------------

------------------------------------------------------------------------
 * finished run on 2020/05/12 at 11:45:12.108     
------------------------------------------------------------------------
 total:
 * wall-time:     0 d,  0 h,  0 min,  0.158 sec
 *  cpu-time:     0 d,  0 h,  0 min,  0.157 sec
 * ratio c/w:     0.996 speedup
 SCF:
 * wall-time:     0 d,  0 h,  0 min,  0.006 sec
 *  cpu-time:     0 d,  0 h,  0 min,  0.006 sec
 * ratio c/w:     1.000 speedup
 ANC optimizer:
 * wall-time:     0 d,  0 h,  0 min,  0.046 sec
 *  cpu-time:     0 d,  0 h,  0 min,  0.046 sec
 * ratio c/w:     1.000 speedup
 numerical hessian:
 * wall-time:     0 d,  0 h,  0 min,  0.089 sec
 *  cpu-time:     0 d,  0 h,  0 min,  0.089 sec
 * ratio c/w:     0.999 speedup

