5
 energy: -10.981416441993 gnorm: 0.170814547270 xtb: 6.2.2 (9d81278992624c895f80dd42a50cac0aa55982e2)
C         1.20149000000000   -0.58232100000000   -0.19388800000000
N        -0.00127200000000   -0.31324200000000    0.61243500000000
C        -0.74647400000000    0.75026600000000   -0.10559100000000
C        -1.16471900000000   -0.64129900000000   -0.22896900000000
C         0.71097600000000    0.78659500000000   -0.08398800000000
5
 energy: -11.010036326199 gnorm: 0.098598210060 xtb: 6.2.2 (9d81278992624c895f80dd42a50cac0aa55982e2)
C         1.19057381665874   -0.53746015499001   -0.19052800140187
N        -0.00033090859573   -0.37576113676740    0.65409666870155
C        -0.72173174271282    0.73702187782442   -0.12956881103367
C        -1.15615521927987   -0.59595293350042   -0.22532120381642
C         0.68764505392968    0.77215134743341   -0.10867965244959
5
 energy: -11.020648596755 gnorm: 0.052834871559 xtb: 6.2.2 (9d81278992624c895f80dd42a50cac0aa55982e2)
C         1.17237108964590   -0.48652642914509   -0.18616490664508
N         0.00091998128519   -0.45722044952459    0.70664537439896
C        -0.68914759248212    0.72719106657469   -0.15999811812019
C        -1.14065694016722   -0.54418424289818   -0.22044787134050
C         0.65651446171824    0.76073905499317   -0.14003547829320
5
 energy: -11.022913464756 gnorm: 0.027567462600 xtb: 6.2.2 (9d81278992624c895f80dd42a50cac0aa55982e2)
C         1.19437432797362   -0.48723582844579   -0.17492098043514
N         0.00153231435709   -0.47005978317853    0.68690914641654
C        -0.69797945676481    0.73465623752744   -0.16117525421107
C        -1.16292173318803   -0.54599789574317   -0.20985928659678
C         0.66499554762213    0.76863626984005   -0.14095462517354
5
 energy: -11.025531976465 gnorm: 0.036137003443 xtb: 6.2.2 (9d81278992624c895f80dd42a50cac0aa55982e2)
C         1.23474990166408   -0.47451993697052   -0.14529731168685
N         0.00335615917545   -0.52017241942626    0.64815122754797
C        -0.70279563355309    0.74790384311507   -0.17087753484428
C        -1.20474283447264   -0.53533099129821   -0.18145570153860
C         0.66943340718620    0.78211850457992   -0.15052167947824
5
 energy: -11.028023454301 gnorm: 0.056438150832 xtb: 6.2.2 (9d81278992624c895f80dd42a50cac0aa55982e2)
C         1.27032869619358   -0.45629164621875   -0.10465146853440
N         0.00585864029781   -0.58838031247807    0.59414864198327
C        -0.70183885816059    0.76471689917042   -0.18395067703337
C        -1.24237572675492   -0.51892445468360   -0.14190450652779
C         0.66802824842412    0.79887851421000   -0.16364298988770
5
 energy: -11.031406490956 gnorm: 0.062081258910 xtb: 6.2.2 (9d81278992624c895f80dd42a50cac0aa55982e2)
C         1.28515102050151   -0.43825713974901   -0.05532716172772
N         0.00884495521286   -0.66627469355970    0.52359429520088
C        -0.69683416547995    0.78615900344569   -0.19769550972752
C        -1.25954546375542   -0.50169578598080   -0.09304425600125
C         0.66238465352099    0.82006761584382   -0.17752836774441
5
 energy: -11.034935319233 gnorm: 0.029968396258 xtb: 6.2.2 (9d81278992624c895f80dd42a50cac0aa55982e2)
C         1.25824290638630   -0.43015311295919   -0.01392814446528
N         0.01125794647891   -0.72300606032432    0.45589935104517
C        -0.68808806056198    0.80599357007090   -0.20553357328399
C        -1.23433450194077   -0.49230762880594   -0.05084530570788
C         0.65292270963754    0.83947223201855   -0.18559332758802
5
 energy: -11.035490002019 gnorm: 0.015912549706 xtb: 6.2.2 (9d81278992624c895f80dd42a50cac0aa55982e2)
C         1.25278948849325   -0.43073989368846   -0.01674870680483
N         0.01094524036358   -0.70953142419728    0.45393074217605
C        -0.68726856904093    0.79972130555675   -0.20184941056667
C        -1.22879633613452   -0.49263556410978   -0.05346395806947
C         0.65233117631862    0.83318457643878   -0.18186966673508
5
 energy: -11.036066975915 gnorm: 0.006209524596 xtb: 6.2.2 (9d81278992624c895f80dd42a50cac0aa55982e2)
C         1.26312572401935   -0.42384735805278   -0.00692224726517
N         0.01124989128610   -0.70817416884182    0.42959146063256
C        -0.68443449331235    0.79247704290670   -0.19950828172555
C        -1.23983404662756   -0.48634503366095   -0.04379911652870
C         0.64989392463446    0.82588851764885   -0.17936281511314
5
 energy: -11.036232362749 gnorm: 0.002263284735 xtb: 6.2.2 (9d81278992624c895f80dd42a50cac0aa55982e2)
C         1.27466230795758   -0.41795295372338    0.00417363483214
N         0.01167409184001   -0.71349094724415    0.40582006538925
C        -0.68234618763300    0.78957300384289   -0.19908161068672
C        -1.25220748502257   -0.48123881021913   -0.03261626949178
C         0.64821827285798    0.82310870734377   -0.17829682004288
5
 energy: -11.036241214323 gnorm: 0.001779948855 xtb: 6.2.2 (9d81278992624c895f80dd42a50cac0aa55982e2)
C         1.27576356396255   -0.41776819556273    0.00538246582783
N         0.01161278594167   -0.71369725044937    0.40167133187097
C        -0.68199154750739    0.78950849407374   -0.19943322006999
C        -1.25384092650751   -0.48153086827325   -0.03048644830184
C         0.64845712411069    0.82348682021161   -0.17713512932697
5
 energy: -11.036305285800 gnorm: 0.007118439464 xtb: 6.2.2 (9d81278992624c895f80dd42a50cac0aa55982e2)
C         1.27727495060514   -0.41729125244025    0.00566067559202
N         0.01055302166100   -0.71303763668907    0.38828319277526
C        -0.67870666849104    0.78864074632458   -0.20499753281216
C        -1.26012280765842   -0.48521925737169   -0.02097199945653
C         0.65100250388332    0.82690640017643   -0.16797533609858
5
 energy: -11.036730276508 gnorm: 0.018104123758 xtb: 6.2.2 (9d81278992624c895f80dd42a50cac0aa55982e2)
C         1.27762681480925   -0.41409375622759    0.00241492507709
N         0.00830353306774   -0.71320161422918    0.37256504071345
C        -0.67212166658906    0.78536253130995   -0.21790188449825
C        -1.26985291782379   -0.49011541257398   -0.00564572102035
C         0.65604523653586    0.83204725172080   -0.15143336027193
5
 energy: -11.038559988472 gnorm: 0.042111109121 xtb: 6.2.2 (9d81278992624c895f80dd42a50cac0aa55982e2)
C         1.28040449814757   -0.40512736650884   -0.00438715115427
N         0.00231882187511   -0.71323162744203    0.32510987617331
C        -0.65512703914938    0.77549478107533   -0.25210738726411
C        -1.29719831017614   -0.50206162257601    0.03764056643505
C         0.66960302930284    0.84492483545154   -0.10625690418998
5
 energy: -11.021668832190 gnorm: 0.134434584583 xtb: 6.2.2 (9d81278992624c895f80dd42a50cac0aa55982e2)
C         1.27815072040728   -0.36530030816345   -0.06729682020539
N        -0.03042689175878   -0.69629201113021    0.15363721210712
C        -0.57853469548814    0.71275879652476   -0.42249786771034
C        -1.40376437333789   -0.54981864930632    0.22336923890393
C         0.73457624017754    0.89865117207522    0.11278723690468
5
 energy: -11.039511117340 gnorm: 0.068027532531 xtb: 6.2.2 (9d81278992624c895f80dd42a50cac0aa55982e2)
C         1.26554602993670   -0.39321079473168   -0.04832356801662
N        -0.01931073863251   -0.68935054825314    0.27138377043923
C        -0.61746124567364    0.74343120078994   -0.32581134860368
C        -1.32530461986223   -0.52729301503352    0.10924277961113
C         0.69653157423168    0.86642215722839   -0.00649263343007
5
 energy: -11.041617165896 gnorm: 0.046882554583 xtb: 6.2.2 (9d81278992624c895f80dd42a50cac0aa55982e2)
C         1.27675794523078   -0.39776935254605   -0.02023869090932
N        -0.00817162907293   -0.71675790925724    0.28725758086967
C        -0.63462992130387    0.75107764493844   -0.29671640775250
C        -1.30883576055856   -0.49710050971925    0.08554860135692
C         0.67488036570458    0.86054912658409   -0.05585208356478
5
 energy: -11.042902206003 gnorm: 0.034868729272 xtb: 6.2.2 (9d81278992624c895f80dd42a50cac0aa55982e2)
C         1.27114099883243   -0.40062198036882   -0.03697046708955
N        -0.00596060793890   -0.70749444937724    0.31991225630572
C        -0.63894307986088    0.73897308206359   -0.30226700158014
C        -1.30137397692919   -0.48916465719681    0.07246323649243
C         0.67513766589654    0.85830700487927   -0.05313902412847
5
 energy: -11.045158554847 gnorm: 0.020302664153 xtb: 6.2.2 (9d81278992624c895f80dd42a50cac0aa55982e2)
C         1.25606814245332   -0.39710066699958   -0.06981390818149
N        -0.00291649972915   -0.69799727680736    0.35557768318376
C        -0.63541221140201    0.70063942779768   -0.33553326366336
C        -1.29774023936655   -0.46844502564220    0.07448793849114
C         0.68000180804439    0.86290254165146   -0.02471944983004
5
 energy: -11.046993854745 gnorm: 0.015806854940 xtb: 6.2.2 (9d81278992624c895f80dd42a50cac0aa55982e2)
C         1.25028736631978   -0.38977297664043   -0.07618690411101
N         0.00154513285489   -0.70522165663595    0.33389609655377
C        -0.62624911686272    0.66422968423557   -0.36862491157672
C        -1.30639315924043   -0.44350687157482    0.10420865307903
C         0.68081077692849    0.87427082061562    0.00670606605492
5
 energy: -11.047584363969 gnorm: 0.011614578205 xtb: 6.2.2 (9d81278992624c895f80dd42a50cac0aa55982e2)
C         1.25495227668996   -0.38714816644665   -0.07101236410260
N         0.00271686537528   -0.71259676041547    0.31858173909915
C        -0.62232881270903    0.65791161545209   -0.37918085497593
C        -1.31058228450971   -0.43454302061116    0.11881697647469
C         0.67524295515350    0.87637533202119    0.01279350350470
5
 energy: -11.048433375612 gnorm: 0.015943020250 xtb: 6.2.2 (9d81278992624c895f80dd42a50cac0aa55982e2)
C         1.27110782220655   -0.38031649943892   -0.04826260297268
N         0.00739219409454   -0.73468366628059    0.26150773916440
C        -0.61491466439057    0.63865359915875   -0.41319056850687
C        -1.32168368323481   -0.40495431327488    0.16906407456046
C         0.65809933132428    0.88129987983564    0.03088035775468
5
 energy: -11.048603899624 gnorm: 0.010477248400 xtb: 6.2.2 (9d81278992624c895f80dd42a50cac0aa55982e2)
C         1.27058227231729   -0.38221608140261   -0.04543071094635
N         0.00787773614541   -0.73155023954846    0.25987334062787
C        -0.61868613995329    0.64066761590500   -0.41039318430359
C        -1.31798251053436   -0.40578708505234    0.16759853995052
C         0.65820964202495    0.87888479009841    0.02835101467155
5
 energy: -11.048878734506 gnorm: 0.007763879736 xtb: 6.2.2 (9d81278992624c895f80dd42a50cac0aa55982e2)
C         1.27395991823705   -0.38591320219355   -0.03212037431549
N         0.01087846513173   -0.72794998900634    0.23918739064592
C        -0.62807681725058    0.64230105620034   -0.41559830002784
C        -1.30967385812014   -0.40010085690004    0.17937288536320
C         0.65291329200194    0.87166199189958    0.02915739833421
5
 energy: -11.048994810123 gnorm: 0.008993697186 xtb: 6.2.2 (9d81278992624c895f80dd42a50cac0aa55982e2)
C         1.27842145993764   -0.38750928498301   -0.02422436705021
N         0.01281176420206   -0.72694621797114    0.22460749878167
C        -0.63366884127730    0.64415792849721   -0.42340870198224
C        -1.30531018117112   -0.39544546443062    0.19035405257089
C         0.64774679830871    0.86574203888756    0.03267051767989
5
 energy: -11.049147130361 gnorm: 0.009058986440 xtb: 6.2.2 (9d81278992624c895f80dd42a50cac0aa55982e2)
C         1.28794001515793   -0.38968210513136   -0.01318314312838
N         0.01526906372709   -0.72520294111230    0.20425651074467
C        -0.64345904745641    0.65063632654116   -0.43685936487894
C        -1.29791979997945   -0.38905129548661    0.20710227625105
C         0.63817076855084    0.85329901518911    0.03868272101160
5
 energy: -11.049247100963 gnorm: 0.007221431609 xtb: 6.2.2 (9d81278992624c895f80dd42a50cac0aa55982e2)
C         1.29524542748492   -0.39054618856399   -0.00844433663742
N         0.01586490360615   -0.72388807729408    0.19696776362979
C        -0.65010411803984    0.65848623132333   -0.44358447639784
C        -1.29258754729307   -0.38695741960583    0.21406500581558
C         0.63158233424185    0.84290445414057    0.04099504358988
5
 energy: -11.049326862162 gnorm: 0.003729289618 xtb: 6.2.2 (9d81278992624c895f80dd42a50cac0aa55982e2)
C         1.30112609863960   -0.38975015575389   -0.00775002643833
N         0.01528142729314   -0.72452974778390    0.19799978404615
C        -0.65376561108882    0.66660407526785   -0.44613423139056
C        -1.28912997223699   -0.38666667989829    0.21506844562253
C         0.62648905739307    0.83434150816823    0.04081502816020
5
 energy: -11.049349004467 gnorm: 0.002268958064 xtb: 6.2.2 (9d81278992624c895f80dd42a50cac0aa55982e2)
C         1.30262815974774   -0.38820418753001   -0.00863362910833
N         0.01483853420404   -0.72698873631351    0.20080809852022
C        -0.65350502458152    0.66894022116671   -0.44584343404812
C        -1.28884001494203   -0.38609644431593    0.21383459289023
C         0.62487934557177    0.83234814699276    0.03983337174600
5
 energy: -11.049355149847 gnorm: 0.001873766244 xtb: 6.2.2 (9d81278992624c895f80dd42a50cac0aa55982e2)
C         1.30282523915664   -0.38733357445850   -0.00848168443009
N         0.01493027253626   -0.72877725026524    0.20148240778040
C        -0.65359342633711    0.66953692582069   -0.44559602725852
C        -1.28847172349542   -0.38519491813279    0.21344326399283
C         0.62431063813964    0.83176781703584    0.03915103991538
5
 energy: -11.049360378413 gnorm: 0.001091976599 xtb: 6.2.2 (9d81278992624c895f80dd42a50cac0aa55982e2)
C         1.30308781288902   -0.38622578085241   -0.00678155654520
N         0.01557307781951   -0.73182838983801    0.20052510543189
C        -0.65494307228385    0.67051130708957   -0.44572428378838
C        -1.28709317937550   -0.38302595782484    0.21392462127092
C         0.62337636095081    0.83056782142569    0.03805511363077
5
 energy: -11.049361673954 gnorm: 0.000304011897 xtb: 6.2.2 (9d81278992624c895f80dd42a50cac0aa55982e2)
C         1.30310386827277   -0.38654574780245   -0.00586168688008
N         0.01584149233299   -0.73178604754498    0.19930847597647
C        -0.65580186695504    0.67077889110016   -0.44604288182826
C        -1.28658235675346   -0.38283659719974    0.21458286025761
C         0.62343986310274    0.83038850144700    0.03801223247427
