 Entering Gaussian System
 *********************************************
 Gaussian 98:
 frequency output generated by the xtb code
 *********************************************
                         Standard orientation:
 --------------------------------------------------------------------
  Center     Atomic     Atomic              Coordinates (Angstroms)
  Number     Number      Type              X           Y           Z
 --------------------------------------------------------------------
    1          6             0        1.303102   -0.386553   -0.005866
    2          7             0        0.015838   -0.731786    0.199310
    3          6             0       -0.655800    0.670782   -0.446042
    4          6             0       -1.286584   -0.382829    0.214588
    5          6             0        0.623444    0.830385    0.038009
 --------------------------------------------------------------------
     1 basis functions        1 primitive gaussians
     1 alpha electrons        1 beta electrons

 Harmonic frequencies (cm**-1), IR intensities (KM/Mole),
 Raman scattering activities (A**4/amu), Raman depolarization ratios,
 reduced masses (AMU), force constants (mDyne/A) and normal coordinates:
                      1                      2                      3
                        a                      a                      a 
 Frequencies --   213.1175               422.7352               448.9541
 Red. masses --    12.5375                12.1784                12.5334
 Frc consts  --     0.0000                 0.0000                 0.0000
 IR Inten    --     0.3919                 0.7332                 0.1963
 Raman Activ --     0.0000                 0.0000                 0.0000
 Depolar     --     0.0000                 0.0000                 0.0000
 Atom AN      X      Y      Z        X      Y      Z        X      Y      Z
   1   6    -0.22  -0.01  -0.42     0.08   0.01  -0.31     0.19  -0.10  -0.24
   2   7    -0.05   0.13   0.49    -0.01   0.28  -0.08     0.14   0.13   0.47
   3   6     0.25  -0.21   0.20     0.14  -0.37  -0.45    -0.27   0.42  -0.13
   4   6    -0.21  -0.21  -0.37    -0.09   0.16   0.26     0.19  -0.02  -0.26
   5   6     0.24   0.29   0.06    -0.12  -0.10   0.57    -0.25  -0.44   0.11
                      4                      5                      6
                        a                      a                      a 
 Frequencies --   631.0886               832.3633               882.7722
 Red. masses --    13.2297                12.0126                12.8135
 Frc consts  --     0.0000                 0.0000                 0.0000
 IR Inten    --     0.7202                 0.6069                 0.8776
 Raman Activ --     0.0000                 0.0000                 0.0000
 Depolar     --     0.0000                 0.0000                 0.0000
 Atom AN      X      Y      Z        X      Y      Z        X      Y      Z
   1   6     0.16  -0.34   0.17     0.51   0.33  -0.02     0.11   0.42  -0.05
   2   7    -0.02   0.75  -0.20    -0.00  -0.03   0.01    -0.63  -0.00   0.04
   3   6    -0.07  -0.01   0.15    -0.01  -0.23   0.29     0.22   0.21  -0.14
   4   6    -0.14  -0.38   0.03    -0.52   0.27  -0.14     0.13  -0.38   0.17
   5   6     0.07  -0.08  -0.12     0.02  -0.34  -0.13     0.23  -0.24  -0.02
                      7                      8                      9
                        a                      a                      a 
 Frequencies --  1218.4578              1275.2273              1429.4998
 Red. masses --    12.0176                12.1608                12.5182
 Frc consts  --     0.0000                 0.0000                 0.0000
 IR Inten    --     0.7670                 0.1690                 1.1865
 Raman Activ --     0.0000                 0.0000                 0.0000
 Depolar     --     0.0000                 0.0000                 0.0000
 Atom AN      X      Y      Z        X      Y      Z        X      Y      Z
   1   6    -0.13   0.13   0.05     0.44  -0.23  -0.04     0.44  -0.23  -0.05
   2   7    -0.00   0.06  -0.02     0.01  -0.26   0.07    -0.50  -0.00   0.03
   3   6    -0.65  -0.19  -0.08    -0.20   0.30  -0.30    -0.16  -0.27   0.17
   4   6     0.12   0.09  -0.11    -0.43  -0.20   0.16     0.43   0.19  -0.16
   5   6     0.66  -0.09   0.15     0.18   0.42   0.10    -0.17   0.31   0.01
