      -----------------------------------------------------------      
     |                   =====================                   |     
     |                           x T B                           |     
     |                   =====================                   |     
     |                         S. Grimme                         |     
     |          Mulliken Center for Theoretical Chemistry        |     
     |                    University of Bonn                     |     
      -----------------------------------------------------------      

   * xtb version 6.2.2 (9d81278992624c895f80dd42a50cac0aa55982e2) compiled by '@Darwin' on 04/03/2020

   xtb is free software: you can redistribute it and/or modify it under
   the terms of the GNU Lesser General Public License as published by
   the Free Software Foundation, either version 3 of the License, or
   (at your option) any later version.
   
   xtb is distributed in the hope that it will be useful,
   but WITHOUT ANY WARRANTY; without even the implied warranty of
   MERCHANTABILITY or FITNESS FOR A PARTICULAR PURPOSE.  See the
   GNU Lesser General Public License for more details.
   
   Cite this work as:
   * S. Grimme, C. Bannwarth, P. Shushkov, J. Chem. Theory Comput., 2017,
     13, 1989-2009. DOI: 10.1021/acs.jctc.7b00118
   * C. Bannwarth, S. Ehlert and S. Grimme., J. Chem. Theory Comput., 2019,
     15, 1652-1671. DOI: 10.1021/acs.jctc.8b01176
   * P. Pracht, E. Caldeweyher, S. Ehlert, S. Grimme, ChemRxiv, 2019, preprint.
     DOI: 10.26434/chemrxiv.8326202.v1
   
   for DFT-D4:
   * E. Caldeweyher, C. Bannwarth and S. Grimme, J. Chem. Phys., 2017,
     147, 034112. DOI: 10.1063/1.4993215
   * E. Caldeweyher, S. Ehlert, A. Hansen, H. Neugebauer, S. Spicher,
     C. Bannwarth and S. Grimme, J. Chem. Phys., 2019, 150, 154122.
     DOI: 10.1063/1.5090222
   
   for sTDA-xTB:
   * S. Grimme and C. Bannwarth, J. Chem. Phys., 2016, 145, 054103.
     DOI: 10.1063/1.4959605
   
   in the mass-spec context:
   * V. Asgeirsson, C. Bauer and S. Grimme, Chem. Sci., 2017, 8, 4879.
     DOI: 10.1039/c7sc00601b
   
   for metadynamics refer to:
   * S. Grimme, J. Chem. Theory Comput., 2019, 155, 2847-2862
     DOI: 10.1021/acs.jctc.9b00143
   
   with help from (in alphabetical order)
   C. Bannwarth, F. Bohle, G. Brandenburg, E. Caldeweyher, M. Checinski,
   S. Dohm, S. Ehlert, S. Ehrlich, F. März, H. Neugebauer, J. Pisarek,
   P. Pracht, P. Shushkov, and S. Spicher.
   
 * started run on 2020/05/12 at 11:45:07.147     

           -------------------------------------------------
          |                Calculation Setup                |
           -------------------------------------------------

          program call               : xtb --input H2C1O1_0_S_0.input H2C1O1_0_S_0.xyz --ohess --molden --namespace H2C1O1_0_S_0 output.out
          calculation namespace      : H2C1O1_0_S_0
          coordinate file            : H2C1O1_0_S_0.xyz
          number of atoms            :                     4
          number of electrons        :                    12
          charge                     :                     0
          spin                       :                   0.0
          first test random number   :      0.86546788062683

   ID    Z sym.   atoms
    1    8 O      1
    2    6 C      2
    3    1 H      3, 4

           -------------------------------------------------
          |                 G F N 2 - x T B                 |
           -------------------------------------------------

        Reference                      10.1021/acs.jctc.8b01176
      * Hamiltonian:
        H0-scaling (s, p, d)           1.850000    2.230000    2.230000
        zeta-weighting                 0.500000
      * Dispersion:
        s8                             2.700000
        a1                             0.520000
        a2                             5.000000
        s9                             5.000000
      * Repulsion:
        kExp                           1.500000    1.000000
        rExp                           1.000000
      * Coulomb:
        alpha                          2.000000
        third order                    shell-resolved
        anisotropic                    true
        a3                             3.000000
        a5                             4.000000
        cn-shift                       1.200000
        cn-exp                         4.000000
        max-rad                        5.000000


          ...................................................
          :                      SETUP                      :
          :.................................................:
          :  # basis functions                  10          :
          :  # atomic orbitals                  10          :
          :  # shells                            6          :
          :  # electrons                        12          :
          :  max. iterations                   250          :
          :  Hamiltonian                  GFN2-xTB          :
          :  restarted?                      false          :
          :  GBSA solvation                  false          :
          :  PC potential                    false          :
          :  electronic temp.          300.0000000     K    :
          :  accuracy                    1.0000000          :
          :  -> integral cutoff          0.2500000E+02      :
          :  -> integral neglect         0.1000000E-07      :
          :  -> SCF convergence          0.1000000E-05 Eh   :
          :  -> wf. convergence          0.1000000E-03 e    :
          :  Broyden damping             0.4000000          :
          ...................................................

 iter      E             dE          RMSdq      gap      omega  full diag
   1     -7.1180937 -0.711809E+01  0.784E+00    1.88       0.0  T
   2     -7.1195369 -0.144319E-02  0.492E+00    1.82       1.0  T
   3     -7.1181775  0.135946E-02  0.104E+00    1.76       1.0  T
   4     -7.1208449 -0.266743E-02  0.349E-01    1.78       1.0  T
   5     -7.1207983  0.466108E-04  0.199E-01    1.81       1.0  T
   6     -7.1208680 -0.697356E-04  0.852E-02    1.81       1.0  T
   7     -7.1208902 -0.221388E-04  0.249E-02    1.81       2.0  T
   8     -7.1208924 -0.218917E-05  0.476E-03    1.82      10.5  T
   9     -7.1208924 -0.316302E-07  0.230E-03    1.82      21.7  T
  10     -7.1208924 -0.172841E-07  0.121E-04    1.82     411.6  T
  11     -7.1208924 -0.114415E-10  0.486E-05    1.82    1028.0  T

   *** convergence criteria satisfied after 11 iterations ***

         #    Occupation            Energy/Eh            Energy/eV
      -------------------------------------------------------------
         1        2.0000           -0.7253583             -19.7380
         2        2.0000           -0.6328320             -17.2202
         3        2.0000           -0.5797198             -15.7750
         4        2.0000           -0.5261808             -14.3181
         5        2.0000           -0.5110776             -13.9071
         6        2.0000           -0.3752508             -10.2111 (HOMO)
         7                         -0.3085346              -8.3957 (LUMO)
         8                          0.0489551               1.3321
         9                          0.1374724               3.7408
        10                          0.1682664               4.5788
      -------------------------------------------------------------
                  HL-Gap            0.0667162 Eh            1.8154 eV
             Fermi-level           -0.3418927 Eh           -9.3034 eV

 SCC (total)                   0 d,  0 h,  0 min,  0.002 sec
 SCC setup                      ...        0 min,  0.000 sec (  5.108%)
 Dispersion                     ...        0 min,  0.000 sec (  0.520%)
 integral evaluation            ...        0 min,  0.000 sec ( 23.415%)
 zeroth order Hamiltonian       ...        0 min,  0.000 sec (  0.609%)
 iterations                     ...        0 min,  0.001 sec ( 44.647%)
 molecular gradient             ...        0 min,  0.000 sec ( 22.420%)
 printout                       ...        0 min,  0.000 sec (  2.806%)

         :::::::::::::::::::::::::::::::::::::::::::::::::::::
         ::                     SUMMARY                     ::
         :::::::::::::::::::::::::::::::::::::::::::::::::::::
         :: total energy              -7.085687994707 Eh    ::
         :: gradient norm              0.087742238806 Eh/a0 ::
         :: HOMO-LUMO gap              1.815439255507 eV    ::
         ::.................................................::
         :: SCC energy                -7.120892405164 Eh    ::
         :: -> isotropic ES            0.009210045054 Eh    ::
         :: -> anisotropic ES         -0.001636660903 Eh    ::
         :: -> anisotropic XC          0.004558914733 Eh    ::
         :: -> dispersion             -0.000631437106 Eh    ::
         :: repulsion energy           0.035204413512 Eh    ::
         :: add. restraining           0.000000000000 Eh    ::
         :::::::::::::::::::::::::::::::::::::::::::::::::::::

      ----------------------------------------------------------- 
     |                   =====================                   |
     |                        A N C O P T                        |
     |                   =====================                   |
     |               Approximate Normal Coordinate               |
     |                Rational Function Optimizer                |
      ----------------------------------------------------------- 

          ...................................................
          :                      SETUP                      :
          :.................................................:
          :   optimization level            normal          :
          :   max. optcycles                   200          :
          :   ANC micro-cycles                  20          :
          :   degrees of freedom                 6          :
          :.................................................:
          :   RF solver                   davidson          :
          :   write xtbopt.log                true          :
          :   linear?                        false          :
          :   energy convergence         0.5000000E-05 Eh   :
          :   grad. convergence          0.1000000E-02 Eh/α :
          :   maximium RF displ.         1.0000000          :
          :   Hlow (freq-cutoff)         0.1000000E-01      :
          :   Hmax (freq-cutoff)         5.0000000          :
          :   S6 in model hess.         20.0000000          :
          ...................................................

generating ANC from model Hessian ...
Using Lindh-Hessian (1995)
 Shifting diagonal of input Hessian by    0.0000000000000000     
 Lowest  eigenvalues of input Hessian
   -0.000000   -0.000000    0.000000    0.000000    0.000000    0.000000
    0.019118    0.107290    0.170077    0.835790    1.135074    1.327481
 Highest eigenvalues
    0.019118    0.107290    0.170077    0.835790    1.135074    1.327481


........................................................................
.............................. CYCLE    1 ..............................
........................................................................
   1     -7.1208924 -0.712089E+01  0.220E-06    1.82       0.0  T
   2     -7.1208924 -0.799361E-14  0.134E-06    1.82   37430.1  T
   3     -7.1208924 -0.710543E-14  0.703E-07    1.82   71140.7  T
     SCC iter.                  ...        0 min,  0.000 sec
     gradient                   ...        0 min,  0.000 sec
 * total energy  :    -7.0856880 Eh     change        0.2819931E-09 Eh
   gradient norm :     0.0877421 Eh/α   predicted     0.0000000E+00 (-100.00%)
   displ. norm   :     0.1780770 α      lambda       -0.9124567E-02
   maximum displ.:     0.1628054 α      in ANC's #2, #5, #6, ...

........................................................................
.............................. CYCLE    2 ..............................
........................................................................
   1     -7.1330120 -0.713301E+01  0.618E-01    2.02       0.0  T
   2     -7.1332924 -0.280447E-03  0.345E-01    2.02       1.0  T
   3     -7.1333354 -0.429844E-04  0.191E-01    2.01       1.0  T
   4     -7.1333483 -0.128763E-04  0.217E-02    2.01       2.3  T
   5     -7.1333485 -0.174634E-06  0.536E-03    2.01       9.3  T
   6     -7.1333485 -0.387066E-08  0.207E-03    2.01      24.2  T
   7     -7.1333485 -0.708545E-08  0.421E-04    2.01     118.8  T
   8     -7.1333485 -0.811005E-10  0.835E-05    2.01     599.1  T
     SCC iter.                  ...        0 min,  0.000 sec
     gradient                   ...        0 min,  0.000 sec
 * total energy  :    -7.0919159 Eh     change       -0.6227939E-02 Eh
   gradient norm :     0.0414103 Eh/α   predicted    -0.4706960E-02 ( -24.42%)
   displ. norm   :     0.0809539 α      lambda       -0.2751208E-02
   maximum displ.:     0.0461034 α      in ANC's #5, #2, #6, ...

........................................................................
.............................. CYCLE    3 ..............................
........................................................................
   1     -7.1397482 -0.713975E+01  0.510E-01    2.12       0.0  T
   2     -7.1399368 -0.188614E-03  0.281E-01    2.11       1.0  T
   3     -7.1399558 -0.190063E-04  0.155E-01    2.10       1.0  T
   4     -7.1399623 -0.643642E-05  0.161E-02    2.10       3.1  T
   5     -7.1399624 -0.870329E-07  0.457E-03    2.10      10.9  T
   6     -7.1399624 -0.249705E-08  0.156E-03    2.10      32.1  T
   7     -7.1399624 -0.454960E-08  0.308E-04    2.10     162.2  T
   8     -7.1399624 -0.351221E-10  0.732E-05    2.10     683.1  T
     SCC iter.                  ...        0 min,  0.000 sec
     gradient                   ...        0 min,  0.000 sec
 * total energy  :    -7.0930882 Eh     change       -0.1172228E-02 Eh
   gradient norm :     0.0113314 Eh/α   predicted    -0.1384619E-02 (  18.12%)
   displ. norm   :     0.0193055 α      lambda       -0.1655753E-03
   maximum displ.:     0.0147226 α      in ANC's #3, #6, #2, ...

........................................................................
.............................. CYCLE    4 ..............................
........................................................................
   1     -7.1385011 -0.713850E+01  0.973E-02    2.07       0.0  T
   2     -7.1385169 -0.158488E-04  0.446E-02    2.07       1.1  T
   3     -7.1385188 -0.193001E-05  0.256E-02    2.08       2.0  T
   4     -7.1385189 -0.104533E-06  0.375E-03    2.08      13.3  T
   5     -7.1385190 -0.410864E-08  0.105E-03    2.08      47.4  T
   6     -7.1385190 -0.227003E-09  0.148E-04    2.08     338.6  T
   7     -7.1385190 -0.274358E-10  0.401E-05    2.08    1246.7  T
     SCC iter.                  ...        0 min,  0.001 sec
     gradient                   ...        0 min,  0.000 sec
 * total energy  :    -7.0931735 Eh     change       -0.8534527E-04 Eh
   gradient norm :     0.0013420 Eh/α   predicted    -0.8281923E-04 (  -2.96%)
   displ. norm   :     0.0096194 α      lambda       -0.6080305E-05
   maximum displ.:     0.0084283 α      in ANC's #3, #2, #5, ...

........................................................................
.............................. CYCLE    5 ..............................
........................................................................
   1     -7.1384886 -0.713849E+01  0.314E-02    2.08       0.0  T
   2     -7.1384889 -0.361435E-06  0.181E-02    2.08       2.8  T
   3     -7.1384889 -0.180622E-07  0.862E-03    2.08       5.8  T
   4     -7.1384890 -0.396316E-07  0.102E-03    2.08      48.8  T
   5     -7.1384890 -0.286588E-09  0.206E-04    2.08     243.0  T
   6     -7.1384890 -0.209246E-10  0.385E-05    2.08    1299.2  T
     SCC iter.                  ...        0 min,  0.000 sec
     gradient                   ...        0 min,  0.000 sec
 * total energy  :    -7.0931774 Eh     change       -0.3930445E-05 Eh
   gradient norm :     0.0004273 Eh/α   predicted    -0.3040040E-05 ( -22.65%)
   displ. norm   :     0.0017218 α      lambda       -0.3601996E-06
   maximum displ.:     0.0016382 α      in ANC's #3, #6, #2, ...

   *** GEOMETRY OPTIMIZATION CONVERGED AFTER 5 ITERATIONS ***

------------------------------------------------------------------------
 total energy gain   :        -0.0074894 Eh       -4.6997 kcal/mol
 total RMSD          :         0.1183350 a0        0.0626 Å
 total power (kW/mol):        -3.9327054 (step)-3166.9922 (real)
------------------------------------------------------------------------

 ANCopt (total)                0 d,  0 h,  0 min,  0.006 sec
 optimizer setup                ...        0 min,  0.000 sec (  1.078%)
 model hessian                  ...        0 min,  0.000 sec (  1.124%)
 ANC generation                 ...        0 min,  0.000 sec (  0.706%)
 coordinate transformation      ...        0 min,  0.000 sec (  0.169%)
 single point calculation       ...        0 min,  0.006 sec ( 89.889%)
 optimization log               ...        0 min,  0.000 sec (  1.868%)
 hessian update                 ...        0 min,  0.000 sec (  0.153%)
 rational function              ...        0 min,  0.000 sec (  1.772%)

================
 final structure:
================
4
 xtb: 6.2.2 (9d81278992624c895f80dd42a50cac0aa55982e2)
O        -0.53151867188266   -0.32095865494901    0.14653827075910
C         0.50633295156357    0.39954385014628   -0.18034818099687
H        -1.36477259637443    0.14892280318207   -0.04642708212892
H         1.38995931669352   -0.22750799837934    0.08023699236669

 Bond Distances (Angstroems)
 ---------------------------
O1-C2=1.3050         O1-H3=0.9759         C2-O1=1.3050         C2-H4=1.1144         H3-O1=0.9759         H4-C2=1.1144         
 C  H  Rav=1.1144 sigma=0.0000  Rmin=1.1144  Rmax=1.1144     1
 O  H  Rav=0.9759 sigma=0.0000  Rmin=0.9759  Rmax=0.9759     1
 O  C  Rav=1.3050 sigma=0.0000  Rmin=1.3050  Rmax=1.3050     1

 selected bond angles (degree)
 --------------------
H3-O1-C2=111.33                H4-C2-O1=105.15                

 selected dihedral angles (degree)
 ---------------------------------
H4-C2-O1-H3=180.00            
           -------------------------------------------------
          |                Final Singlepoint                |
           -------------------------------------------------

          ...................................................
          :                      SETUP                      :
          :.................................................:
          :  # basis functions                  10          :
          :  # atomic orbitals                  10          :
          :  # shells                            6          :
          :  # electrons                        12          :
          :  max. iterations                   250          :
          :  Hamiltonian                  GFN2-xTB          :
          :  restarted?                      false          :
          :  GBSA solvation                  false          :
          :  PC potential                    false          :
          :  electronic temp.          300.0000000     K    :
          :  accuracy                    1.0000000          :
          :  -> integral cutoff          0.2500000E+02      :
          :  -> integral neglect         0.1000000E-07      :
          :  -> SCF convergence          0.1000000E-05 Eh   :
          :  -> wf. convergence          0.1000000E-03 e    :
          :  Broyden damping             0.4000000          :
          ...................................................

 iter      E             dE          RMSdq      gap      omega  full diag
   1     -7.1384890 -0.713849E+01  0.110E-05    2.08       0.0  T
   2     -7.1384890 -0.346390E-13  0.739E-06    2.08    6761.8  T
   3     -7.1384890 -0.124345E-13  0.157E-06    2.08   31909.6  T

   *** convergence criteria satisfied after 3 iterations ***

         #    Occupation            Energy/Eh            Energy/eV
      -------------------------------------------------------------
         1        2.0000           -0.7367609             -20.0483
         2        2.0000           -0.6476038             -17.6222
         3        2.0000           -0.5840355             -15.8924
         4        2.0000           -0.5413225             -14.7301
         5        2.0000           -0.4995777             -13.5942
         6        2.0000           -0.3592524              -9.7758 (HOMO)
         7                         -0.2828895              -7.6978 (LUMO)
         8                          0.0789943               2.1495
         9                          0.1612853               4.3888
        10                          0.3116892               8.4815
      -------------------------------------------------------------
                  HL-Gap            0.0763629 Eh            2.0779 eV
             Fermi-level           -0.3210709 Eh           -8.7368 eV

 SCC (total)                   0 d,  0 h,  0 min,  0.001 sec
 SCC setup                      ...        0 min,  0.000 sec (  4.626%)
 Dispersion                     ...        0 min,  0.000 sec (  0.489%)
 integral evaluation            ...        0 min,  0.000 sec ( 37.494%)
 zeroth order Hamiltonian       ...        0 min,  0.000 sec (  0.710%)
 iterations                     ...        0 min,  0.000 sec ( 15.712%)
 molecular gradient             ...        0 min,  0.000 sec ( 33.774%)
 printout                       ...        0 min,  0.000 sec (  6.339%)

         :::::::::::::::::::::::::::::::::::::::::::::::::::::
         ::                     SUMMARY                     ::
         :::::::::::::::::::::::::::::::::::::::::::::::::::::
         :: total energy              -7.093177437109 Eh    ::
         :: gradient norm              0.000427534178 Eh/a0 ::
         :: HOMO-LUMO gap              2.077939375122 eV    ::
         ::.................................................::
         :: SCC energy                -7.138488982544 Eh    ::
         :: -> isotropic ES            0.008470335788 Eh    ::
         :: -> anisotropic ES         -0.000520844422 Eh    ::
         :: -> anisotropic XC          0.003626919180 Eh    ::
         :: -> dispersion             -0.000640767475 Eh    ::
         :: repulsion energy           0.045311548070 Eh    ::
         :: add. restraining           0.000000000000 Eh    ::
         :::::::::::::::::::::::::::::::::::::::::::::::::::::

           ------------------------------------------------- 
          |                Numerical Hessian                |
           ------------------------------------------------- 
step length          :   0.00500
SCC accuracy         :   0.30000
Hessian scale factor :   1.00000
frozen atoms in %    :   0.00000    0
RMS gradient         :   0.00043
estimated CPU  time      0.00 min
estimated wall time      0.00 min

writing file <hessian>.

 projected vibrational frequencies (cm-1)
eigval :       -0.00    -0.00    -0.00     0.00     0.00     0.00
eigval :     1013.17  1144.91  1330.59  1425.57  2748.74  3313.64
           -------------------------------------------------
          |                Property Printout                |
           -------------------------------------------------

    * Orbital Energies and Occupations

         #    Occupation            Energy/Eh            Energy/eV
      -------------------------------------------------------------
         1        2.0000           -0.7367609             -20.0483
         2        2.0000           -0.6476038             -17.6222
         3        2.0000           -0.5840355             -15.8924
         4        2.0000           -0.5413225             -14.7301
         5        2.0000           -0.4995777             -13.5942
         6        2.0000           -0.3592524              -9.7758 (HOMO)
         7                         -0.2828895              -7.6978 (LUMO)
         8                          0.0789943               2.1495
         9                          0.1612853               4.3888
        10                          0.3116892               8.4815
      -------------------------------------------------------------
                  HL-Gap            0.0763629 Eh            2.0779 eV
             Fermi-level           -0.3210709 Eh           -8.7368 eV

     #   Z        covCN         q      C6AA      α(0)
     1   8 O      1.658    -0.256    18.263     5.769
Molecule has the following symmetry elements: (sigma) 
It seems to be the Cs point group
     2   6 C      1.776    -0.083    33.508     9.358
     3   1 H      0.804     0.305     0.706     1.320
     4   1 H      0.921     0.034     2.535     2.490

 Mol. C6AA /au·bohr⁶  :        154.917754
 Mol. C8AA /au·bohr⁸  :       3430.174997
 Mol. α(0) /au        :         18.936519


Wiberg/Mayer (AO) data.
largest (>0.10) Wiberg bond orders for each atom
          total WBO             WBO to atom ...
     1  O   2.406        C    2 1.523    H    3 0.881
     2  C   2.499        O    1 1.523    H    4 0.973
     3  H   0.907        O    1 0.881
     4  H   0.999        C    2 0.973

MOs/occ written to file <molden.input>


molecular dipole:
                 x           y           z       tot (Debye)
 q only:       -0.520       0.165      -0.065
   full:       -0.696      -0.177       0.086       1.838
molecular quadrupole (traceless):
                xx          xy          yy          xz          yz          zz
 q only:        1.997      -0.713      -1.062       0.271       0.082      -0.935
  q+dip:        2.878      -2.430      -1.921       1.008       0.563      -0.958
   full:        2.746      -2.193      -2.501       0.920       1.251      -0.244

           -------------------------------------------------
          |                Geometry Summary                 |
           -------------------------------------------------

      molecular mass/u    :       30.0260223
   center of mass at/Å    :       -0.0798363      -0.0138389       0.0070771
  moments of inertia/u·Å² :        0.1675943E+01   0.1393231E+02   0.1560825E+02
rotational constants/cm⁻¹ :        0.1005859E+02   0.1209967E+01   0.1080046E+01

 * 2 selected distances

     #   Z        #   Z                                     value/Å
     1   8 O      2   6 C                                 1.3050343 (max)
     1   8 O      3   1 H                                 0.9758772 (min)

 * 2 distinct bonds (by element types)

   Z      Z             #   av. dist./Å        max./Å        min./Å
   1 H    8 O           1     0.9758772     0.9758772     0.9758772
   6 C    8 O           1     1.3050343     1.3050343     1.3050343

           -------------------------------------------------
          |               Frequency Printout                |
           -------------------------------------------------
 projected vibrational frequencies (cm-1)
eigval :       -0.00    -0.00    -0.00     0.00     0.00     0.00
eigval :     1013.17  1144.91  1330.59  1425.57  2748.74  3313.64
 reduced masses (amu)
   1:  2.00   2: 11.91   3: 10.22   4: 13.99   5: 13.73   6: 13.61   7:  1.90   8:  2.34
   9:  8.34  10:  8.41  11:  1.78  12:  1.84
 IR intensities (amu)
   1:  0.12   2:  0.29   3:  0.24   4:  0.05   5:  0.16   6:  0.11   7:  0.39   8:  0.53
   9:  0.72  10:  0.78  11:  0.43  12:  0.10
 Raman intensities (amu)
   1:  0.00   2:  0.00   3:  0.00   4:  0.00   5:  0.00   6:  0.00   7:  0.00   8:  0.00
   9:  0.00  10:  0.00  11:  0.00  12:  0.00
 output can be read by thermo (or use thermo option).
 writing <g98.out> molden fake output.
 recommended (thermochemical) frequency scaling factor: 1.0
           -------------------------------------------------
          |             Thermodynamic Functions             |
           -------------------------------------------------

cs  symmetry found (for desy threshold:  0.10E+00) used in thermo

          ...................................................
          :                      SETUP                      :
          :.................................................:
          :  # frequencies                           6      :
          :  # imaginary freq.                       0      :
          :  linear?                             false      :
          :  only rotor calc.                    false      :
          :  symmetry                               cs      :
          :  rotational number                       1      :
          :  scaling factor                  1.0000000      :
          :  rotor cutoff                   50.0000000 cm⁻¹ :
          :  imag. cutoff                  -20.0000000 cm⁻¹ :
          :.................................................:

    mode    ω/cm⁻¹     T·S(HO)/kcal·mol⁻¹    T·S(FR)/kcal·mol⁻¹   T·S(vib)
   ------------------------------------------------------------------------
   ------------------------------------------------------------------------

   temp. (K)  partition function   enthalpy   heat capacity  entropy
                                   cal/mol     cal/K/mol   cal/K/mol   J/K/mol
 298.15  VIB   1.01                   45.484      0.838      0.181
         ROT  0.146E+04              888.752      2.981     17.458
         INT  0.148E+04              934.236      3.819     17.639
         TR   0.159E+27             1481.254      4.968     36.115
         TOT                        2415.4902     8.7872    53.7544   224.9084

   temp. (K)  partition function   enthalpy   heat capacity  entropy
                                   cal/mol     cal/K/mol   cal/K/mol   J/K/mol
 120.00  VIB   1.00                    0.020      0.002      0.000
         ROT   372.                  357.707      2.981     14.745
         INT   372.                  357.726      2.983     14.745
         TR   0.406E+26              596.178      4.968     31.596
         TOT                         953.9043     7.9511    46.3415   193.8929

   temp. (K)  partition function   enthalpy   heat capacity  entropy
                                   cal/mol     cal/K/mol   cal/K/mol   J/K/mol
 100.00  VIB   1.00                    0.002      0.000      0.000
         ROT   283.                  298.089      2.981     14.202
         INT   283.                  298.091      2.981     14.202
         TR   0.309E+26              496.815      4.968     30.691
         TOT                         794.9056     7.9493    44.8925   187.8303

   temp. (K)  partition function   enthalpy   heat capacity  entropy
                                   cal/mol     cal/K/mol   cal/K/mol   J/K/mol
  80.00  VIB   1.00                    0.000      0.000     -0.000
         ROT   203.                  238.471      2.981     13.537
         INT   203.                  238.471      2.981     13.537
         TR   0.221E+26              397.452      4.968     29.583
         TOT                         635.9232     7.9490    43.1193   180.4110

   temp. (K)  partition function   enthalpy   heat capacity  entropy
                                   cal/mol     cal/K/mol   cal/K/mol   J/K/mol
  60.00  VIB   1.00                    0.000      0.000     -0.000
         ROT   132.                  178.853      2.981     12.679
         INT   132.                  178.853      2.981     12.679
         TR   0.144E+26              298.089      4.968     28.154
         TOT                         476.9424     7.9490    40.8332   170.8459

   temp. (K)  partition function   enthalpy   heat capacity  entropy
                                   cal/mol     cal/K/mol   cal/K/mol   J/K/mol
  40.00  VIB   1.00                    0.000      0.000     -0.000
         ROT   71.7                  119.236      2.981     11.470
         INT   71.7                  119.236      2.981     11.470
         TR   0.782E+25              198.726      4.968     26.141
         TOT                         317.9616     7.9490    37.6111   157.3648

   temp. (K)  partition function   enthalpy   heat capacity  entropy
                                   cal/mol     cal/K/mol   cal/K/mol   J/K/mol
  20.00  VIB   1.00                    0.000      0.000     -0.000
         ROT   25.3                   59.618      2.981      9.404
         INT   25.3                   59.618      2.981      9.404
         TR   0.277E+25               99.363      4.968     22.699
         TOT                         158.9808     7.9490    32.1029   134.3185

   temp. (K)  partition function   enthalpy   heat capacity  entropy
                                   cal/mol     cal/K/mol   cal/K/mol   J/K/mol
  10.00  VIB   1.00                    0.000      0.000     -0.000
         ROT   8.96                   29.809      2.981      7.338
         INT   8.96                   29.809      2.981      7.338
         TR   0.978E+24               49.681      4.968     19.257
         TOT                          79.4904     7.9490    26.5947   111.2723

       T/K    H(0)-H(T)+PV         H(T)/Eh          T*S/Eh         G(T)/Eh
   ------------------------------------------------------------------------
    298.15    0.384933E-02    0.288559E-01    0.255404E-01    0.331545E-02
    120.00    0.152014E-02    0.265267E-01    0.886199E-02    0.176647E-01
    100.00    0.126676E-02    0.262733E-01    0.715408E-02    0.191193E-01
     80.00    0.101341E-02    0.260200E-01    0.549719E-02    0.205228E-01
     60.00    0.760056E-03    0.257666E-01    0.390431E-02    0.218623E-01
     40.00    0.506704E-03    0.255133E-01    0.239748E-02    0.231158E-01
     20.00    0.253352E-03    0.252599E-01    0.102318E-02    0.242367E-01
     10.00    0.126676E-03    0.251332E-01    0.423814E-03    0.247094E-01 (used)
   ------------------------------------------------------------------------

         :::::::::::::::::::::::::::::::::::::::::::::::::::::
         ::                  THERMODYNAMIC                  ::
         :::::::::::::::::::::::::::::::::::::::::::::::::::::
         :: total free energy          -7.068468002797 Eh   ::
         ::.................................................::
         :: total energy               -7.093177437092 Eh   ::
         :: zero point energy           0.025006572101 Eh   ::
         :: G(RRHO) w/o ZPVE           -0.000297137806 Eh   ::
         :: G(RRHO) contrib.            0.024709434295 Eh   ::
         :::::::::::::::::::::::::::::::::::::::::::::::::::::

optimized geometry written to: xtbopt.xyz


           -------------------------------------------------
          | TOTAL ENERGY               -7.093177437092 Eh   |
          | TOTAL ENTHALPY             -7.068044188975 Eh   |
          | TOTAL FREE ENERGY          -7.068468002797 Eh   |
          | GRADIENT NORM               0.000427535015 Eh/α |
          | HOMO-LUMO GAP               2.077939419091 eV   |
           -------------------------------------------------

------------------------------------------------------------------------
 * finished run on 2020/05/12 at 11:45:07.197     
------------------------------------------------------------------------
 total:
 * wall-time:     0 d,  0 h,  0 min,  0.049 sec
 *  cpu-time:     0 d,  0 h,  0 min,  0.049 sec
 * ratio c/w:     0.998 speedup
 SCF:
 * wall-time:     0 d,  0 h,  0 min,  0.002 sec
 *  cpu-time:     0 d,  0 h,  0 min,  0.002 sec
 * ratio c/w:     1.000 speedup
 ANC optimizer:
 * wall-time:     0 d,  0 h,  0 min,  0.008 sec
 *  cpu-time:     0 d,  0 h,  0 min,  0.008 sec
 * ratio c/w:     0.998 speedup
 numerical hessian:
 * wall-time:     0 d,  0 h,  0 min,  0.024 sec
 *  cpu-time:     0 d,  0 h,  0 min,  0.024 sec
 * ratio c/w:     0.998 speedup

