4
 energy: -5.120053800697 gnorm: 0.000162413411 xtb: 6.2.2 (9d81278992624c895f80dd42a50cac0aa55982e2)
C        -0.02272185856116    0.00145088976710   -0.00042801656719
C         1.25771366015535   -0.08029677166162    0.01721751350853
H        -0.56006354955407    0.93940289607447   -0.00653527865709
H        -0.67492825204012   -0.86055701417995   -0.01025421828424
