      -----------------------------------------------------------      
     |                   =====================                   |     
     |                           x T B                           |     
     |                   =====================                   |     
     |                         S. Grimme                         |     
     |          Mulliken Center for Theoretical Chemistry        |     
     |                    University of Bonn                     |     
      -----------------------------------------------------------      

   * xtb version 6.2.2 (9d81278992624c895f80dd42a50cac0aa55982e2) compiled by '@Darwin' on 04/03/2020

   xtb is free software: you can redistribute it and/or modify it under
   the terms of the GNU Lesser General Public License as published by
   the Free Software Foundation, either version 3 of the License, or
   (at your option) any later version.
   
   xtb is distributed in the hope that it will be useful,
   but WITHOUT ANY WARRANTY; without even the implied warranty of
   MERCHANTABILITY or FITNESS FOR A PARTICULAR PURPOSE.  See the
   GNU Lesser General Public License for more details.
   
   Cite this work as:
   * S. Grimme, C. Bannwarth, P. Shushkov, J. Chem. Theory Comput., 2017,
     13, 1989-2009. DOI: 10.1021/acs.jctc.7b00118
   * C. Bannwarth, S. Ehlert and S. Grimme., J. Chem. Theory Comput., 2019,
     15, 1652-1671. DOI: 10.1021/acs.jctc.8b01176
   * P. Pracht, E. Caldeweyher, S. Ehlert, S. Grimme, ChemRxiv, 2019, preprint.
     DOI: 10.26434/chemrxiv.8326202.v1
   
   for DFT-D4:
   * E. Caldeweyher, C. Bannwarth and S. Grimme, J. Chem. Phys., 2017,
     147, 034112. DOI: 10.1063/1.4993215
   * E. Caldeweyher, S. Ehlert, A. Hansen, H. Neugebauer, S. Spicher,
     C. Bannwarth and S. Grimme, J. Chem. Phys., 2019, 150, 154122.
     DOI: 10.1063/1.5090222
   
   for sTDA-xTB:
   * S. Grimme and C. Bannwarth, J. Chem. Phys., 2016, 145, 054103.
     DOI: 10.1063/1.4959605
   
   in the mass-spec context:
   * V. Asgeirsson, C. Bauer and S. Grimme, Chem. Sci., 2017, 8, 4879.
     DOI: 10.1039/c7sc00601b
   
   for metadynamics refer to:
   * S. Grimme, J. Chem. Theory Comput., 2019, 155, 2847-2862
     DOI: 10.1021/acs.jctc.9b00143
   
   with help from (in alphabetical order)
   C. Bannwarth, F. Bohle, G. Brandenburg, E. Caldeweyher, M. Checinski,
   S. Dohm, S. Ehlert, S. Ehrlich, F. März, H. Neugebauer, J. Pisarek,
   P. Pracht, P. Shushkov, and S. Spicher.
   
 * started run on 2020/05/12 at 11:44:29.241     

           -------------------------------------------------
          |                Calculation Setup                |
           -------------------------------------------------

          program call               : xtb --input H2C2_0_S_0.input H2C2_0_S_0.xyz --ohess --molden --namespace H2C2_0_S_0 output.out
          calculation namespace      : H2C2_0_S_0
          coordinate file            : H2C2_0_S_0.xyz
          number of atoms            :                     4
          number of electrons        :                    10
          charge                     :                     0
          spin                       :                   0.0
          first test random number   :      0.31896336624010

   ID    Z sym.   atoms
    1    6 C      1, 2
    2    1 H      3, 4

           -------------------------------------------------
          |                 G F N 2 - x T B                 |
           -------------------------------------------------

        Reference                      10.1021/acs.jctc.8b01176
      * Hamiltonian:
        H0-scaling (s, p, d)           1.850000    2.230000    2.230000
        zeta-weighting                 0.500000
      * Dispersion:
        s8                             2.700000
        a1                             0.520000
        a2                             5.000000
        s9                             5.000000
      * Repulsion:
        kExp                           1.500000    1.000000
        rExp                           1.000000
      * Coulomb:
        alpha                          2.000000
        third order                    shell-resolved
        anisotropic                    true
        a3                             3.000000
        a5                             4.000000
        cn-shift                       1.200000
        cn-exp                         4.000000
        max-rad                        5.000000


          ...................................................
          :                      SETUP                      :
          :.................................................:
          :  # basis functions                  10          :
          :  # atomic orbitals                  10          :
          :  # shells                            6          :
          :  # electrons                        10          :
          :  max. iterations                   250          :
          :  Hamiltonian                  GFN2-xTB          :
          :  restarted?                      false          :
          :  GBSA solvation                  false          :
          :  PC potential                    false          :
          :  electronic temp.          300.0000000     K    :
          :  accuracy                    1.0000000          :
          :  -> integral cutoff          0.2500000E+02      :
          :  -> integral neglect         0.1000000E-07      :
          :  -> SCF convergence          0.1000000E-05 Eh   :
          :  -> wf. convergence          0.1000000E-03 e    :
          :  Broyden damping             0.4000000          :
          ...................................................

 iter      E             dE          RMSdq      gap      omega  full diag
   1     -5.0296682 -0.502967E+01  0.115E+01    2.02       0.0  T
   2     -4.8279314  0.201737E+00  0.943E+00    1.24       1.0  T
   3     -4.8352343 -0.730286E-02  0.855E+00    2.42       1.0  T
   4     -5.1033825 -0.268148E+00  0.119E+00    1.67       1.0  T
   5     -5.1036846 -0.302044E-03  0.625E-01    1.59       1.0  T
   6     -5.0940381  0.964646E-02  0.148E+00    1.76       1.0  T
   7     -5.1007106 -0.667247E-02  0.884E-01    1.70       1.0  T
   8     -5.1044265 -0.371588E-02  0.409E-02    1.61       1.2  T
   9     -5.1044238  0.269306E-05  0.479E-02    1.61       1.0  T
  10     -5.1044356 -0.118675E-04  0.115E-02    1.62       4.3  T
  11     -5.1044360 -0.400229E-06  0.705E-03    1.62       7.1  T
  12     -5.1044363 -0.235756E-06  0.318E-04    1.62     157.2  T
  13     -5.1044363 -0.423177E-09  0.954E-05    1.62     524.1  T

   *** convergence criteria satisfied after 13 iterations ***

         #    Occupation            Energy/Eh            Energy/eV
      -------------------------------------------------------------
         1        2.0000           -0.6322087             -17.2033
         2        2.0000           -0.5599289             -15.2364
         3        2.0000           -0.4999740             -13.6050
         4        2.0000           -0.4461634             -12.1407
         5        2.0000           -0.4095732             -11.1451 (HOMO)
         6                         -0.3501111              -9.5270 (LUMO)
         7                         -0.2989456              -8.1347
         8                          0.1101156               2.9964
         9                          0.1396230               3.7993
        10                          0.1744531               4.7471
      -------------------------------------------------------------
                  HL-Gap            0.0594621 Eh            1.6180 eV
             Fermi-level           -0.3798422 Eh          -10.3360 eV

 SCC (total)                   0 d,  0 h,  0 min,  0.002 sec
 SCC setup                      ...        0 min,  0.000 sec (  4.790%)
 Dispersion                     ...        0 min,  0.000 sec (  0.686%)
 integral evaluation            ...        0 min,  0.000 sec ( 23.085%)
 zeroth order Hamiltonian       ...        0 min,  0.000 sec (  0.796%)
 iterations                     ...        0 min,  0.001 sec ( 46.514%)
 molecular gradient             ...        0 min,  0.000 sec ( 20.752%)
 printout                       ...        0 min,  0.000 sec (  2.827%)

         :::::::::::::::::::::::::::::::::::::::::::::::::::::
         ::                     SUMMARY                     ::
         :::::::::::::::::::::::::::::::::::::::::::::::::::::
         :: total energy              -5.060569380503 Eh    ::
         :: gradient norm              0.213924201271 Eh/a0 ::
         :: HOMO-LUMO gap              1.618045876120 eV    ::
         ::.................................................::
         :: SCC energy                -5.104436265053 Eh    ::
         :: -> isotropic ES           -0.016437499654 Eh    ::
         :: -> anisotropic ES          0.000237862600 Eh    ::
         :: -> anisotropic XC          0.010557073762 Eh    ::
         :: -> dispersion             -0.000798084468 Eh    ::
         :: repulsion energy           0.043866877473 Eh    ::
         :: add. restraining           0.000000000000 Eh    ::
         :::::::::::::::::::::::::::::::::::::::::::::::::::::

      ----------------------------------------------------------- 
     |                   =====================                   |
     |                        A N C O P T                        |
     |                   =====================                   |
     |               Approximate Normal Coordinate               |
     |                Rational Function Optimizer                |
      ----------------------------------------------------------- 

          ...................................................
          :                      SETUP                      :
          :.................................................:
          :   optimization level            normal          :
          :   max. optcycles                   200          :
          :   ANC micro-cycles                  20          :
          :   degrees of freedom                 6          :
          :.................................................:
          :   RF solver                   davidson          :
          :   write xtbopt.log                true          :
          :   linear?                        false          :
          :   energy convergence         0.5000000E-05 Eh   :
          :   grad. convergence          0.1000000E-02 Eh/α :
          :   maximium RF displ.         1.0000000          :
          :   Hlow (freq-cutoff)         0.1000000E-01      :
          :   Hmax (freq-cutoff)         5.0000000          :
          :   S6 in model hess.         20.0000000          :
          ...................................................

generating ANC from model Hessian ...
Using Lindh-Hessian (1995)
 Shifting diagonal of input Hessian by    0.0000000000000000     
 Lowest  eigenvalues of input Hessian
   -0.000000   -0.000000   -0.000000   -0.000000    0.000000    0.000000
    0.072793    0.077015    0.099585    0.556803    0.971506    0.998032
 Highest eigenvalues
    0.072793    0.077015    0.099585    0.556803    0.971506    0.998032


........................................................................
.............................. CYCLE    1 ..............................
........................................................................
   1     -5.1044363 -0.510444E+01  0.528E-06    1.62       0.0  T
   2     -5.1044363  0.647482E-12  0.126E-05    1.62    3979.9  T
   3     -5.1044363 -0.744294E-12  0.192E-06    1.62   26109.0  T
     SCC iter.                  ...        0 min,  0.000 sec
     gradient                   ...        0 min,  0.000 sec
 * total energy  :    -5.0605694 Eh     change       -0.3103988E-09 Eh
   gradient norm :     0.2139248 Eh/α   predicted     0.0000000E+00 (-100.00%)
   displ. norm   :     0.3621739 α      lambda       -0.6344946E-01
   maximum displ.:     0.2273956 α      in ANC's #4, #1, #6, ...

........................................................................
.............................. CYCLE    2 ..............................
........................................................................
   1     -5.1765954 -0.517660E+01  0.189E+00    2.23       0.0  T
   2     -5.1657118  0.108836E-01  0.231E+00    2.46       1.0  T
   3     -5.1834177 -0.177059E-01  0.835E-01    2.28       1.0  T
   4     -5.1832909  0.126837E-03  0.289E-01    2.25       1.0  T
   5     -5.1835145 -0.223607E-03  0.862E-02    2.26       1.0  T
   6     -5.1835175 -0.296772E-05  0.303E-02    2.26       1.6  T
   7     -5.1835210 -0.351662E-05  0.186E-03    2.27      26.9  T
   8     -5.1835210 -0.278907E-09  0.872E-04    2.27      57.3  T
   9     -5.1835210 -0.237228E-08  0.374E-05    2.27    1336.6  T
     SCC iter.                  ...        0 min,  0.000 sec
     gradient                   ...        0 min,  0.000 sec
 * total energy  :    -5.1089145 Eh     change       -0.4834516E-01 Eh
   gradient norm :     0.0976633 Eh/α   predicted    -0.3588606E-01 ( -25.77%)
   displ. norm   :     0.2595297 α      lambda       -0.2369244E-01
   maximum displ.:     0.2133083 α      in ANC's #4, #6, #1, ...

........................................................................
.............................. CYCLE    3 ..............................
........................................................................
   1     -5.2405311 -0.524053E+01  0.151E+00    2.51       0.0  T
   2     -5.2399593  0.571807E-03  0.129E+00    2.52       1.0  T
   3     -5.2437471 -0.378781E-02  0.632E-01    2.48       1.0  T
   4     -5.2439380 -0.190961E-03  0.147E-01    2.45       1.0  T
   5     -5.2439713 -0.332542E-04  0.516E-02    2.45       1.0  T
   6     -5.2439723 -0.103282E-05  0.968E-03    2.45       5.2  T
   7     -5.2439727 -0.382648E-06  0.125E-03    2.45      40.1  T
   8     -5.2439727 -0.160101E-08  0.351E-04    2.45     142.4  T
   9     -5.2439727 -0.517587E-09  0.234E-05    2.45    2135.4  T
     SCC iter.                  ...        0 min,  0.000 sec
     gradient                   ...        0 min,  0.000 sec
 * total energy  :    -5.1120950 Eh     change       -0.3180427E-02 Eh
   gradient norm :     0.1568123 Eh/α   predicted    -0.1264413E-01 ( 297.56%)
   displ. norm   :     0.2510321 α      lambda       -0.1913596E-01
   maximum displ.:     0.2341450 α      in ANC's #1, #6, #3, ...

........................................................................
.............................. CYCLE    4 ..............................
........................................................................
   1     -5.2015305 -0.520153E+01  0.114E+00    2.43       0.0  T
   2     -5.2000387  0.149180E-02  0.107E+00    2.41       1.0  T
   3     -5.2031816 -0.314287E-02  0.510E-01    2.45       1.0  T
   4     -5.2034557 -0.274131E-03  0.831E-02    2.46       1.0  T
   5     -5.2034570 -0.130587E-05  0.450E-02    2.47       1.1  T
   6     -5.2034606 -0.361013E-05  0.491E-03    2.47      10.2  T
   7     -5.2034607 -0.881615E-07  0.928E-04    2.47      53.9  T
   8     -5.2034607 -0.797421E-09  0.121E-04    2.47     413.3  T
     SCC iter.                  ...        0 min,  0.000 sec
     gradient                   ...        0 min,  0.000 sec
 * total energy  :    -5.1176481 Eh     change       -0.5553156E-02 Eh
   gradient norm :     0.0418465 Eh/α   predicted    -0.1017092E-01 (  83.16%)
   displ. norm   :     0.1831076 α      lambda       -0.5433003E-02
   maximum displ.:     0.1794864 α      in ANC's #1, #6, #4, ...

........................................................................
.............................. CYCLE    5 ..............................
........................................................................
   1     -5.2190242 -0.521902E+01  0.533E-01    2.50       0.0  T
   2     -5.2190609 -0.366564E-04  0.307E-01    2.49       1.0  T
   3     -5.2189622  0.986892E-04  0.179E-01    2.49       1.0  T
   4     -5.2190653 -0.103144E-03  0.485E-02    2.48       1.0  T
   5     -5.2190725 -0.719583E-05  0.534E-03    2.48       9.4  T
   6     -5.2190725 -0.694215E-09  0.501E-04    2.48      99.7  T
   7     -5.2190725  0.784288E-10  0.350E-04    2.48     143.0  T
     SCC iter.                  ...        0 min,  0.000 sec
     gradient                   ...        0 min,  0.000 sec
 * total energy  :    -5.1191089 Eh     change       -0.1460817E-02 Eh
   gradient norm :     0.0289374 Eh/α   predicted    -0.2807580E-02 (  92.19%)
   displ. norm   :     0.0798662 α      lambda       -0.1510364E-02
   maximum displ.:     0.0700742 α      in ANC's #1, #4, #6, ...

........................................................................
.............................. CYCLE    6 ..............................
........................................................................
   1     -5.2213776 -0.522138E+01  0.301E-01    2.49       0.0  T
   2     -5.2213413  0.363099E-04  0.221E-01    2.50       1.0  T
   3     -5.2213729 -0.315476E-04  0.166E-01    2.49       1.0  T
   4     -5.2214309 -0.580548E-04  0.121E-02    2.49       4.1  T
   5     -5.2214310 -0.583018E-07  0.634E-03    2.49       7.9  T
   6     -5.2214310 -0.603184E-07  0.505E-04    2.49      98.9  T
   7     -5.2214310 -0.130234E-09  0.205E-04    2.49     243.9  T
     SCC iter.                  ...        0 min,  0.000 sec
     gradient                   ...        0 min,  0.000 sec
 * total energy  :    -5.1199533 Eh     change       -0.8443460E-03 Eh
   gradient norm :     0.0061439 Eh/α   predicted    -0.7599995E-03 (  -9.99%)
   displ. norm   :     0.0269060 α      lambda       -0.1243147E-03
   maximum displ.:     0.0191371 α      in ANC's #4, #1, #6, ...

........................................................................
.............................. CYCLE    7 ..............................
........................................................................
   1     -5.2220332 -0.522203E+01  0.919E-02    2.49       0.0  T
   2     -5.2220332 -0.762917E-07  0.557E-02    2.49       1.0  T
   3     -5.2220333 -0.673902E-08  0.302E-03    2.49      16.6  T
   4     -5.2220332  0.585252E-08  0.290E-03    2.49      17.2  T
   5     -5.2220333 -0.278227E-07  0.715E-04    2.49      70.0  T
   6     -5.2220333 -0.993357E-10  0.396E-05    2.49    1262.3  T
     SCC iter.                  ...        0 min,  0.000 sec
     gradient                   ...        0 min,  0.000 sec
 * total energy  :    -5.1200366 Eh     change       -0.8335227E-04 Eh
   gradient norm :     0.0036169 Eh/α   predicted    -0.6220169E-04 ( -25.37%)
   displ. norm   :     0.0136435 α      lambda       -0.3202669E-04
   maximum displ.:     0.0109792 α      in ANC's #4, #1, #6, ...

........................................................................
.............................. CYCLE    8 ..............................
........................................................................
   1     -5.2224194 -0.522242E+01  0.440E-02    2.49       0.0  T
   2     -5.2224193  0.101506E-06  0.275E-02    2.49       1.8  T
   3     -5.2224174  0.195405E-05  0.257E-02    2.50       1.9  T
   4     -5.2224197 -0.233912E-05  0.125E-03    2.49      40.2  T
   5     -5.2224197 -0.126586E-08  0.526E-04    2.49      95.1  T
   6     -5.2224197 -0.225500E-09  0.299E-05    2.49    1674.9  T
     SCC iter.                  ...        0 min,  0.000 sec
     gradient                   ...        0 min,  0.000 sec
 * total energy  :    -5.1200536 Eh     change       -0.1698777E-04 Eh
   gradient norm :     0.0004020 Eh/α   predicted    -0.1601502E-04 (  -5.73%)
   displ. norm   :     0.0021100 α      lambda       -0.3195400E-06
   maximum displ.:     0.0019020 α      in ANC's #3, #6, #4, ...

........................................................................
.............................. CYCLE    9 ..............................
........................................................................
   1     -5.2224299 -0.522243E+01  0.486E-03    2.49       0.0  T
   2     -5.2224299  0.445270E-08  0.350E-03    2.49      14.3  T
   3     -5.2224299  0.112867E-07  0.267E-03    2.49      18.7  T
   4     -5.2224299 -0.230540E-07  0.172E-04    2.49     290.7  T
   5     -5.2224299 -0.278533E-11  0.102E-04    2.49     488.5  T
     SCC iter.                  ...        0 min,  0.000 sec
     gradient                   ...        0 min,  0.000 sec
 * total energy  :    -5.1200538 Eh     change       -0.1699720E-06 Eh
   gradient norm :     0.0001592 Eh/α   predicted    -0.1604230E-06 (  -5.62%)
   displ. norm   :     0.0004103 α      lambda       -0.2501620E-07
   maximum displ.:     0.0003302 α      in ANC's #4, #6, #3, ...

   *** GEOMETRY OPTIMIZATION CONVERGED AFTER 9 ITERATIONS ***

------------------------------------------------------------------------
 total energy gain   :        -0.0594844 Eh      -37.3270 kcal/mol
 total RMSD          :         0.3518840 a0        0.1862 Å
 total power (kW/mol):       -17.3529249 (step)********** (real)
------------------------------------------------------------------------

 ANCopt (total)                0 d,  0 h,  0 min,  0.010 sec
 optimizer setup                ...        0 min,  0.000 sec (  0.668%)
 model hessian                  ...        0 min,  0.000 sec (  0.734%)
 ANC generation                 ...        0 min,  0.000 sec (  0.449%)
 coordinate transformation      ...        0 min,  0.000 sec (  0.187%)
 single point calculation       ...        0 min,  0.009 sec ( 91.797%)
 optimization log               ...        0 min,  0.000 sec (  1.834%)
 hessian update                 ...        0 min,  0.000 sec (  0.159%)
 rational function              ...        0 min,  0.000 sec (  1.724%)

================
 final structure:
================
4
 xtb: 6.2.2 (9d81278992624c895f80dd42a50cac0aa55982e2)
C        -0.02272186466349    0.00145077154287   -0.00042809334939
C         1.25771402046290   -0.08029021634496    0.01722176362594
H        -0.56006844543261    0.93939997498390   -0.00653559410257
H        -0.67492371036679   -0.86056053018181   -0.01025807617397

 Bond Distances (Angstroems)
 ---------------------------
C1-C2=1.2832         C1-H3=1.0810         C1-H4=1.0810         C2-C1=1.2832         H3-C1=1.0810         H4-C1=1.0810         
 C  H  Rav=1.0810 sigma=0.0000  Rmin=1.0810  Rmax=1.0810     2
 C  C  Rav=1.2832 sigma=0.0000  Rmin=1.2832  Rmax=1.2832     1

 selected bond angles (degree)
 --------------------
H3-C1-C2=123.46                H4-C1-C2=123.46                H4-C1-H3=113.08                

 selected dihedral angles (degree)
 ---------------------------------

           -------------------------------------------------
          |                Final Singlepoint                |
           -------------------------------------------------

          ...................................................
          :                      SETUP                      :
          :.................................................:
          :  # basis functions                  10          :
          :  # atomic orbitals                  10          :
          :  # shells                            6          :
          :  # electrons                        10          :
          :  max. iterations                   250          :
          :  Hamiltonian                  GFN2-xTB          :
          :  restarted?                      false          :
          :  GBSA solvation                  false          :
          :  PC potential                    false          :
          :  electronic temp.          300.0000000     K    :
          :  accuracy                    1.0000000          :
          :  -> integral cutoff          0.2500000E+02      :
          :  -> integral neglect         0.1000000E-07      :
          :  -> SCF convergence          0.1000000E-05 Eh   :
          :  -> wf. convergence          0.1000000E-03 e    :
          :  Broyden damping             0.4000000          :
          ...................................................

 iter      E             dE          RMSdq      gap      omega  full diag
   1     -5.2224299 -0.522243E+01  0.209E-05    2.49       0.0  T
   2     -5.2224299 -0.168754E-13  0.133E-05    2.49    3751.4  T
   3     -5.2224299  0.238920E-12  0.812E-06    2.49    6160.6  T

   *** convergence criteria satisfied after 3 iterations ***

         #    Occupation            Energy/Eh            Energy/eV
      -------------------------------------------------------------
         1        2.0000           -0.6354741             -17.2921
         2        2.0000           -0.5543679             -15.0851
         3        2.0000           -0.5074198             -13.8076
         4        2.0000           -0.4294206             -11.6851
         5        2.0000           -0.4089603             -11.1284 (HOMO)
         6                         -0.3172993              -8.6342 (LUMO)
         7                         -0.2078560              -5.6560
         8                          0.1619516               4.4069
         9                          0.2779960               7.5647
        10                          0.6662056              18.1284
      -------------------------------------------------------------
                  HL-Gap            0.0916611 Eh            2.4942 eV
             Fermi-level           -0.3631298 Eh           -9.8813 eV

 SCC (total)                   0 d,  0 h,  0 min,  0.001 sec
 SCC setup                      ...        0 min,  0.000 sec (  4.004%)
 Dispersion                     ...        0 min,  0.000 sec (  0.565%)
 integral evaluation            ...        0 min,  0.000 sec ( 34.155%)
 zeroth order Hamiltonian       ...        0 min,  0.000 sec (  0.588%)
 iterations                     ...        0 min,  0.000 sec ( 22.574%)
 molecular gradient             ...        0 min,  0.000 sec ( 31.486%)
 printout                       ...        0 min,  0.000 sec (  5.768%)

         :::::::::::::::::::::::::::::::::::::::::::::::::::::
         ::                     SUMMARY                     ::
         :::::::::::::::::::::::::::::::::::::::::::::::::::::
         :: total energy              -5.120053800697 Eh    ::
         :: gradient norm              0.000162413411 Eh/a0 ::
         :: HOMO-LUMO gap              2.494224907826 eV    ::
         ::.................................................::
         :: SCC energy                -5.222429912037 Eh    ::
         :: -> isotropic ES           -0.007956585121 Eh    ::
         :: -> anisotropic ES         -0.000867297587 Eh    ::
         :: -> anisotropic XC          0.010216002678 Eh    ::
         :: -> dispersion             -0.000798073778 Eh    ::
         :: repulsion energy           0.102376106457 Eh    ::
         :: add. restraining           0.000000000000 Eh    ::
         :::::::::::::::::::::::::::::::::::::::::::::::::::::

           ------------------------------------------------- 
          |                Numerical Hessian                |
           ------------------------------------------------- 
step length          :   0.00500
SCC accuracy         :   0.30000
Hessian scale factor :   1.00000
frozen atoms in %    :   0.00000    0
RMS gradient         :   0.00016
estimated CPU  time      0.00 min
estimated wall time      0.00 min

writing file <hessian>.

 projected vibrational frequencies (cm-1)
eigval :       -0.00    -0.00     0.00     0.00     0.00     0.00
eigval :      284.71   824.85  1165.91  1739.46  3035.14  3039.84
           -------------------------------------------------
          |                Property Printout                |
           -------------------------------------------------

    * Orbital Energies and Occupations

         #    Occupation            Energy/Eh            Energy/eV
      -------------------------------------------------------------
         1        2.0000           -0.6354741             -17.2921
         2        2.0000           -0.5543679             -15.0851
         3        2.0000           -0.5074197             -13.8076
         4        2.0000           -0.4294206             -11.6851
         5        2.0000           -0.4089604             -11.1284 (HOMO)
         6                         -0.3172993              -8.6342 (LUMO)
         7                         -0.2078560              -5.6560
         8                          0.1619516               4.4069
         9                          0.2779961               7.5647
        10                          0.6662056              18.1284
      -------------------------------------------------------------
Molecule has the following symmetry elements: (C2) 2*(sigma) 
It seems to be the C2v point group
                  HL-Gap            0.0916611 Eh            2.4942 eV
             Fermi-level           -0.3631298 Eh           -9.8813 eV

     #   Z        covCN         q      C6AA      α(0)
     1   6 C      2.832    -0.071    29.758     8.939
     2   6 C      0.981    -0.142    40.523    10.692
     3   1 H      0.926     0.106     1.729     2.056
     4   1 H      0.926     0.106     1.729     2.056

 Mol. C6AA /au·bohr⁶  :        208.698926
 Mol. C8AA /au·bohr⁸  :       5284.729705
 Mol. α(0) /au        :         23.743179


Wiberg/Mayer (AO) data.
largest (>0.10) Wiberg bond orders for each atom
          total WBO             WBO to atom ...
     1  C   3.988        C    2 2.243    H    4 0.873    H    3 0.873
     2  C   2.451        C    1 2.243    H    3 0.104    H    4 0.104
     3  H   0.989        C    1 0.873    C    2 0.104
     4  H   0.989        C    1 0.873    C    2 0.104

MOs/occ written to file <molden.input>


molecular dipole:
                 x           y           z       tot (Debye)
 q only:       -0.582       0.037      -0.008
   full:       -1.139       0.073      -0.016       2.902
molecular quadrupole (traceless):
                xx          xy          yy          xz          yz          zz
 q only:       -0.815       0.108       0.867      -0.010       0.003      -0.052
  q+dip:       -1.549       0.225       1.969      -0.015       0.006      -0.420
   full:       -3.270       0.400       2.974      -0.049       0.009       0.296

           -------------------------------------------------
          |                Geometry Summary                 |
           -------------------------------------------------

      molecular mass/u    :       26.0373533
   center of mass at/Å    :        0.5218795      -0.0333185       0.0070949
  moments of inertia/u·Å² :        0.1639448E+01   0.1273657E+02   0.1437601E+02
rotational constants/cm⁻¹ :        0.1028251E+02   0.1323562E+01   0.1172622E+01

 * 3 selected distances

     #   Z        #   Z                                     value/Å
     1   6 C      2   6 C                                 1.2831637 (max)
     1   6 C      3   1 H                                 1.0809844 (min)
     1   6 C      4   1 H                                 1.0809844

 * 2 distinct bonds (by element types)

   Z      Z             #   av. dist./Å        max./Å        min./Å
   1 H    6 C           2     1.0809844     1.0809844     1.0809844
   6 C    6 C           1     1.2831637     1.2831637     1.2831637

           -------------------------------------------------
          |               Frequency Printout                |
           -------------------------------------------------
 projected vibrational frequencies (cm-1)
eigval :       -0.00    -0.00     0.00     0.00     0.00     0.00
eigval :      284.71   824.85  1165.91  1739.46  3035.14  3039.84
 reduced masses (amu)
   1:  8.25   2:  7.61   3: 10.80   4: 11.87   5: 11.29   6:  3.14   7:  4.06   8:  4.13
   9:  1.61  10: 11.66  11:  1.60  12:  2.07
 IR intensities (amu)
   1:  0.14   2:  0.10   3:  0.18   4:  0.31   5:  0.21   6:  0.04   7:  0.09   8:  0.32
   9:  0.27  10:  0.52  11:  0.14  12:  0.11
 Raman intensities (amu)
   1:  0.00   2:  0.00   3:  0.00   4:  0.00   5:  0.00   6:  0.00   7:  0.00   8:  0.00
   9:  0.00  10:  0.00  11:  0.00  12:  0.00
 output can be read by thermo (or use thermo option).
 writing <g98.out> molden fake output.
 recommended (thermochemical) frequency scaling factor: 1.0
           -------------------------------------------------
          |             Thermodynamic Functions             |
           -------------------------------------------------

c2v symmetry found (for desy threshold:  0.10E+00) used in thermo

          ...................................................
          :                      SETUP                      :
          :.................................................:
          :  # frequencies                           6      :
          :  # imaginary freq.                       0      :
          :  linear?                             false      :
          :  only rotor calc.                    false      :
          :  symmetry                              c2v      :
          :  rotational number                       2      :
          :  scaling factor                  1.0000000      :
          :  rotor cutoff                   50.0000000 cm⁻¹ :
          :  imag. cutoff                  -20.0000000 cm⁻¹ :
          :.................................................:

    mode    ω/cm⁻¹     T·S(HO)/kcal·mol⁻¹    T·S(FR)/kcal·mol⁻¹   T·S(vib)
   ------------------------------------------------------------------------
       1    284.71    -0.00000 ( 99.90%)     0.01564 (  0.10%)     0.00001
   ------------------------------------------------------------------------

   temp. (K)  partition function   enthalpy   heat capacity  entropy
                                   cal/mol     cal/K/mol   cal/K/mol   J/K/mol
 298.15  VIB   1.37                  333.946      2.573      1.745
         ROT   662.                  888.752      2.981     15.888
         INT   906.                 1222.699      5.554     17.633
         TR   0.129E+27             1481.254      4.968     35.691
         TOT                        2703.9526    10.5221    53.3241   223.1082

   temp. (K)  partition function   enthalpy   heat capacity  entropy
                                   cal/mol     cal/K/mol   cal/K/mol   J/K/mol
 120.00  VIB   1.03                   27.835      0.825      0.299
         ROT   169.                  357.707      2.981     13.175
         INT   175.                  385.542      3.806     13.474
         TR   0.328E+26              596.178      4.968     31.171
         TOT                         981.7203     8.7744    44.6456   186.7973

   temp. (K)  partition function   enthalpy   heat capacity  entropy
                                   cal/mol     cal/K/mol   cal/K/mol   J/K/mol
 100.00  VIB   1.02                   13.787      0.576      0.172
         ROT   129.                  298.089      2.981     12.632
         INT   131.                  311.876      3.556     12.803
         TR   0.250E+26              496.815      4.968     30.266
         TOT                         808.6906     8.5246    43.0694   180.2022

   temp. (K)  partition function   enthalpy   heat capacity  entropy
                                   cal/mol     cal/K/mol   cal/K/mol   J/K/mol
  80.00  VIB   1.01                    4.893      0.315      0.073
         ROT   92.0                  238.471      2.981     11.966
         INT   92.5                  243.364      3.296     12.040
         TR   0.179E+26              397.452      4.968     29.158
         TOT                         640.8162     8.2642    41.1979   172.3718

   temp. (K)  partition function   enthalpy   heat capacity  entropy
                                   cal/mol     cal/K/mol   cal/K/mol   J/K/mol
  60.00  VIB   1.00                    0.883      0.101      0.017
         ROT   59.7                  178.853      2.981     11.109
         INT   59.8                  179.737      3.082     11.126
         TR   0.116E+26              298.089      4.968     27.729
         TOT                         477.8257     8.0497    38.8553   162.5708

   temp. (K)  partition function   enthalpy   heat capacity  entropy
                                   cal/mol     cal/K/mol   cal/K/mol   J/K/mol
  40.00  VIB   1.00                    0.029      0.007      0.001
         ROT   32.5                  119.236      2.981      9.900
         INT   32.5                  119.265      2.988      9.901
         TR   0.632E+25              198.726      4.968     25.716
         TOT                         317.9907     7.9565    35.6168   149.0208

   temp. (K)  partition function   enthalpy   heat capacity  entropy
                                   cal/mol     cal/K/mol   cal/K/mol   J/K/mol
  20.00  VIB   1.00                    0.000      0.000     -0.001
         ROT   11.5                   59.618      2.981      7.834
         INT   11.5                   59.618      2.981      7.833
         TR   0.223E+25               99.363      4.968     22.274
         TOT                         158.9808     7.9490    30.1072   125.9684

   temp. (K)  partition function   enthalpy   heat capacity  entropy
                                   cal/mol     cal/K/mol   cal/K/mol   J/K/mol
  10.00  VIB   1.00                    0.000      0.000     -0.002
         ROT   4.06                   29.809      2.981      5.768
         INT   4.06                   29.809      2.981      5.766
         TR   0.790E+24               49.681      4.968     18.832
         TOT                          79.4904     7.9490    24.5983   102.9195

       T/K    H(0)-H(T)+PV         H(T)/Eh          T*S/Eh         G(T)/Eh
   ------------------------------------------------------------------------
    298.15    0.430902E-02    0.272955E-01    0.253360E-01    0.195951E-02
    120.00    0.156447E-02    0.245510E-01    0.853768E-02    0.160133E-01
    100.00    0.128873E-02    0.242752E-01    0.686354E-02    0.174117E-01
     80.00    0.102121E-02    0.240077E-01    0.525224E-02    0.187555E-01
     60.00    0.761464E-03    0.237480E-01    0.371520E-02    0.200328E-01
     40.00    0.506750E-03    0.234933E-01    0.227036E-02    0.212229E-01
     20.00    0.253352E-03    0.232399E-01    0.959577E-03    0.222803E-01
     10.00    0.126676E-03    0.231132E-01    0.392000E-03    0.227212E-01 (used)
   ------------------------------------------------------------------------

         :::::::::::::::::::::::::::::::::::::::::::::::::::::
         ::                  THERMODYNAMIC                  ::
         :::::::::::::::::::::::::::::::::::::::::::::::::::::
         :: total free energy          -5.097332612777 Eh   ::
         ::.................................................::
         :: total energy               -5.120053800655 Eh   ::
         :: zero point energy           0.022986511372 Eh   ::
         :: G(RRHO) w/o ZPVE           -0.000265323495 Eh   ::
         :: G(RRHO) contrib.            0.022721187877 Eh   ::
         :::::::::::::::::::::::::::::::::::::::::::::::::::::

optimized geometry written to: xtbopt.xyz


           -------------------------------------------------
          | TOTAL ENERGY               -5.120053800655 Eh   |
          | TOTAL ENTHALPY             -5.096940613267 Eh   |
          | TOTAL FREE ENERGY          -5.097332612777 Eh   |
          | GRADIENT NORM               0.000162466132 Eh/α |
          | HOMO-LUMO GAP               2.494224577134 eV   |
           -------------------------------------------------

------------------------------------------------------------------------
 * finished run on 2020/05/12 at 11:44:29.296     
------------------------------------------------------------------------
 total:
 * wall-time:     0 d,  0 h,  0 min,  0.054 sec
 *  cpu-time:     0 d,  0 h,  0 min,  0.054 sec
 * ratio c/w:     0.999 speedup
 SCF:
 * wall-time:     0 d,  0 h,  0 min,  0.002 sec
 *  cpu-time:     0 d,  0 h,  0 min,  0.002 sec
 * ratio c/w:     1.000 speedup
 ANC optimizer:
 * wall-time:     0 d,  0 h,  0 min,  0.012 sec
 *  cpu-time:     0 d,  0 h,  0 min,  0.012 sec
 * ratio c/w:     1.000 speedup
 numerical hessian:
 * wall-time:     0 d,  0 h,  0 min,  0.024 sec
 *  cpu-time:     0 d,  0 h,  0 min,  0.024 sec
 * ratio c/w:     0.998 speedup

