      -----------------------------------------------------------      
     |                   =====================                   |     
     |                           x T B                           |     
     |                   =====================                   |     
     |                         S. Grimme                         |     
     |          Mulliken Center for Theoretical Chemistry        |     
     |                    University of Bonn                     |     
      -----------------------------------------------------------      

   * xtb version 6.2.2 (9d81278992624c895f80dd42a50cac0aa55982e2) compiled by '@Darwin' on 04/03/2020

   xtb is free software: you can redistribute it and/or modify it under
   the terms of the GNU Lesser General Public License as published by
   the Free Software Foundation, either version 3 of the License, or
   (at your option) any later version.
   
   xtb is distributed in the hope that it will be useful,
   but WITHOUT ANY WARRANTY; without even the implied warranty of
   MERCHANTABILITY or FITNESS FOR A PARTICULAR PURPOSE.  See the
   GNU Lesser General Public License for more details.
   
   Cite this work as:
   * S. Grimme, C. Bannwarth, P. Shushkov, J. Chem. Theory Comput., 2017,
     13, 1989-2009. DOI: 10.1021/acs.jctc.7b00118
   * C. Bannwarth, S. Ehlert and S. Grimme., J. Chem. Theory Comput., 2019,
     15, 1652-1671. DOI: 10.1021/acs.jctc.8b01176
   * P. Pracht, E. Caldeweyher, S. Ehlert, S. Grimme, ChemRxiv, 2019, preprint.
     DOI: 10.26434/chemrxiv.8326202.v1
   
   for DFT-D4:
   * E. Caldeweyher, C. Bannwarth and S. Grimme, J. Chem. Phys., 2017,
     147, 034112. DOI: 10.1063/1.4993215
   * E. Caldeweyher, S. Ehlert, A. Hansen, H. Neugebauer, S. Spicher,
     C. Bannwarth and S. Grimme, J. Chem. Phys., 2019, 150, 154122.
     DOI: 10.1063/1.5090222
   
   for sTDA-xTB:
   * S. Grimme and C. Bannwarth, J. Chem. Phys., 2016, 145, 054103.
     DOI: 10.1063/1.4959605
   
   in the mass-spec context:
   * V. Asgeirsson, C. Bauer and S. Grimme, Chem. Sci., 2017, 8, 4879.
     DOI: 10.1039/c7sc00601b
   
   for metadynamics refer to:
   * S. Grimme, J. Chem. Theory Comput., 2019, 155, 2847-2862
     DOI: 10.1021/acs.jctc.9b00143
   
   with help from (in alphabetical order)
   C. Bannwarth, F. Bohle, G. Brandenburg, E. Caldeweyher, M. Checinski,
   S. Dohm, S. Ehlert, S. Ehrlich, F. März, H. Neugebauer, J. Pisarek,
   P. Pracht, P. Shushkov, and S. Spicher.
   
 * started run on 2020/05/12 at 11:44:41.051     

           -------------------------------------------------
          |                Calculation Setup                |
           -------------------------------------------------

          program call               : xtb --input C1N1O1_1_S_1.input C1N1O1_1_S_1.xyz --ohess --molden --namespace C1N1O1_1_S_1 output.out
          calculation namespace      : C1N1O1_1_S_1
          coordinate file            : C1N1O1_1_S_1.xyz
          number of atoms            :                     3
          number of electrons        :                    15
          charge                     :                     0
          spin                       :                   0.5
          first test random number   :      0.71523259766227

   ID    Z sym.   atoms
    1    7 N      1
    2    8 O      2
    3    6 C      3

           -------------------------------------------------
          |                 G F N 2 - x T B                 |
           -------------------------------------------------

        Reference                      10.1021/acs.jctc.8b01176
      * Hamiltonian:
        H0-scaling (s, p, d)           1.850000    2.230000    2.230000
        zeta-weighting                 0.500000
      * Dispersion:
        s8                             2.700000
        a1                             0.520000
        a2                             5.000000
        s9                             5.000000
      * Repulsion:
        kExp                           1.500000    1.000000
        rExp                           1.000000
      * Coulomb:
        alpha                          2.000000
        third order                    shell-resolved
        anisotropic                    true
        a3                             3.000000
        a5                             4.000000
        cn-shift                       1.200000
        cn-exp                         4.000000
        max-rad                        5.000000


          ...................................................
          :                      SETUP                      :
          :.................................................:
          :  # basis functions                  12          :
          :  # atomic orbitals                  12          :
          :  # shells                            6          :
          :  # electrons                        15          :
          :  max. iterations                   250          :
          :  Hamiltonian                  GFN2-xTB          :
          :  restarted?                      false          :
          :  GBSA solvation                  false          :
          :  PC potential                    false          :
          :  electronic temp.          300.0000000     K    :
          :  accuracy                    1.0000000          :
          :  -> integral cutoff          0.2500000E+02      :
          :  -> integral neglect         0.1000000E-07      :
          :  -> SCF convergence          0.1000000E-05 Eh   :
          :  -> wf. convergence          0.1000000E-03 e    :
          :  Broyden damping             0.4000000          :
          ...................................................

 iter      E             dE          RMSdq      gap      omega  full diag
   1     -8.7268899 -0.872689E+01  0.108E+01    1.07       0.0  T
   2     -8.6470492  0.798407E-01  0.908E+00    1.57       1.0  T
   3     -8.2741282  0.372921E+00  0.982E+00    0.14       1.0  T
   4     -8.4634191 -0.189291E+00  0.932E+00    2.05       1.0  T
   5     -8.7483874 -0.284968E+00  0.490E+00    1.47       1.0  T
   6     -8.8155567 -0.671693E-01  0.211E+00    1.02       1.0  T
   7     -8.8101094  0.544722E-02  0.214E+00    1.09       1.0  T
   8     -8.8205368 -0.104273E-01  0.206E-01    0.82       1.0  T
   9     -8.8206688 -0.132020E-03  0.946E-02    0.80       1.0  T
  10     -8.8206737 -0.492728E-05  0.476E-02    0.80       1.2  T
  11     -8.8206706  0.309544E-05  0.370E-02    0.80       1.6  T
  12     -8.8206745 -0.389459E-05  0.106E-02    0.80       5.4  T
  13     -8.8206746 -0.509526E-07  0.289E-03    0.80      20.0  T
  14     -8.8206746 -0.113985E-07  0.958E-04    0.80      60.2  T
  15     -8.8206746 -0.299755E-08  0.125E-04    0.80     461.9  T

   *** convergence criteria satisfied after 15 iterations ***

         #    Occupation            Energy/Eh            Energy/eV
      -------------------------------------------------------------
         1        2.0000           -0.7720326             -21.0081
         2        2.0000           -0.7137029             -19.4208
         3        2.0000           -0.6476312             -17.6229
         4        2.0000           -0.6036630             -16.4265
         5        2.0000           -0.5890638             -16.0292
         6        2.0000           -0.5620040             -15.2929
         7        1.9996           -0.4760325             -12.9535
         8        1.0004           -0.4610611             -12.5461 (HOMO)
         9        0.0000           -0.4315775             -11.7438 (LUMO)
        10                         -0.3763252             -10.2403
        11                         -0.0360786              -0.9817
        12                          0.0009897               0.0269
      -------------------------------------------------------------
                  HL-Gap            0.0294837 Eh            0.8023 eV
             Fermi-level           -0.4574330 Eh          -12.4474 eV

 SCC (total)                   0 d,  0 h,  0 min,  0.002 sec
 SCC setup                      ...        0 min,  0.000 sec (  3.723%)
 Dispersion                     ...        0 min,  0.000 sec (  0.461%)
 integral evaluation            ...        0 min,  0.001 sec ( 26.115%)
 zeroth order Hamiltonian       ...        0 min,  0.000 sec (  0.516%)
 iterations                     ...        0 min,  0.001 sec ( 43.576%)
 molecular gradient             ...        0 min,  0.000 sec ( 22.600%)
 printout                       ...        0 min,  0.000 sec (  2.438%)

         :::::::::::::::::::::::::::::::::::::::::::::::::::::
         ::                     SUMMARY                     ::
         :::::::::::::::::::::::::::::::::::::::::::::::::::::
         :: total energy              -8.804611155948 Eh    ::
         :: gradient norm              0.277917188543 Eh/a0 ::
         :: HOMO-LUMO gap              0.802291605695 eV    ::
         ::.................................................::
         :: SCC energy                -8.820674586448 Eh    ::
         :: -> isotropic ES           -0.003826174566 Eh    ::
         :: -> anisotropic ES         -0.001067760961 Eh    ::
         :: -> anisotropic XC          0.006711537977 Eh    ::
         :: -> dispersion             -0.000792468494 Eh    ::
         :: repulsion energy           0.016063429647 Eh    ::
         :: add. restraining           0.000000000000 Eh    ::
         :::::::::::::::::::::::::::::::::::::::::::::::::::::

      ----------------------------------------------------------- 
     |                   =====================                   |
     |                        A N C O P T                        |
     |                   =====================                   |
     |               Approximate Normal Coordinate               |
     |                Rational Function Optimizer                |
      ----------------------------------------------------------- 

          ...................................................
          :                      SETUP                      :
          :.................................................:
          :   optimization level            normal          :
          :   max. optcycles                   200          :
          :   ANC micro-cycles                  20          :
          :   degrees of freedom                 3          :
          :.................................................:
          :   RF solver                   davidson          :
          :   write xtbopt.log                true          :
          :   linear?                        false          :
          :   energy convergence         0.5000000E-05 Eh   :
          :   grad. convergence          0.1000000E-02 Eh/α :
          :   maximium RF displ.         1.0000000          :
          :   Hlow (freq-cutoff)         0.1000000E-01      :
          :   Hmax (freq-cutoff)         5.0000000          :
          :   S6 in model hess.         20.0000000          :
          ...................................................

generating ANC from model Hessian ...
Using Lindh-Hessian (1995)
 Shifting diagonal of input Hessian by    0.0000000000000000     
 Lowest  eigenvalues of input Hessian
   -0.000000    0.000000    0.000000    0.000000    0.000000    0.000000
    0.161989    0.964310    1.365558
 Highest eigenvalues
    0.000000    0.000000    0.000000    0.161989    0.964310    1.365558


........................................................................
.............................. CYCLE    1 ..............................
........................................................................
   1     -8.8206746 -0.882067E+01  0.104E-04    0.80       0.0  T
   2     -8.8206746  0.216708E-09  0.225E-04    0.80     256.3  T
   3     -8.8206746 -0.230687E-09  0.665E-05    0.80     867.7  T
     SCC iter.                  ...        0 min,  0.000 sec
     gradient                   ...        0 min,  0.000 sec
 * total energy  :    -8.8046112 Eh     change        0.4447465E-10 Eh
   gradient norm :     0.2779176 Eh/α   predicted     0.0000000E+00 (-100.00%)
   displ. norm   :     0.2762303 α      lambda       -0.7473993E-01
   maximum displ.:     0.2619272 α      in ANC's #2, #1, #3, ...

........................................................................
.............................. CYCLE    2 ..............................
........................................................................
   1     -8.8673151 -0.886732E+01  0.416E+00    1.48       0.0  T
   2     -8.6745780  0.192737E+00  0.747E+00    2.48       1.0  T
   3     -8.9173761 -0.242798E+00  0.147E+00    1.58       1.0  T
   4     -8.9170680  0.308030E-03  0.742E-01    1.64       1.0  T
   5     -8.9172841 -0.216089E-03  0.327E-01    1.55       1.0  T
   6     -8.9176716 -0.387530E-03  0.840E-02    1.58       1.0  T
   7     -8.9176792 -0.759883E-05  0.141E-02    1.58       4.1  T
   8     -8.9176796 -0.399471E-06  0.592E-03    1.58       9.7  T
   9     -8.9176797 -0.123160E-07  0.121E-03    1.58      47.9  T
  10     -8.9176797 -0.141785E-08  0.433E-04    1.58     133.3  T
  11     -8.9176797 -0.343624E-09  0.122E-04    1.58     471.4  T
     SCC iter.                  ...        0 min,  0.000 sec
     gradient                   ...        0 min,  0.000 sec
 * total energy  :    -8.8717684 Eh     change       -0.6715722E-01 Eh
   gradient norm :     0.1953532 Eh/α   predicted    -0.4022140E-01 ( -40.11%)
   displ. norm   :     0.6897903 α      lambda       -0.1219900E+00
   maximum displ.:     0.5244533 α      in ANC's #2, #1, #3, ...

........................................................................
.............................. CYCLE    3 ..............................
........................................................................
   1     -9.0520146 -0.905201E+01  0.564E+00    6.36       0.0  T
   2     -8.9676179  0.843967E-01  0.622E+00    6.43       1.0  T
   3     -9.0718182 -0.104200E+00  0.299E+00    6.14       1.0  T
   4     -9.0852931 -0.134748E-01  0.641E-01    6.24       1.0  T
   5     -9.0853607 -0.676685E-04  0.249E-01    6.20       1.0  T
   6     -9.0853896 -0.288872E-04  0.870E-02    6.20       1.0  T
   7     -9.0854054 -0.157789E-04  0.183E-02    6.20       3.1  T
   8     -9.0854053  0.119354E-06  0.953E-03    6.20       6.1  T
   9     -9.0854055 -0.216701E-06  0.295E-03    6.20      19.6  T
  10     -9.0854055 -0.228829E-07  0.722E-04    6.20      80.0  T
  11     -9.0854055 -0.803260E-09  0.765E-05    6.20     755.0  T
     SCC iter.                  ...        0 min,  0.000 sec
     gradient                   ...        0 min,  0.000 sec
 * total energy  :    -8.8819152 Eh     change       -0.1014679E-01 Eh
   gradient norm :     0.5400739 Eh/α   predicted    -0.9001703E-01 ( 787.15%)
   displ. norm   :     0.3138119 α      lambda       -0.1195381E+00
   maximum displ.:     0.2723150 α      in ANC's #1, #3, #2, ...

........................................................................
.............................. CYCLE    4 ..............................
........................................................................
   1     -8.9856119 -0.898561E+01  0.304E+00    4.67       0.0  T
   2     -8.9781171  0.749485E-02  0.249E+00    5.17       1.0  T
   3     -8.9897139 -0.115968E-01  0.177E+00    4.92       1.0  T
   4     -8.9984608 -0.874692E-02  0.869E-01    5.00       1.0  T
   5     -8.9984225  0.382786E-04  0.271E-01    5.02       1.0  T
   6     -8.9985236 -0.101105E-03  0.108E-01    5.03       1.0  T
   7     -8.9985381 -0.144765E-04  0.351E-02    5.03       1.6  T
   8     -8.9985383 -0.207366E-06  0.185E-03    5.04      31.2  T
   9     -8.9985383 -0.360831E-09  0.881E-04    5.04      65.5  T
  10     -8.9985383 -0.107644E-09  0.143E-04    5.04     403.2  T
     SCC iter.                  ...        0 min,  0.000 sec
     gradient                   ...        0 min,  0.001 sec
 * total energy  :    -8.9224807 Eh     change       -0.4056550E-01 Eh
   gradient norm :     0.0751291 Eh/α   predicted    -0.6565498E-01 (  61.85%)
   displ. norm   :     0.1384986 α      lambda       -0.6970730E-02
   maximum displ.:     0.1342976 α      in ANC's #1, #3, #2, ...

........................................................................
.............................. CYCLE    5 ..............................
........................................................................
   1     -9.0114416 -0.901144E+01  0.204E+00    5.16       0.0  T
   2     -9.0003839  0.110577E-01  0.226E+00    5.25       1.0  T
   3     -9.0171332 -0.167493E-01  0.733E-01    5.12       1.0  T
   4     -9.0180944 -0.961197E-03  0.257E-01    5.15       1.0  T
   5     -9.0181838 -0.893959E-04  0.582E-02    5.14       1.0  T
   6     -9.0181863 -0.255278E-05  0.219E-02    5.13       2.6  T
   7     -9.0181864 -0.759832E-07  0.655E-03    5.13       8.8  T
   8     -9.0181865 -0.338802E-07  0.662E-04    5.13      87.2  T
   9     -9.0181865 -0.202878E-10  0.312E-04    5.13     185.0  T
     SCC iter.                  ...        0 min,  0.000 sec
     gradient                   ...        0 min,  0.001 sec
 * total energy  :    -8.9245697 Eh     change       -0.2089030E-02 Eh
   gradient norm :     0.0578175 Eh/α   predicted    -0.3552223E-02 (  70.04%)
   displ. norm   :     0.0688739 α      lambda       -0.2042486E-02
   maximum displ.:     0.0591428 α      in ANC's #1, #2, #3, ...

........................................................................
.............................. CYCLE    6 ..............................
........................................................................
   1     -9.0182972 -0.901830E+01  0.916E-01    5.34       0.0  T
   2     -9.0177733  0.523942E-03  0.715E-01    5.31       1.0  T
   3     -9.0180527 -0.279429E-03  0.450E-01    5.37       1.0  T
   4     -9.0187423 -0.689651E-03  0.934E-02    5.34       1.0  T
   5     -9.0187505 -0.820238E-05  0.386E-02    5.34       1.5  T
   6     -9.0187508 -0.227189E-06  0.694E-03    5.34       8.3  T
   7     -9.0187508 -0.215793E-07  0.343E-03    5.34      16.8  T
   8     -9.0187508 -0.132408E-07  0.452E-04    5.34     127.7  T
   9     -9.0187508 -0.129525E-09  0.755E-05    5.34     764.7  T
     SCC iter.                  ...        0 min,  0.000 sec
     gradient                   ...        0 min,  0.000 sec
 * total energy  :    -8.9257485 Eh     change       -0.1178829E-02 Eh
   gradient norm :     0.0141964 Eh/α   predicted    -0.1026087E-02 ( -12.96%)
   displ. norm   :     0.0464203 α      lambda       -0.3808350E-03
   maximum displ.:     0.0326573 α      in ANC's #2, #1, #3, ...

........................................................................
.............................. CYCLE    7 ..............................
........................................................................
   1     -9.0208638 -0.902086E+01  0.693E-01    5.50       0.0  T
   2     -9.0207873  0.765501E-04  0.328E-01    5.53       1.0  T
   3     -9.0203963  0.390944E-03  0.421E-01    5.49       1.0  T
   4     -9.0209442 -0.547895E-03  0.417E-02    5.52       1.4  T
   5     -9.0209442  0.296349E-07  0.153E-02    5.52       3.8  T
   6     -9.0209443 -0.151349E-06  0.348E-03    5.52      16.6  T
   7     -9.0209443 -0.983891E-08  0.134E-03    5.52      43.0  T
   8     -9.0209443 -0.125116E-08  0.262E-04    5.52     220.2  T
   9     -9.0209443 -0.216538E-10  0.226E-05    5.52    2553.5  T
     SCC iter.                  ...        0 min,  0.000 sec
     gradient                   ...        0 min,  0.000 sec
 * total energy  :    -8.9260440 Eh     change       -0.2954941E-03 Eh
   gradient norm :     0.0104201 Eh/α   predicted    -0.1908268E-03 ( -35.42%)
   displ. norm   :     0.1009993 α      lambda       -0.5321241E-03
   maximum displ.:     0.0698638 α      in ANC's #1, #2, #3, ...

........................................................................
.............................. CYCLE    8 ..............................
........................................................................
   1     -9.0208990 -0.902090E+01  0.144E+00    5.68       0.0  T
   2     -9.0208535  0.454510E-04  0.695E-01    5.74       1.0  T
   3     -9.0197850  0.106850E-02  0.624E-01    5.67       1.0  T
   4     -9.0211192 -0.133416E-02  0.101E-01    5.72       1.0  T
   5     -9.0211217 -0.252227E-05  0.296E-02    5.72       2.0  T
   6     -9.0211224 -0.683837E-06  0.681E-03    5.72       8.5  T
   7     -9.0211224 -0.211063E-07  0.114E-03    5.72      50.5  T
   8     -9.0211224 -0.276883E-09  0.425E-04    5.72     135.8  T
   9     -9.0211224 -0.502425E-10  0.324E-05    5.72    1780.5  T
     SCC iter.                  ...        0 min,  0.000 sec
     gradient                   ...        0 min,  0.000 sec
 * total energy  :    -8.9264461 Eh     change       -0.4020733E-03 Eh
   gradient norm :     0.0143457 Eh/α   predicted    -0.2687752E-03 ( -33.15%)
   displ. norm   :     0.1119601 α      lambda       -0.4154040E-03
   maximum displ.:     0.0746694 α      in ANC's #2, #1, #3, ...

........................................................................
.............................. CYCLE    9 ..............................
........................................................................
   1     -9.0189092 -0.901891E+01  0.853E-01    5.71       0.0  T
   2     -9.0189281 -0.188821E-04  0.474E-01    5.74       1.0  T
   3     -9.0187483  0.179810E-03  0.249E-01    5.71       1.0  T
   4     -9.0189497 -0.201475E-03  0.754E-02    5.74       1.0  T
   5     -9.0189544 -0.461155E-05  0.175E-02    5.73       3.3  T
   6     -9.0189545 -0.159244E-06  0.579E-03    5.73      10.0  T
   7     -9.0189545 -0.464267E-08  0.884E-04    5.73      65.3  T
   8     -9.0189545 -0.456222E-10  0.410E-04    5.73     140.8  T
     SCC iter.                  ...        0 min,  0.000 sec
     gradient                   ...        0 min,  0.000 sec
 * total energy  :    -8.9266165 Eh     change       -0.1704131E-03 Eh
   gradient norm :     0.0112678 Eh/α   predicted    -0.2103056E-03 (  23.41%)
   displ. norm   :     0.0246019 α      lambda       -0.1742716E-03
   maximum displ.:     0.0232330 α      in ANC's #1, #2, #3, ...

........................................................................
.............................. CYCLE   10 ..............................
........................................................................
   1     -9.0221534 -0.902215E+01  0.258E-01    5.80       0.0  T
   2     -9.0220949  0.584602E-04  0.259E-01    5.82       1.0  T
   3     -9.0223026 -0.207678E-03  0.729E-02    5.80       1.0  T
   4     -9.0223044 -0.182644E-05  0.219E-02    5.80       2.6  T
   5     -9.0223050 -0.567904E-06  0.435E-03    5.80      13.3  T
   6     -9.0223050 -0.161661E-08  0.704E-04    5.80      82.0  T
   7     -9.0223050 -0.424050E-09  0.313E-04    5.80     184.4  T
     SCC iter.                  ...        0 min,  0.000 sec
     gradient                   ...        0 min,  0.000 sec
 * total energy  :    -8.9266812 Eh     change       -0.6465919E-04 Eh
   gradient norm :     0.0027202 Eh/α   predicted    -0.8718829E-04 (  34.84%)
   displ. norm   :     0.0098819 α      lambda       -0.1077761E-04
   maximum displ.:     0.0076936 α      in ANC's #1, #2, #3, ...

........................................................................
.............................. CYCLE   11 ..............................
........................................................................
   1     -9.0215744 -0.902157E+01  0.707E-02    5.79       0.0  T
   2     -9.0215731  0.134518E-05  0.532E-02    5.78       1.1  T
   3     -9.0215772 -0.411497E-05  0.326E-02    5.79       1.8  T
   4     -9.0215785 -0.134216E-05  0.499E-03    5.79      11.6  T
   5     -9.0215786 -0.432543E-07  0.169E-03    5.79      34.1  T
   6     -9.0215786 -0.376888E-09  0.226E-04    5.79     255.3  T
   7     -9.0215786 -0.581757E-11  0.602E-05    5.79     959.0  T
     SCC iter.                  ...        0 min,  0.000 sec
     gradient                   ...        0 min,  0.000 sec
 * total energy  :    -8.9266869 Eh     change       -0.5735251E-05 Eh
   gradient norm :     0.0001597 Eh/α   predicted    -0.5388997E-05 (  -6.04%)
   displ. norm   :     0.0020587 α      lambda       -0.8012461E-07
   maximum displ.:     0.0014161 α      in ANC's #2, #1, #3, ...

........................................................................
.............................. CYCLE   12 ..............................
........................................................................
   1     -9.0215342 -0.902153E+01  0.127E-02    5.79       0.0  T
   2     -9.0215342 -0.514314E-08  0.759E-03    5.79       7.6  T
   3     -9.0215342  0.437715E-08  0.154E-03    5.78      37.4  T
   4     -9.0215342 -0.678789E-08  0.653E-04    5.79      88.4  T
   5     -9.0215342 -0.468457E-09  0.234E-04    5.79     247.2  T
     SCC iter.                  ...        0 min,  0.000 sec
     gradient                   ...        0 min,  0.000 sec
 * total energy  :    -8.9266869 Eh     change       -0.2960852E-07 Eh
   gradient norm :     0.0001292 Eh/α   predicted    -0.4128003E-07 (  39.42%)
   displ. norm   :     0.0006834 α      lambda       -0.1369327E-07
   maximum displ.:     0.0004537 α      in ANC's #2, #1, #3, ...

   *** GEOMETRY OPTIMIZATION CONVERGED AFTER 12 ITERATIONS ***

------------------------------------------------------------------------
 total energy gain   :        -0.1220758 Eh      -76.6037 kcal/mol
 total RMSD          :         0.7527310 a0        0.3983 Å
 total power (kW/mol):       -26.7091588 (step)********** (real)
------------------------------------------------------------------------

 ANCopt (total)                0 d,  0 h,  0 min,  0.018 sec
 optimizer setup                ...        0 min,  0.000 sec (  0.358%)
 model hessian                  ...        0 min,  0.000 sec (  0.207%)
 ANC generation                 ...        0 min,  0.000 sec (  0.200%)
 coordinate transformation      ...        0 min,  0.000 sec (  0.140%)
 single point calculation       ...        0 min,  0.017 sec ( 94.487%)
 optimization log               ...        0 min,  0.000 sec (  1.195%)
 hessian update                 ...        0 min,  0.000 sec (  0.120%)
 rational function              ...        0 min,  0.000 sec (  1.116%)

================
 final structure:
================
3
 xtb: 6.2.2 (9d81278992624c895f80dd42a50cac0aa55982e2)
N        -0.00137616055629   -0.00029562740470    0.00000000000000
O        -1.18995523973749   -0.01689003375299   -0.00000000000000
C         1.19133140029379    0.01718466115769    0.00000000000000

 Bond Distances (Angstroems)
 ---------------------------
N1-O2=1.1887         N1-C3=1.1928         O2-N1=1.1887         C3-N1=1.1928         
 N  C  Rav=1.1928 sigma=0.0000  Rmin=1.1928  Rmax=1.1928     1
 O  N  Rav=1.1887 sigma=0.0000  Rmin=1.1887  Rmax=1.1887     1

 selected bond angles (degree)
 --------------------
C3-N1-O2=179.96                

 selected dihedral angles (degree)
 ---------------------------------

           -------------------------------------------------
          |                Final Singlepoint                |
           -------------------------------------------------

          ...................................................
          :                      SETUP                      :
          :.................................................:
          :  # basis functions                  12          :
          :  # atomic orbitals                  12          :
          :  # shells                            6          :
          :  # electrons                        15          :
          :  max. iterations                   250          :
          :  Hamiltonian                  GFN2-xTB          :
          :  restarted?                      false          :
          :  GBSA solvation                  false          :
          :  PC potential                    false          :
          :  electronic temp.          300.0000000     K    :
          :  accuracy                    1.0000000          :
          :  -> integral cutoff          0.2500000E+02      :
          :  -> integral neglect         0.1000000E-07      :
          :  -> SCF convergence          0.1000000E-05 Eh   :
          :  -> wf. convergence          0.1000000E-03 e    :
          :  Broyden damping             0.4000000          :
          ...................................................

 iter      E             dE          RMSdq      gap      omega  full diag
   1     -9.0215342 -0.902153E+01  0.345E-05    5.79       0.0  T
   2     -9.0215342 -0.710543E-13  0.207E-05    5.79    2789.3  T
   3     -9.0215342  0.316192E-12  0.115E-05    5.79    5031.1  T

   *** convergence criteria satisfied after 3 iterations ***

         #    Occupation            Energy/Eh            Energy/eV
      -------------------------------------------------------------
         1        2.0000           -0.8049313             -21.9033
         2        2.0000           -0.7230701             -19.6757
         3        2.0000           -0.6432915             -17.5049
         4        2.0000           -0.6430678             -17.4988
         5        2.0000           -0.6430669             -17.4987
         6        2.0000           -0.4890042             -13.3065
         7        1.5000           -0.4629747             -12.5982
         8        1.5000           -0.4629747             -12.5982 (HOMO)
         9                         -0.2503758              -6.8131 (LUMO)
        10                         -0.2503757              -6.8131
        11                          0.1000851               2.7235
        12                          0.9565431              26.0289
      -------------------------------------------------------------
                  HL-Gap            0.2125989 Eh            5.7851 eV
             Fermi-level           -0.4098250 Eh          -11.1519 eV

 SCC (total)                   0 d,  0 h,  0 min,  0.001 sec
 SCC setup                      ...        0 min,  0.000 sec (  3.100%)
 Dispersion                     ...        0 min,  0.000 sec (  0.306%)
 integral evaluation            ...        0 min,  0.001 sec ( 41.665%)
 zeroth order Hamiltonian       ...        0 min,  0.000 sec (  0.433%)
 iterations                     ...        0 min,  0.000 sec ( 16.165%)
 molecular gradient             ...        0 min,  0.000 sec ( 34.763%)
 printout                       ...        0 min,  0.000 sec (  2.937%)

         :::::::::::::::::::::::::::::::::::::::::::::::::::::
         ::                     SUMMARY                     ::
         :::::::::::::::::::::::::::::::::::::::::::::::::::::
         :: total energy              -8.926686931906 Eh    ::
         :: gradient norm              0.000137711363 Eh/a0 ::
         :: HOMO-LUMO gap              5.785110536280 eV    ::
         ::.................................................::
         :: SCC energy                -9.021534210814 Eh    ::
         :: -> isotropic ES           -0.002335613752 Eh    ::
         :: -> anisotropic ES          0.003038267465 Eh    ::
         :: -> anisotropic XC          0.009045351715 Eh    ::
         :: -> dispersion             -0.000794917135 Eh    ::
         :: repulsion energy           0.094847281458 Eh    ::
         :: add. restraining           0.000000000000 Eh    ::
         :::::::::::::::::::::::::::::::::::::::::::::::::::::

           ------------------------------------------------- 
          |                Numerical Hessian                |
           ------------------------------------------------- 
step length          :   0.00500
SCC accuracy         :   0.30000
Hessian scale factor :   1.00000
frozen atoms in %    :   0.00000    0
RMS gradient         :   0.00014
estimated CPU  time      0.00 min
estimated wall time      0.00 min

writing file <hessian>.

 vibrational frequencies (cm-1)
eigval :        0.00     0.00     0.00     0.00     0.00   258.95
eigval :      258.99  1312.40  2127.88
           -------------------------------------------------
          |                Property Printout                |
           -------------------------------------------------

    * Orbital Energies and Occupations

         #    Occupation            Energy/Eh            Energy/eV
      -------------------------------------------------------------
         1        2.0000           -0.8049313             -21.9033
         2        2.0000           -0.7230701             -19.6757
         3        2.0000           -0.6432915             -17.5049
         4        2.0000           -0.6430677             -17.4988
         5        2.0000           -0.6430668             -17.4987
         6        2.0000           -0.4890043             -13.3065
Molecule has the following symmetry elements: (Cinf) (sigma) 
It seems to be the Cinfv point group
         7        1.5000           -0.4629747             -12.5982
         8        1.5000           -0.4629747             -12.5982 (HOMO)
         9                         -0.2503758              -6.8131 (LUMO)
        10                         -0.2503758              -6.8131
        11                          0.1000851               2.7235
        12                          0.9565431              26.0289
      -------------------------------------------------------------
                  HL-Gap            0.2125989 Eh            5.7851 eV
             Fermi-level           -0.4098250 Eh          -11.1519 eV

     #   Z        covCN         q      C6AA      α(0)
     1   7 N      1.833     0.345    16.412     6.003
     2   8 O      0.924    -0.186    17.813     5.660
     3   6 C      0.911    -0.159    40.613    10.665

 Mol. C6AA /au·bohr⁶  :        212.846620
 Mol. C8AA /au·bohr⁸  :       5182.503502
 Mol. α(0) /au        :         22.328867


Wiberg/Mayer (AO) data.
largest (>0.10) Wiberg bond orders for each atom
          total WBO             WBO to atom ...
     1  N   3.549        C    3 2.041    O    2 1.508
     2  O   1.710        N    1 1.508    C    3 0.202
     3  C   2.243        N    1 2.041    O    2 0.202

MOs/occ written to file <molden.input>


molecular dipole:
                 x           y           z       tot (Debye)
 q only:        0.058       0.001      -0.000
   full:       -0.281      -0.004       0.000       0.716
molecular quadrupole (traceless):
                xx          xy          yy          xz          yz          zz
 q only:       -1.747      -0.037       0.873       0.000       0.000       0.874
  q+dip:       -3.534      -0.076       1.766       0.000       0.000       1.767
   full:       -4.970      -0.107       2.484       0.000      -0.000       2.486

           -------------------------------------------------
          |                Geometry Summary                 |
           -------------------------------------------------

      molecular mass/u    :       42.0168440
   center of mass at/Å    :       -0.1130281      -0.0016171       0.0000004
  moments of inertia/u·Å² :        0.1584792E-05   0.3917278E+02   0.3917279E+02
rotational constants/cm⁻¹ :        0.1063712E+08   0.4303404E+00   0.4303404E+00

 * 2 selected distances

     #   Z        #   Z                                     value/Å
     1   7 N      2   8 O                                 1.1886949 (min)
     1   7 N      3   6 C                                 1.1928356 (max)

 * 2 distinct bonds (by element types)

   Z      Z             #   av. dist./Å        max./Å        min./Å
   6 C    7 N           1     1.1928356     1.1928356     1.1928356
   7 N    8 O           1     1.1886949     1.1886949     1.1886949

           -------------------------------------------------
          |               Frequency Printout                |
           -------------------------------------------------
 vibrational frequencies (cm-1)
eigval :        0.00     0.00     0.00     0.00     0.00   258.95
eigval :      258.99  1312.40  2127.88
 reduced masses (amu)
   1: 12.54   2: 13.53   3: 14.19   4: 14.57   5: 15.56   6: 13.92   7: 13.91   8: 14.29
   9: 13.53
 IR intensities (amu)
   1:  0.03   2:  0.01   3:  0.04   4:  0.06   5:  0.05   6:  0.71   7:  0.71   8:  1.02
   9:  1.26
 Raman intensities (amu)
   1:  0.00   2:  0.00   3:  0.00   4:  0.00   5:  0.00   6:  0.00   7:  0.00   8:  0.00
   9:  0.00
 output can be read by thermo (or use thermo option).
 writing <g98.out> molden fake output.
 recommended (thermochemical) frequency scaling factor: 1.0
           -------------------------------------------------
          |             Thermodynamic Functions             |
           -------------------------------------------------

cin symmetry found (for desy threshold:  0.10E+00) used in thermo

          ...................................................
          :                      SETUP                      :
          :.................................................:
          :  # frequencies                           4      :
          :  # imaginary freq.                       0      :
          :  linear?                              true      :
          :  only rotor calc.                    false      :
          :  symmetry                              cin      :
          :  rotational number                       1      :
          :  scaling factor                  1.0000000      :
          :  rotor cutoff                   50.0000000 cm⁻¹ :
          :  imag. cutoff                  -20.0000000 cm⁻¹ :
          :.................................................:

    mode    ω/cm⁻¹     T·S(HO)/kcal·mol⁻¹    T·S(FR)/kcal·mol⁻¹   T·S(vib)
   ------------------------------------------------------------------------
       1    258.95    -0.00000 ( 99.86%)     0.01466 (  0.14%)     0.00002
       2    258.99    -0.00000 ( 99.86%)     0.01466 (  0.14%)     0.00002
   ------------------------------------------------------------------------

   temp. (K)  partition function   enthalpy   heat capacity  entropy
                                   cal/mol     cal/K/mol   cal/K/mol   J/K/mol
 298.15  VIB   1.97                  601.793      3.645      3.365
         ROT   482.                  592.502      1.987     14.263
         INT   948.                 1194.294      5.632     17.627
         TR   0.264E+27             1481.254      4.968     37.117
         TOT                        2675.5481    10.6000    54.7439   229.0486

   temp. (K)  partition function   enthalpy   heat capacity  entropy
                                   cal/mol     cal/K/mol   cal/K/mol   J/K/mol
 120.00  VIB   1.10                   69.497      1.883      0.763
         ROT   194.                  238.471      1.987     12.454
         INT   212.                  307.968      3.870     13.217
         TR   0.673E+26              596.178      4.968     32.597
         TOT                         904.1458     8.8381    45.8142   191.6868

   temp. (K)  partition function   enthalpy   heat capacity  entropy
                                   cal/mol     cal/K/mol   cal/K/mol   J/K/mol
 100.00  VIB   1.05                   36.554      1.396      0.464
         ROT   162.                  198.726      1.987     12.092
         INT   170.                  235.280      3.383     12.556
         TR   0.512E+26              496.815      4.968     31.692
         TOT                         732.0951     8.3510    44.2475   185.1316

   temp. (K)  partition function   enthalpy   heat capacity  entropy
                                   cal/mol     cal/K/mol   cal/K/mol   J/K/mol
  80.00  VIB   1.02                   14.189      0.834      0.217
         ROT   129.                  158.981      1.987     11.648
         INT   132.                  173.169      2.821     11.865
         TR   0.366E+26              397.452      4.968     30.584
         TOT                         570.6215     7.7894    42.4485   177.6047

   temp. (K)  partition function   enthalpy   heat capacity  entropy
                                   cal/mol     cal/K/mol   cal/K/mol   J/K/mol
  60.00  VIB   1.00                    2.981      0.309      0.058
         ROT   96.9                  119.236      1.987     11.076
         INT   97.3                  122.217      2.296     11.135
         TR   0.238E+26              298.089      4.968     29.155
         TOT                         420.3061     7.2646    40.2901   168.5739

   temp. (K)  partition function   enthalpy   heat capacity  entropy
                                   cal/mol     cal/K/mol   cal/K/mol   J/K/mol
  40.00  VIB   1.00                    0.133      0.031      0.003
         ROT   64.6                   79.490      1.987     10.271
         INT   64.6                   79.624      2.018     10.274
         TR   0.129E+26              198.726      4.968     27.142
         TOT                         278.3498     6.9865    37.4159   156.5482

   temp. (K)  partition function   enthalpy   heat capacity  entropy
                                   cal/mol     cal/K/mol   cal/K/mol   J/K/mol
  20.00  VIB   1.00                    0.000      0.000     -0.002
         ROT   32.3                   39.745      1.987      8.893
         INT   32.3                   39.745      1.987      8.891
         TR   0.458E+25               99.363      4.968     23.700
         TOT                         139.1082     6.9554    32.5909   136.3602

   temp. (K)  partition function   enthalpy   heat capacity  entropy
                                   cal/mol     cal/K/mol   cal/K/mol   J/K/mol
  10.00  VIB   1.00                    0.000      0.000     -0.004
         ROT   16.2                   19.873      1.987      7.516
         INT   16.2                   19.873      1.987      7.512
         TR   0.162E+25               49.681      4.968     20.258
         TOT                          69.5541     6.9554    27.7695   116.1876

       T/K    H(0)-H(T)+PV         H(T)/Eh          T*S/Eh         G(T)/Eh
   ------------------------------------------------------------------------
    298.15    0.426376E-02    0.132813E-01    0.260106E-01   -0.127293E-01
    120.00    0.144085E-02    0.104584E-01    0.876116E-02    0.169720E-02
    100.00    0.116667E-02    0.101842E-01    0.705129E-02    0.313288E-02
     80.00    0.909343E-03    0.992685E-02    0.541168E-02    0.451516E-02
     60.00    0.669800E-03    0.968731E-02    0.385239E-02    0.583492E-02
     40.00    0.443579E-03    0.946108E-02    0.238504E-02    0.707604E-02
     20.00    0.221683E-03    0.923919E-02    0.103874E-02    0.820045E-02
     10.00    0.110842E-03    0.912835E-02    0.442535E-03    0.868581E-02 (used)
   ------------------------------------------------------------------------

         :::::::::::::::::::::::::::::::::::::::::::::::::::::
         ::                  THERMODYNAMIC                  ::
         :::::::::::::::::::::::::::::::::::::::::::::::::::::
         :: total free energy          -8.918001120623 Eh   ::
         ::.................................................::
         :: total energy               -8.926686931850 Eh   ::
         :: zero point energy           0.009017505048 Eh   ::
         :: G(RRHO) w/o ZPVE           -0.000331693821 Eh   ::
         :: G(RRHO) contrib.            0.008685811227 Eh   ::
         :::::::::::::::::::::::::::::::::::::::::::::::::::::

optimized geometry written to: xtbopt.xyz


           -------------------------------------------------
          | TOTAL ENERGY               -8.926686931850 Eh   |
          | TOTAL ENTHALPY             -8.917558585288 Eh   |
          | TOTAL FREE ENERGY          -8.918001120623 Eh   |
          | GRADIENT NORM               0.000137494568 Eh/α |
          | HOMO-LUMO GAP               5.785109359380 eV   |
           -------------------------------------------------

------------------------------------------------------------------------
 * finished run on 2020/05/12 at 11:44:41.114     
------------------------------------------------------------------------
 total:
 * wall-time:     0 d,  0 h,  0 min,  0.063 sec
 *  cpu-time:     0 d,  0 h,  0 min,  0.063 sec
 * ratio c/w:     0.999 speedup
 SCF:
 * wall-time:     0 d,  0 h,  0 min,  0.002 sec
 *  cpu-time:     0 d,  0 h,  0 min,  0.002 sec
 * ratio c/w:     1.000 speedup
 ANC optimizer:
 * wall-time:     0 d,  0 h,  0 min,  0.020 sec
 *  cpu-time:     0 d,  0 h,  0 min,  0.020 sec
 * ratio c/w:     1.000 speedup
 numerical hessian:
 * wall-time:     0 d,  0 h,  0 min,  0.025 sec
 *  cpu-time:     0 d,  0 h,  0 min,  0.025 sec
 * ratio c/w:     0.999 speedup

