$hessian                                                                        
        1.5736488957  -0.0000061789  -0.0000041193  -1.5736488957   0.0000061789
        0.0000041193
       -0.0000061789   0.0001497181   0.0000000000   0.0000061789  -0.0001497181
       -0.0000000000
       -0.0000041193   0.0000000000   0.0001497181   0.0000041193  -0.0000000000
       -0.0001497181
       -1.5736488957   0.0000061789   0.0000041193   1.5736488957  -0.0000061789
       -0.0000041193
        0.0000061789  -0.0001497181  -0.0000000000  -0.0000061789   0.0001497181
        0.0000000000
        0.0000041193  -0.0000000000  -0.0001497181  -0.0000041193   0.0000000000
        0.0001497181
