2
 energy: -5.634689983985 gnorm: 0.442855515366 xtb: 6.2.2 (9d81278992624c895f80dd42a50cac0aa55982e2)
N         0.70000000000000    0.00000000000000    0.00000000000000
N        -0.70000000000000    0.00000000000000    0.00000000000000
2
 energy: -5.758738728999 gnorm: 0.161594119358 xtb: 6.2.2 (9d81278992624c895f80dd42a50cac0aa55982e2)
N         0.57184710413770    0.00000000000000    0.00000000000000
N        -0.57184710413770   -0.00000000000000    0.00000000000000
2
 energy: -5.730306936742 gnorm: 0.589267575869 xtb: 6.2.2 (9d81278992624c895f80dd42a50cac0aa55982e2)
N         0.50086825943726    0.00000000000000    0.00000000000000
N        -0.50086825943726   -0.00000000000000    0.00000000000000
2
 energy: -5.763505715133 gnorm: 0.050416457051 xtb: 6.2.2 (9d81278992624c895f80dd42a50cac0aa55982e2)
N         0.55538905493631    0.00000000000000    0.00000000000000
N        -0.55538905493631   -0.00000000000000    0.00000000000000
2
 energy: -5.763891659514 gnorm: 0.016438532310 xtb: 6.2.2 (9d81278992624c895f80dd42a50cac0aa55982e2)
N         0.55109258514347    0.00000000000000    0.00000000000000
N        -0.55109258514347   -0.00000000000000    0.00000000000000
2
 energy: -5.763935316495 gnorm: 0.000810403302 xtb: 6.2.2 (9d81278992624c895f80dd42a50cac0aa55982e2)
N         0.54901401571618    0.00000000000000    0.00000000000000
N        -0.54901401571618   -0.00000000000000    0.00000000000000
2
 energy: -5.763935392238 gnorm: 0.000422988251 xtb: 6.2.2 (9d81278992624c895f80dd42a50cac0aa55982e2)
N         0.54916050122411    0.00000000000000    0.00000000000000
N        -0.54916050122411   -0.00000000000000    0.00000000000000
