2
 energy: -5.763935392238 gnorm: 0.000422988463 xtb: 6.2.2 (9d81278992624c895f80dd42a50cac0aa55982e2)
N         0.54916050121324   -0.00000287539766   -0.00000191693177
N        -0.54916050121324    0.00000287539766    0.00000191693177
