[Molden Format]
[Title]
[Atoms] AU
N      1     7  0.10377628494717E+01 -0.54337135734976E-05 -0.36224757156963E-05
N      2     7 -0.10377628494717E+01  0.54337135734529E-05  0.36224757156963E-05
[GTO]
           1 0
 s           4   1.0000000000000000     
   63.594024466941008      -0.19234388414721629     
   10.951417231523665      -0.23478107924953728     
  0.87999310257376984       0.37593753901700888     
  0.33538715296521110       0.14982889271862770     
 p           4   1.0000000000000000     
   7.2965040481495080       0.97658666315667420     
   1.8918745450712575       0.90372226730345739     
  0.66694432110824120       0.47404958461536373     
  0.26552202674130870        7.1516067715011844E-002

           2 0
 s           4   1.0000000000000000     
   63.594024466941008      -0.19234388414721629     
   10.951417231523665      -0.23478107924953728     
  0.87999310257376984       0.37593753901700888     
  0.33538715296521110       0.14982889271862770     
 p           4   1.0000000000000000     
   7.2965040481495080       0.97658666315667420     
   1.8918745450712575       0.90372226730345739     
  0.66694432110824120       0.47404958461536373     
  0.26552202674130870        7.1516067715011844E-002

[MO]
Sym=     1a
Ene=  -0.71725758733399037     
Spin= Alpha
Occup=     2.00000000
           1  0.48718871781772394     
           2 -0.25050976689919818     
           3   1.3152400236832273E-006
           4   8.7682668257342429E-007
           5  0.48718871781643769     
           6  0.25050976689948562     
           7  -1.3152400240584856E-006
           8  -8.7682668255447246E-007
Sym=     2a
Ene=  -0.57344616888191957     
Spin= Alpha
Occup=     2.00000000
           1  -2.7570643317773811E-007
           2  -4.0248364187320259E-006
           3 -0.44231591124835806     
           4 -0.44835213989504358     
           5   2.7570643294506229E-007
           6  -4.0248364188081395E-006
           7 -0.44231591124719299     
           8 -0.44835213989386219     
Sym=     3a
Ene=  -0.57344616887490207     
Spin= Alpha
Occup=     2.00000000
           1  -5.7087182867787093E-008
           2  -8.3337396244390564E-007
           3 -0.44835213990385697     
           4  0.44231591126466374     
           5   5.7087182596522952E-008
           6  -8.3337396253448248E-007
           7 -0.44835213990267619     
           8  0.44231591126349828     
Sym=     4a
Ene=  -0.56983656014414497     
Spin= Alpha
Occup=     2.00000000
           1  0.61384871953564579     
           2  0.33069783318687007     
           3  -1.9694705544814676E-006
           4  -1.3129803664346343E-006
           5 -0.61384871953458509     
           6  0.33069783318380680     
           7  -1.9694705537958486E-006
           8  -1.3129803664191366E-006
Sym=     5a
Ene=  -0.45144269196399378     
Spin= Alpha
Occup=     2.00000000
           1 -0.42821417326091649     
           2 -0.59678382745606962     
           3   3.1181504459811468E-006
           4   2.0787669635329684E-006
           5 -0.42821417326386374     
           6  0.59678382745725744     
           7  -3.1181504458851513E-006
           8  -2.0787669635534831E-006
Sym=     6a
Ene=  -0.29975356940606934     
Spin= Alpha
Occup=     0.00000000
           1  -1.2952854784145918E-009
           2   1.0029192711181138E-006
           3  0.58017661971341850     
           4 -0.58270240081913938     
           5  -1.2952857066705657E-009
           6  -1.0029192709501448E-006
           7 -0.58017661971431478     
           8  0.58270240082003977     
Sym=     7a
Ene=  -0.29975356938771597     
Spin= Alpha
Occup=     0.00000000
           1  -6.5503794183242973E-009
           2   5.0718552208231444E-006
           3  0.58270240081256108     
           4  0.58017661971567136     
           5  -6.5503797070336005E-009
           6  -5.0718552206262482E-006
           7 -0.58270240081346103     
           8 -0.58017661971656820     
Sym=     8a
Ene=   0.77025198383250726     
Spin= Alpha
Occup=     0.00000000
           1 -0.91205628515339443     
           2   1.0533719037579834     
           3  -5.5138143343856687E-006
           4  -3.6758762229333555E-006
           5  0.91205628515341186     
           6   1.0533719037582032     
           7  -5.5138143343510623E-006
           8  -3.6758762229331772E-006
