$hessian                                                                        
        0.1579259974  -0.1056477341  -0.0396523933  -0.1310728667   0.0808569497
        0.0302542263  -0.0427080301   0.0154614959   0.0099316664   0.0080544560
        0.0097205055   0.0007651837   0.0078004434  -0.0003912171  -0.0012986830
       -0.1056477341   0.4507949145   0.0823506388   0.1657466829  -0.0661856302
       -0.0334750476  -0.0210724940  -0.0008436510   0.0018491443  -0.0496705920
       -0.3836000124  -0.0492650283   0.0106441371  -0.0001656209  -0.0014597072
       -0.0396523933   0.0823506388   0.0209343321   0.0428084050  -0.0204515356
       -0.0226662588   0.0045067416  -0.0035931169   0.0057281638  -0.0079572859
       -0.0584610712  -0.0035354532   0.0002945326   0.0001550849  -0.0004607839
       -0.1310728667   0.1657466829   0.0428084050   0.9841628914   0.0771417860
       -0.1296483321  -0.3173226526   0.0077957505   0.0426833974  -0.4170992388
       -0.2525203227   0.0250276732  -0.1186681332   0.0018361035   0.0191288564
        0.0808569497  -0.0661856302  -0.0204515356   0.0771417860   0.1746014827
        0.0035013054  -0.0041423591  -0.0356931685   0.0022560476  -0.1586381887
       -0.0814900753   0.0154460812   0.0047818121   0.0087673913  -0.0007518986
        0.0302542263  -0.0334750476  -0.0226662588  -0.1296483321   0.0035013054
        0.0897314334   0.0409520484   0.0003786397  -0.0527086931   0.0386880013
        0.0298728267  -0.0201472887   0.0197540561  -0.0002777241   0.0057908072
       -0.0427080301  -0.0210724940   0.0045067416  -0.3173226526  -0.0041423591
        0.0409520484   1.3291733766  -0.0181505915  -0.1930437266  -0.0527288133
        0.0322268763   0.0142049387  -0.9164138806   0.0111385683   0.1333799979
        0.0154614959  -0.0008436510  -0.0035931169   0.0077957505  -0.0356931685
        0.0003786397  -0.0181505915   0.0546179033   0.0040406827  -0.0148855000
        0.0014507961   0.0011689386   0.0097788452  -0.0195318799  -0.0019951441
        0.0099316664   0.0018491443   0.0057281638   0.0426833974   0.0022560476
       -0.0527086931  -0.1930437266   0.0040406827   0.0749718903   0.0072858934
       -0.0059528816   0.0075744638   0.1331427694  -0.0021929930  -0.0355658248
        0.0080544560  -0.0496705920  -0.0079572859  -0.4170992388  -0.1586381887
        0.0386880013  -0.0527288133  -0.0148855000   0.0072858934   0.4533733057
        0.2232425720  -0.0367877417   0.0084002904  -0.0000482913  -0.0012288671
        0.0097205055  -0.3836000124  -0.0584610712  -0.2525203227  -0.0814900753
        0.0298728267   0.0322268763   0.0014507961  -0.0059528816   0.2232425720
        0.4630858141   0.0325520058  -0.0126696311   0.0005534775   0.0019891203
        0.0007651837  -0.0492650283  -0.0035354532   0.0250276732   0.0154460812
       -0.0201472887   0.0142049387   0.0011689386   0.0075744638  -0.0367877417
        0.0325520058   0.0160151843  -0.0032100539   0.0000980026   0.0000930938
        0.0078004434   0.0106441371   0.0002945326  -0.1186681332   0.0047818121
        0.0197540561  -0.9164138806   0.0097788452   0.1331427694   0.0084002904
       -0.0126696311  -0.0032100539   1.0188812800  -0.0125351633  -0.1499813041
       -0.0003912171  -0.0001656209   0.0001550849   0.0018361035   0.0087673913
       -0.0002777241   0.0111385683  -0.0195318799  -0.0021929930  -0.0000482913
        0.0005534775   0.0000980026  -0.0125351633   0.0103766320   0.0022176295
       -0.0012986830  -0.0014597072  -0.0004607839   0.0191288564  -0.0007518986
        0.0057908072   0.1333799979  -0.0019951441  -0.0355658248  -0.0012288671
        0.0019891203   0.0000930938  -0.1499813041   0.0022176295   0.0301427077
