 Entering Gaussian System
 *********************************************
 Gaussian 98:
 frequency output generated by the xtb code
 *********************************************
                         Standard orientation:
 --------------------------------------------------------------------
  Center     Atomic     Atomic              Coordinates (Angstroms)
  Number     Number      Type              X           Y           Z
 --------------------------------------------------------------------
    1          6             0        1.331193   -0.743405   -0.013407
    2          6             0        0.337722    0.116773   -0.008381
    3          6             0       -1.113291   -0.295140   -0.611987
    4          6             0       -1.088792   -0.274301    0.663531
    5          1             0        0.533166    1.196073   -0.029756
 --------------------------------------------------------------------
     1 basis functions        1 primitive gaussians
     1 alpha electrons        1 beta electrons

 Harmonic frequencies (cm**-1), IR intensities (KM/Mole),
 Raman scattering activities (A**4/amu), Raman depolarization ratios,
 reduced masses (AMU), force constants (mDyne/A) and normal coordinates:
                      1                      2                      3
                        a                      a                      a 
 Frequencies --  -300.2104               250.1859               455.8671
 Red. masses --    11.9902                10.8492                11.8130
 Frc consts  --     0.0000                 0.0000                 0.0000
 IR Inten    --     0.6434                 0.0560                 0.2819
 Raman Activ --     0.0000                 0.0000                 0.0000
 Depolar     --     0.0000                 0.0000                 0.0000
 Atom AN      X      Y      Z        X      Y      Z        X      Y      Z
   1   6    -0.00  -0.00  -0.01    -0.01  -0.01  -0.46     0.63   0.19  -0.02
   2   6    -0.01  -0.01  -0.46     0.01   0.01   0.41     0.11  -0.48   0.01
   3   6     0.56   0.16   0.23     0.30  -0.41  -0.02    -0.36   0.16   0.03
   4   6    -0.55  -0.15   0.26    -0.30   0.40  -0.02    -0.36   0.16  -0.02
   5   1    -0.00  -0.00  -0.04     0.01   0.01   0.32    -0.07  -0.11   0.00
                      4                      5                      6
                        a                      a                      a 
 Frequencies --   584.6745               676.0892              1095.7192
 Red. masses --     4.0806                11.8146                 1.9434
 Frc consts  --     0.0000                 0.0000                 0.0000
 IR Inten    --     0.0331                 0.4011                 0.0505
 Raman Activ --     0.0000                 0.0000                 0.0000
 Depolar     --     0.0000                 0.0000                 0.0000
 Atom AN      X      Y      Z        X      Y      Z        X      Y      Z
   1   6     0.00   0.00   0.17     0.06   0.12  -0.00     0.09   0.10  -0.00
   2   6    -0.01  -0.01  -0.45    -0.72  -0.40   0.02    -0.19   0.08   0.00
   3   6    -0.13  -0.08   0.02     0.34   0.16  -0.10    -0.08  -0.07  -0.01
   4   6     0.13   0.08   0.01     0.34   0.16   0.08    -0.08  -0.07   0.01
   5   1     0.02   0.01   0.85    -0.07  -0.11   0.00     0.94  -0.16  -0.02
                      7                      8                      9
                        a                      a                      a 
 Frequencies --  1445.4235              1797.2985              2782.1352
 Red. masses --    11.7043                12.0063                 1.7208
 Frc consts  --     0.0000                 0.0000                 0.0000
 IR Inten    --     0.6982                 0.1888                 0.0295
 Raman Activ --     0.0000                 0.0000                 0.0000
 Depolar     --     0.0000                 0.0000                 0.0000
 Atom AN      X      Y      Z        X      Y      Z        X      Y      Z
   1   6     0.54  -0.50  -0.00     0.10  -0.09  -0.00    -0.00   0.01  -0.00
   2   6    -0.36   0.50  -0.00    -0.18   0.07   0.00     0.04   0.25  -0.00
   3   6    -0.08  -0.02  -0.14     0.05   0.02   0.68     0.01   0.01  -0.00
   4   6    -0.07  -0.01   0.14     0.03   0.00  -0.69     0.01   0.01   0.00
   5   1    -0.11   0.12   0.00    -0.02   0.01   0.00    -0.17  -0.95   0.02
