[Molden Format]
[Title]
[Atoms] AU
C      1     6  0.25155907836917E+01 -0.14048308423290E+01 -0.25335441810603E-01
C      2     6  0.63820137398215E+00  0.22066923548864E+00 -0.15838116722528E-01
C      3     6 -0.21038144646018E+01 -0.55773356020139E+00 -0.11564876146449E+01
C      4     6 -0.20575177890992E+01 -0.51835419054188E+00  0.12538924911835E+01
H      5     1  0.10075382063012E+01  0.22602493575935E+01 -0.56231317998812E-01
[GTO]
           1 0
 s           4   1.0000000000000000     
   51.049363095579913      -0.16312063210127389     
   8.7911227406887544      -0.19911024581000730     
  0.70640422258929825       0.31882047753655751     
  0.26922813413411617       0.12706504184240380     
 p           4   1.0000000000000000     
   5.8263656140800002       0.73716451545209605     
   1.5106896018720002       0.68216371614850257     
  0.53256483288000001       0.35783053929253711     
  0.21202323690600003        5.3983030275847881E-002

           2 0
 s           4   1.0000000000000000     
   51.049363095579913      -0.16312063210127389     
   8.7911227406887544      -0.19911024581000730     
  0.70640422258929825       0.31882047753655751     
  0.26922813413411617       0.12706504184240380     
 p           4   1.0000000000000000     
   5.8263656140800002       0.73716451545209605     
   1.5106896018720002       0.68216371614850257     
  0.53256483288000001       0.35783053929253711     
  0.21202323690600003        5.3983030275847881E-002

           3 0
 s           4   1.0000000000000000     
   51.049363095579913      -0.16312063210127389     
   8.7911227406887544      -0.19911024581000730     
  0.70640422258929825       0.31882047753655751     
  0.26922813413411617       0.12706504184240380     
 p           4   1.0000000000000000     
   5.8263656140800002       0.73716451545209605     
   1.5106896018720002       0.68216371614850257     
  0.53256483288000001       0.35783053929253711     
  0.21202323690600003        5.3983030275847881E-002

           4 0
 s           4   1.0000000000000000     
   51.049363095579913      -0.16312063210127389     
   8.7911227406887544      -0.19911024581000730     
  0.70640422258929825       0.31882047753655751     
  0.26922813413411617       0.12706504184240380     
 p           4   1.0000000000000000     
   5.8263656140800002       0.73716451545209605     
   1.5106896018720002       0.68216371614850257     
  0.53256483288000001       0.35783053929253711     
  0.21202323690600003        5.3983030275847881E-002

           5 0
 s           3   1.0000000000000000     
   3.3702276975336001       0.27359110588908298     
  0.61389118221497996       0.26460540653860526     
  0.16614291148415999        8.2465947534082318E-002

[MO]
Sym=     1a
Ene=  -0.69925260805225908     
Spin= Alpha
Occup=     2.00000000
           1  0.16748899613127161     
           2  -8.5792064947233709E-002
           3   4.8787268998718089E-002
           4   8.5026861523778156E-004
           5  0.38118153643130331     
           6 -0.10326341893287057     
           7  -7.0479895971458123E-002
           8   3.1326609755333171E-003
           9  0.36495853928821975     
          10   8.4513409142795620E-002
          11   2.4815646409371631E-002
          12  0.13829988437249785     
          13  0.36496220458460282     
          14   7.9131061523498650E-002
          15   2.0234504774764649E-002
          16 -0.14217807594761378     
          17   8.2173167150228529E-002
Sym=     2a
Ene=  -0.65303436616757926     
Spin= Alpha
Occup=     2.00000000
           1  0.46488006006949267     
           2  -9.9592780420938859E-002
           3  0.12473000417097643     
           4  -1.2394966654660785E-004
           5  0.33533602908536886     
           6  0.29039234212864984     
           7  -8.1254704346392009E-002
           8  -4.2448272568808947E-003
           9 -0.25458535103246810     
          10   6.1703128096169825E-002
          11  -1.1621688836125913E-002
          12 -0.10239640385236649     
          13 -0.25457954889658002     
          14   6.5599751771325071E-002
          15  -8.3106566054211503E-003
          16  0.10028058000037539     
          17  0.10812207881747443     
Sym=     3a
Ene=  -0.58249628025962363     
Spin= Alpha
Occup=     2.00000000
           1  0.35629242425931623     
           2  -4.4784583590620639E-002
           3  -8.5275911503896365E-002
           4   2.2490495094593015E-003
           5 -0.24055222301517257     
           6   9.8104014004660678E-002
           7 -0.43350379655300131     
           8   5.1854433242259478E-003
           9  0.11311167167644777     
          10  -8.4657446785588703E-002
          11 -0.16641008787494618     
          12   5.7919694344053703E-002
          13  0.11308571690064623     
          14  -8.6721913231166931E-002
          15 -0.16816782827171772     
          16  -4.9176483035715944E-002
          17 -0.39192569879349237     
Sym=     4a
Ene=  -0.54625867182455723     
Spin= Alpha
Occup=     2.00000000
           1  -1.6984433915933128E-005
           2   3.6055743286652607E-003
           3   3.0645527502191510E-003
           4  0.18893932675002920     
           5   6.6959812273977113E-006
           6   8.3250739458550944E-003
           7   7.0795523470712921E-003
           8  0.43618879683739609     
           9 -0.45864363992440449     
          10  -7.9494479696592263E-002
          11  -2.0562068616817308E-002
          12  0.27204502673422121     
          13  0.45860686658475874     
          14   8.9951446819299910E-002
          15   2.9372549197925854E-002
          16  0.26800811824356197     
          17  -3.7118803389226604E-005
Sym=     5a
Ene=  -0.53325853332840978     
Spin= Alpha
Occup=     2.00000000
           1  0.18840221943665422     
           2  0.17118945983670000     
           3  0.12408998114902722     
           4  -5.2837047634830348E-003
           5 -0.10038014296145654     
           6  0.33182674487406694     
           7  0.23833154361683551     
           8  -1.0201290277168743E-002
           9  0.18022704705816295     
          10 -0.40704612636065785     
          11  -1.0702968661262799E-003
          12  0.10350448884608232     
          13  0.18033946919778776     
          14 -0.41070328067723855     
          15  -4.1860588879705073E-003
          16  -8.7643458598766003E-002
          17  0.19659933616003114     
Sym=     6a
Ene=  -0.46607722692141978     
Spin= Alpha
Occup=     2.00000000
           1  0.43348883006240474     
           2  0.21716824434405993     
           3 -0.23772880934430188     
           4  -2.9569407412494174E-004
           5  -9.6832544834385026E-002
           6 -0.13174382889670530     
           7  -3.3660013644096917E-002
           8   3.0686436808752787E-003
           9  -1.7060276882387461E-002
          10  -1.6789399177564265E-002
          11  0.51887144263845442     
          12  -1.6981306622007388E-002
          13  -1.7046077983833608E-002
          14  -1.6457963084949574E-002
          15  0.51916060215609527     
          16   6.7041652270016750E-004
          17 -0.12296068717234299     
Sym=     7a
Ene=  -0.45370042917391740     
Spin= Alpha
Occup=     1.99999935
           1   6.2611204483861061E-006
           2   9.4330538247212915E-003
           3   8.0159115638197553E-003
           4  0.49125001794797368     
           5  -1.7232316400476686E-006
           6   9.5359728904930111E-003
           7   8.1130259850119742E-003
           8  0.49691971046478606     
           9  0.34505470015347273     
          10 -0.20527933157233683     
          11  -4.4571242247900232E-002
          12 -0.23372656516715093     
          13 -0.34502793504790424     
          14  0.19613351265321180     
          15   3.6809239643174063E-002
          16 -0.24272540665055375     
          17  -2.5170132512544712E-006
Sym=     8a
Ene=  -0.42663789884947428     
Spin= Alpha
Occup=     1.00000065
           1 -0.42787363632714176     
           2 -0.48015069428946638     
           3  0.37668538863335821     
           4   3.0664841374380440E-003
           5  0.11174715597067801     
           6  0.15308688886883867     
           7 -0.22814471833869307     
           8   7.8587720447369192E-004
           9  -2.8505306639290377E-004
          10 -0.18325302834403212     
          11  0.30557429911575335     
          12  -8.1624946802870534E-003
          13  -2.8404382980307965E-004
          14 -0.18299469656708597     
          15  0.30578674892111896     
          16   5.2099475076933036E-003
          17 -0.24061400785987436     
Sym=     9a
Ene=  -0.39512599570059842     
Spin= Alpha
Occup=     1.00000000
           1  -1.9372517367755780E-002
           2   3.9714374042863244E-002
           3   5.5026892333320858E-002
           4  -1.6239346948792451E-003
           5  -2.7100942156347801E-003
           6   2.6356665881805984E-002
           7   8.6657685094066825E-003
           8  -6.3476764797466573E-004
           9 -0.37847119310155647     
          10   5.7874466963191741E-002
          11   2.1772110358214344E-002
          12  0.60717893507783305     
          13 -0.37847979339868187     
          14   3.4525844294890383E-002
          15   1.8991469803258739E-003
          16 -0.60934869604966635     
          17  -3.7815517469052505E-002
Sym=    10a
Ene=  -0.35304628063569921     
Spin= Alpha
Occup=     1.00000000
           1  -1.6332435360577637E-002
           2  0.59310640329750408     
           3  0.72029128149846033     
           4  -2.3142098115849139E-002
           5  -5.2988180129057622E-002
           6   3.4897317384855811E-002
           7  -4.0158237534296731E-002
           8  -1.3244374507134799E-005
           9   8.5360586138887973E-002
          10  0.20275630005355705     
          11   2.5580939770248310E-002
          12  -4.1857310730021899E-002
          13   8.5366944155232979E-002
          14  0.20418233829103133     
          15   2.6802978966877531E-002
          16   3.3190412637775543E-002
          17 -0.27640474132003112     
Sym=    11a
Ene=  -0.30789877174737029     
Spin= Alpha
Occup=     0.00000000
           1   1.5268914262284598E-006
           2  -1.5220517980585348E-002
           3  -1.2946435527807628E-002
           4 -0.79351190308527231     
           5   7.6652198537460673E-006
           6   6.9701919797513032E-003
           7   5.9345049035123441E-003
           8  0.36360020178937313     
           9   5.9551155379749268E-002
          10 -0.39400343854047010     
          11 -0.19536503431547811     
          12  -4.8332590334861730E-002
          13  -5.9570244407748482E-002
          14  0.39171728855395899     
          15  0.19343066249825752     
          16  -6.9795528213653021E-002
          17  -9.3366712107226464E-006
Sym=    12a
Ene=  -0.24333708286293862     
Spin= Alpha
Occup=     0.00000000
           1   2.0526635300663404E-006
           2   1.8568392458652293E-003
           3   1.5879866779676844E-003
           4   9.7171641505225309E-002
           5  -5.1645265204333360E-007
           6  -2.9177058353698724E-004
           7  -2.4960985525822495E-004
           8  -1.5314348107091690E-002
           9   2.4890149292983951E-003
          10  0.26974468214847003     
          11 -0.76162480028422874     
          12   5.5596434237671919E-003
          13  -2.4873788878317662E-003
          14 -0.26980726419259315     
          15  0.76156947148545218     
          16  -8.9620238080997221E-003
          17  -8.3068780955579405E-006
Sym=    13a
Ene=   -9.1745439732092593E-002
Spin= Alpha
Occup=     0.00000000
           1   6.1991264922969719E-006
           2   7.1171881312483967E-003
           3   6.0269179155289197E-003
           4  0.36787968982870140     
           5   1.3571344983533414E-004
           6  -1.4535540513813967E-002
           7  -1.2273811831612259E-002
           8 -0.75039163744450987     
           9  -7.7317219280706770E-002
          10 -0.64459856277820782     
          11 -0.19729987638814933     
          12  0.14484470913604880     
          13   7.7231961971439472E-002
          14  0.64938545634138622     
          15  0.20146529663531401     
          16  0.11352755351522978     
          17  -4.9170270848933829E-005
Sym=    14a
Ene=   -2.3208251092032780E-002
Spin= Alpha
Occup=     0.00000000
           1   1.6133774492615938E-002
           2  0.27628522482196405     
           3   5.7023371798257928E-002
           4  -6.2881164860072386E-003
           5  0.83728685425796057     
           6 -0.70692692296415460     
           7  -7.5564605007844857E-002
           8   1.4933956674841976E-002
           9 -0.25844007175719380     
          10 -0.45965491671295922     
          11 -0.14466934836865980     
          12  -7.5769227460865063E-002
          13 -0.25847143636763859     
          14 -0.45659344127977414     
          15 -0.14191491219939928     
          16   9.7966936093281234E-002
          17 -0.31233382434632295     
Sym=    15a
Ene=   0.17323083613547116     
Spin= Alpha
Occup=     0.00000000
           1   2.7147972547834343E-002
           2   8.1668496956011902E-002
           3  0.29354017929235249     
           4  -6.3629636525832072E-003
           5 -0.55013723658914426     
           6 -0.48326520398942957     
           7 -0.87728492341510567     
           8   2.3609598970627369E-002
           9 -0.11796732938296653     
          10 -0.14178950617104399     
          11   1.8197299833952005E-002
          12  -2.2005745916552452E-002
          13 -0.11796603731814349     
          14 -0.14087711332485375     
          15   1.8998071280605780E-002
          16   2.6806915180470191E-002
          17   1.0595872187925530     
Sym=    16a
Ene=   0.53644590427030003     
Spin= Alpha
Occup=     0.00000000
           1  0.80939826461527031     
           2 -0.73702736207817787     
           3  0.62762476194261052     
           4   3.9004520160362856E-003
           5 -0.63715297180638120     
           6 -0.76739900112858217     
           7  0.75348879022622250     
           8   2.4272656237429298E-003
           9  -4.9899458011606765E-002
          10  -2.0567280525522095E-002
          11  -8.6564988562894352E-002
          12  -1.3316385362342467E-002
          13  -4.9857002759316836E-002
          14  -1.9991102272424094E-002
          15  -8.6084833822019785E-002
          16   1.6858917981644433E-002
          17 -0.19923976568864685     
Sym=    17a
Ene=   0.63613936276269034     
Spin= Alpha
Occup=     0.00000000
           1   2.3308897101986035E-005
           2  -6.6622324200389508E-004
           3  -5.3205587178975673E-004
           4  -3.3836645870378684E-002
           5  -6.2644702818989391E-006
           6   2.2026423501414062E-003
           7   1.9208422220213187E-003
           8  0.11688453412873193     
           9  0.86878622264331107     
          10   5.4511780615564408E-002
          11   2.6167955604917578E-002
          12  0.99012831537227186     
          13 -0.86880124946904247     
          14  -1.6460979930465185E-002
          15   6.2032785697257878E-003
          16  0.99181976267556460     
          17  -2.0233039941711003E-006
