5
 energy: -8.571297788767 gnorm: 0.000459678127 xtb: 6.2.2 (9d81278992624c895f80dd42a50cac0aa55982e2)
C         1.33119343819521   -0.74340453590713   -0.01340693967822
C         0.33772165441211    0.11677314140217   -0.00838117121079
C        -1.11329077392633   -0.29513991719742   -0.61198694714174
C        -1.08879162603679   -0.27430125026047    0.66353139281904
H         0.53316630735580    1.19607256196808   -0.02975633478480
