$hessian                                                                        
        0.3357382457  -0.2531382394  -0.0021253470  -0.2243475681   0.2321926191
        0.0001846111  -0.0527525753   0.0017738144   0.0281508660  -0.0535177146
        0.0008320779  -0.0261326131  -0.0051203876   0.0183397280  -0.0000775170
       -0.2531382394   0.2620543548   0.0007680607   0.1716620420  -0.2459533349
        0.0004363065   0.0262640451   0.0091843743  -0.0293421617   0.0276311312
        0.0099801349   0.0280173908   0.0275810211  -0.0352655291   0.0001204038
       -0.0021253470   0.0007680607   0.0106218996   0.0011731273  -0.0007405092
       -0.0174076335  -0.0066803193   0.0030365296   0.0008445652   0.0078778679
       -0.0033762435   0.0007070525  -0.0002453289   0.0003121623   0.0052341162
       -0.2243475681   0.1716620420   0.0011731273   0.3036418543  -0.1064129240
       -0.0035769713  -0.0309745915  -0.0128505812  -0.1141125811  -0.0275070058
       -0.0093005107   0.1157429657  -0.0208126889  -0.0430980261   0.0007734594
        0.2321926191  -0.2459533349  -0.0007405092  -0.1064129240   0.5198320005
       -0.0060033102  -0.0400497673  -0.0250998803   0.0062579736  -0.0410589831
       -0.0253791108  -0.0037579539  -0.0446709447  -0.2233996746   0.0042437996
        0.0001846111   0.0004363065  -0.0174076335  -0.0035769713  -0.0060033102
        0.0272880607   0.0246749410   0.0047478048   0.0048252347  -0.0221067851
       -0.0033957660   0.0016009648   0.0008242044   0.0042149649  -0.0163066267
       -0.0527525753   0.0262640451  -0.0066803193  -0.0309745915  -0.0400497673
        0.0246749410   0.0417941015   0.0064834026   0.0513567300   0.0543728548
        0.0151923338  -0.0656909646  -0.0124397894  -0.0078900143  -0.0036603871
        0.0017738144   0.0091843743   0.0030365296  -0.0128505812  -0.0250998803
        0.0047478048   0.0064834026   0.0159433759   0.0210602905   0.0163622191
        0.0057228920  -0.0249715307  -0.0117688550  -0.0057507620  -0.0038730942
        0.0281508660  -0.0293421617   0.0008445652  -0.1141125811   0.0062579736
        0.0048252347   0.0513567300   0.0210602905   0.7076363768   0.0356582132
        0.0007011425  -0.7140771015  -0.0010532280   0.0013227551   0.0007709247
       -0.0535177146   0.0276311312   0.0078778679  -0.0275070058  -0.0410589831
       -0.0221067851   0.0543728548   0.0163622191   0.0356582132   0.0388480541
        0.0048419401  -0.0258420401  -0.0121961885  -0.0077763074   0.0044127442
        0.0008320779   0.0099801349  -0.0033762435  -0.0093005107  -0.0253791108
       -0.0033957660   0.0151923338   0.0057228920   0.0007011425   0.0048419401
        0.0153224405   0.0015343983  -0.0115658412  -0.0056463566   0.0045364686
       -0.0261326131   0.0280173908   0.0007070525   0.1157429657  -0.0037579539
        0.0016009648  -0.0656909646  -0.0249715307  -0.7140771015  -0.0258420401
        0.0015343983   0.7112210064   0.0019226521  -0.0008223045   0.0005480777
       -0.0051203876   0.0275810211  -0.0002453289  -0.0208126889  -0.0446709447
        0.0008242044  -0.0124397894  -0.0117688550  -0.0010532280  -0.0121961885
       -0.0115658412   0.0019226521   0.0505690544   0.0404246197  -0.0014482995
        0.0183397280  -0.0352655291   0.0003121623  -0.0430980261  -0.2233996746
        0.0042149649  -0.0078900143  -0.0057507620   0.0013227551  -0.0077763074
       -0.0056463566  -0.0008223045   0.0404246197   0.2700623223  -0.0050275778
       -0.0000775170   0.0001204038   0.0052341162   0.0007734594   0.0042437996
       -0.0163066267  -0.0036603871  -0.0038730942   0.0007709247   0.0044127442
        0.0045364686   0.0005480777  -0.0014482995  -0.0050275778   0.0097535080
