      -----------------------------------------------------------      
     |                   =====================                   |     
     |                           x T B                           |     
     |                   =====================                   |     
     |                         S. Grimme                         |     
     |          Mulliken Center for Theoretical Chemistry        |     
     |                    University of Bonn                     |     
      -----------------------------------------------------------      

   * xtb version 6.2.2 (9d81278992624c895f80dd42a50cac0aa55982e2) compiled by '@Darwin' on 04/03/2020

   xtb is free software: you can redistribute it and/or modify it under
   the terms of the GNU Lesser General Public License as published by
   the Free Software Foundation, either version 3 of the License, or
   (at your option) any later version.
   
   xtb is distributed in the hope that it will be useful,
   but WITHOUT ANY WARRANTY; without even the implied warranty of
   MERCHANTABILITY or FITNESS FOR A PARTICULAR PURPOSE.  See the
   GNU Lesser General Public License for more details.
   
   Cite this work as:
   * S. Grimme, C. Bannwarth, P. Shushkov, J. Chem. Theory Comput., 2017,
     13, 1989-2009. DOI: 10.1021/acs.jctc.7b00118
   * C. Bannwarth, S. Ehlert and S. Grimme., J. Chem. Theory Comput., 2019,
     15, 1652-1671. DOI: 10.1021/acs.jctc.8b01176
   * P. Pracht, E. Caldeweyher, S. Ehlert, S. Grimme, ChemRxiv, 2019, preprint.
     DOI: 10.26434/chemrxiv.8326202.v1
   
   for DFT-D4:
   * E. Caldeweyher, C. Bannwarth and S. Grimme, J. Chem. Phys., 2017,
     147, 034112. DOI: 10.1063/1.4993215
   * E. Caldeweyher, S. Ehlert, A. Hansen, H. Neugebauer, S. Spicher,
     C. Bannwarth and S. Grimme, J. Chem. Phys., 2019, 150, 154122.
     DOI: 10.1063/1.5090222
   
   for sTDA-xTB:
   * S. Grimme and C. Bannwarth, J. Chem. Phys., 2016, 145, 054103.
     DOI: 10.1063/1.4959605
   
   in the mass-spec context:
   * V. Asgeirsson, C. Bauer and S. Grimme, Chem. Sci., 2017, 8, 4879.
     DOI: 10.1039/c7sc00601b
   
   for metadynamics refer to:
   * S. Grimme, J. Chem. Theory Comput., 2019, 155, 2847-2862
     DOI: 10.1021/acs.jctc.9b00143
   
   with help from (in alphabetical order)
   C. Bannwarth, F. Bohle, G. Brandenburg, E. Caldeweyher, M. Checinski,
   S. Dohm, S. Ehlert, S. Ehrlich, F. März, H. Neugebauer, J. Pisarek,
   P. Pracht, P. Shushkov, and S. Spicher.
   
 * started run on 2020/05/12 at 11:44:56.408     

           -------------------------------------------------
          |                Calculation Setup                |
           -------------------------------------------------

          program call               : xtb --input H1C3N1_16_S_0.input H1C3N1_16_S_0.xyz --ohess --molden --namespace H1C3N1_16_S_0 output.out
          calculation namespace      : H1C3N1_16_S_0
          coordinate file            : H1C3N1_16_S_0.xyz
          number of atoms            :                     5
          number of electrons        :                    18
          charge                     :                     0
          spin                       :                   0.0
          first test random number   :      0.45815894751806

   ID    Z sym.   atoms
    1    6 C      1-3
    2    7 N      4
    3    1 H      5

           -------------------------------------------------
          |                 G F N 2 - x T B                 |
           -------------------------------------------------

        Reference                      10.1021/acs.jctc.8b01176
      * Hamiltonian:
        H0-scaling (s, p, d)           1.850000    2.230000    2.230000
        zeta-weighting                 0.500000
      * Dispersion:
        s8                             2.700000
        a1                             0.520000
        a2                             5.000000
        s9                             5.000000
      * Repulsion:
        kExp                           1.500000    1.000000
        rExp                           1.000000
      * Coulomb:
        alpha                          2.000000
        third order                    shell-resolved
        anisotropic                    true
        a3                             3.000000
        a5                             4.000000
        cn-shift                       1.200000
        cn-exp                         4.000000
        max-rad                        5.000000


          ...................................................
          :                      SETUP                      :
          :.................................................:
          :  # basis functions                  17          :
          :  # atomic orbitals                  17          :
          :  # shells                            9          :
          :  # electrons                        18          :
          :  max. iterations                   250          :
          :  Hamiltonian                  GFN2-xTB          :
          :  restarted?                      false          :
          :  GBSA solvation                  false          :
          :  PC potential                    false          :
          :  electronic temp.          300.0000000     K    :
          :  accuracy                    1.0000000          :
          :  -> integral cutoff          0.2500000E+02      :
          :  -> integral neglect         0.1000000E-07      :
          :  -> SCF convergence          0.1000000E-05 Eh   :
          :  -> wf. convergence          0.1000000E-03 e    :
          :  Broyden damping             0.4000000          :
          ...................................................

 iter      E             dE          RMSdq      gap      omega  full diag
   1     -9.4275171 -0.942752E+01  0.107E+01    1.26       0.0  T
   2     -8.4496267  0.977890E+00  0.110E+01    0.97       1.0  T
   3     -7.6007929  0.848834E+00  0.135E+01    1.55       1.0  T
   4     -9.3266787 -0.172589E+01  0.768E+00    1.63       1.0  T
   5     -9.4787605 -0.152082E+00  0.399E+00    1.16       1.0  T
   6     -9.5124251 -0.336645E-01  0.207E+00    1.02       1.0  T
   7     -9.5086123  0.381277E-02  0.188E+00    1.08       1.0  T
   8     -9.5183355 -0.972316E-02  0.299E-01    0.97       1.0  T
   9     -9.5185152 -0.179712E-03  0.267E-01    0.97       1.0  T
  10     -9.5187801 -0.264928E-03  0.661E-02    0.95       1.0  T
  11     -9.5187917 -0.116384E-04  0.925E-03    0.95       4.8  T
  12     -9.5187915  0.216971E-06  0.791E-03    0.95       5.7  T
  13     -9.5187919 -0.382990E-06  0.363E-03    0.95      12.3  T
  14     -9.5187919 -0.286358E-07  0.729E-04    0.95      61.4  T
  15     -9.5187919 -0.337899E-10  0.161E-04    0.95     277.9  T

   *** convergence criteria satisfied after 15 iterations ***

         #    Occupation            Energy/Eh            Energy/eV
      -------------------------------------------------------------
         1        2.0000           -0.7300254             -19.8650
       ...           ...                  ...                  ...
         3        2.0000           -0.6164822             -16.7753
         4        2.0000           -0.5754515             -15.6588
         5        2.0000           -0.5615996             -15.2819
         6        2.0000           -0.4957619             -13.4904
         7        2.0000           -0.4805308             -13.0759
         8        2.0000           -0.4616648             -12.5625
         9        2.0000           -0.4201922             -11.4340 (HOMO)
        10                         -0.3853074             -10.4847 (LUMO)
        11                         -0.3579904              -9.7414
        12                         -0.3417598              -9.2998
        13                         -0.1179850              -3.2105
        14                          0.0127987               0.3483
       ...                                ...                  ...
        17                          0.2191409               5.9631
      -------------------------------------------------------------
                  HL-Gap            0.0348848 Eh            0.9493 eV
             Fermi-level           -0.4027498 Eh          -10.9594 eV

 SCC (total)                   0 d,  0 h,  0 min,  0.004 sec
 SCC setup                      ...        0 min,  0.000 sec (  2.119%)
 Dispersion                     ...        0 min,  0.000 sec (  0.385%)
 integral evaluation            ...        0 min,  0.001 sec ( 25.692%)
 zeroth order Hamiltonian       ...        0 min,  0.000 sec (  0.464%)
 iterations                     ...        0 min,  0.001 sec ( 37.728%)
 molecular gradient             ...        0 min,  0.001 sec ( 31.072%)
 printout                       ...        0 min,  0.000 sec (  2.253%)

         :::::::::::::::::::::::::::::::::::::::::::::::::::::
         ::                     SUMMARY                     ::
         :::::::::::::::::::::::::::::::::::::::::::::::::::::
         :: total energy              -9.448643956363 Eh    ::
         :: gradient norm              0.232822850159 Eh/a0 ::
         :: HOMO-LUMO gap              0.949264795329 eV    ::
         ::.................................................::
         :: SCC energy                -9.518791941871 Eh    ::
         :: -> isotropic ES           -0.020666058281 Eh    ::
         :: -> anisotropic ES          0.002766345522 Eh    ::
         :: -> anisotropic XC          0.010102475133 Eh    ::
         :: -> dispersion             -0.002187861506 Eh    ::
         :: repulsion energy           0.070147950358 Eh    ::
         :: add. restraining           0.000000000000 Eh    ::
         :::::::::::::::::::::::::::::::::::::::::::::::::::::

      ----------------------------------------------------------- 
     |                   =====================                   |
     |                        A N C O P T                        |
     |                   =====================                   |
     |               Approximate Normal Coordinate               |
     |                Rational Function Optimizer                |
      ----------------------------------------------------------- 

          ...................................................
          :                      SETUP                      :
          :.................................................:
          :   optimization level            normal          :
          :   max. optcycles                   200          :
          :   ANC micro-cycles                  20          :
          :   degrees of freedom                 9          :
          :.................................................:
          :   RF solver                   davidson          :
          :   write xtbopt.log                true          :
          :   linear?                        false          :
          :   energy convergence         0.5000000E-05 Eh   :
          :   grad. convergence          0.1000000E-02 Eh/α :
          :   maximium RF displ.         1.0000000          :
          :   Hlow (freq-cutoff)         0.1000000E-01      :
          :   Hmax (freq-cutoff)         5.0000000          :
          :   S6 in model hess.         20.0000000          :
          ...................................................

generating ANC from model Hessian ...
Using Lindh-Hessian (1995)
 Shifting diagonal of input Hessian by    0.0000000000000000     
 Lowest  eigenvalues of input Hessian
   -0.000000   -0.000000   -0.000000    0.000000    0.000000    0.000000
    0.041774    0.082250    0.128300    0.174743    0.720842    0.829426
    0.926349    1.056059    1.513753
 Highest eigenvalues
    0.174743    0.720842    0.829426    0.926349    1.056059    1.513753


........................................................................
.............................. CYCLE    1 ..............................
........................................................................
   1     -9.5187919 -0.951879E+01  0.530E-05    0.95       0.0  T
   2     -9.5187919  0.392406E-09  0.210E-04    0.95     212.6  T
   3     -9.5187919 -0.407596E-09  0.205E-05    0.95    2183.4  T
     SCC iter.                  ...        0 min,  0.000 sec
     gradient                   ...        0 min,  0.001 sec
 * total energy  :    -9.4486440 Eh     change        0.3163638E-09 Eh
   gradient norm :     0.2328244 Eh/α   predicted     0.0000000E+00 (-100.00%)
   displ. norm   :     0.3509347 α      lambda       -0.6618907E-01
   maximum displ.:     0.1988558 α      in ANC's #7, #2, #5, ...

........................................................................
.............................. CYCLE    2 ..............................
........................................................................
   1     -9.5586588 -0.955866E+01  0.335E+00    1.55       0.0  T
   2     -9.1290969  0.429562E+00  0.697E+00    1.40       1.0  T
   3     -9.5864749 -0.457378E+00  0.210E+00    1.70       1.0  T
   4     -9.5984937 -0.120187E-01  0.136E+00    1.56       1.0  T
   5     -9.6047827 -0.628898E-02  0.573E-01    1.61       1.0  T
   6     -9.6064863 -0.170362E-02  0.185E-01    1.60       1.0  T
   7     -9.6065226 -0.362949E-04  0.519E-02    1.58       1.0  T
   8     -9.6065319 -0.926578E-05  0.424E-02    1.59       1.1  T
   9     -9.6065365 -0.463460E-05  0.136E-02    1.58       3.3  T
  10     -9.6065368 -0.271426E-06  0.114E-03    1.58      39.3  T
  11     -9.6065368 -0.315438E-08  0.583E-04    1.58      76.7  T
  12     -9.6065368 -0.596401E-09  0.185E-04    1.58     241.9  T
     SCC iter.                  ...        0 min,  0.001 sec
     gradient                   ...        0 min,  0.001 sec
 * total energy  :    -9.5037313 Eh     change       -0.5508737E-01 Eh
   gradient norm :     0.1498726 Eh/α   predicted    -0.3717030E-01 ( -32.52%)
   displ. norm   :     0.4562136 α      lambda       -0.6104915E-01
   maximum displ.:     0.3144136 α      in ANC's #7, #3, #5, ...

........................................................................
.............................. CYCLE    3 ..............................
........................................................................
   1     -9.6697825 -0.966978E+01  0.418E+00    2.58       0.0  T
   2     -9.2814319  0.388351E+00  0.670E+00    0.82       1.0  T
   3     -9.6854230 -0.403991E+00  0.292E+00    2.70       1.0  T
   4     -9.7152806 -0.298576E-01  0.182E+00    2.22       1.0  T
   5     -9.7250145 -0.973396E-02  0.103E+00    2.09       1.0  T
   6     -9.7290337 -0.401913E-02  0.506E-01    1.94       1.0  T
   7     -9.7295921 -0.558484E-03  0.227E-01    1.76       1.0  T
   8     -9.7298699 -0.277806E-03  0.258E-02    1.83       1.7  T
   9     -9.7298707 -0.754386E-06  0.191E-02    1.82       2.3  T
  10     -9.7298716 -0.948824E-06  0.435E-03    1.82      10.3  T
  11     -9.7298717 -0.580678E-07  0.121E-03    1.82      36.9  T
  12     -9.7298717 -0.208221E-08  0.122E-04    1.82     367.2  T
  13     -9.7298717 -0.199378E-10  0.496E-05    1.82     902.1  T
     SCC iter.                  ...        0 min,  0.001 sec
     gradient                   ...        0 min,  0.001 sec
 * total energy  :    -9.5224034 Eh     change       -0.1867202E-01 Eh
   gradient norm :     0.2542762 Eh/α   predicted    -0.3687770E-01 (  97.50%)
   displ. norm   :     0.4571554 α      lambda       -0.5459768E-01
   maximum displ.:     0.3190261 α      in ANC's #2, #3, #1, ...

........................................................................
.............................. CYCLE    4 ..............................
........................................................................
   1     -9.6764433 -0.967644E+01  0.194E+00    2.23       0.0  T
   2     -9.6638874  0.125559E-01  0.170E+00    2.44       1.0  T
   3     -9.6690651 -0.517768E-02  0.161E+00    2.03       1.0  T
   4     -9.6818665 -0.128014E-01  0.447E-01    2.33       1.0  T
   5     -9.6822679 -0.401422E-03  0.933E-02    2.28       1.0  T
   6     -9.6822840 -0.160879E-04  0.435E-02    2.29       1.0  T
   7     -9.6822896 -0.557489E-05  0.190E-02    2.29       2.4  T
   8     -9.6822917 -0.211908E-05  0.531E-03    2.29       8.4  T
   9     -9.6822918 -0.385833E-07  0.103E-03    2.29      43.4  T
  10     -9.6822918 -0.441880E-08  0.307E-04    2.29     145.7  T
  11     -9.6822918 -0.354365E-09  0.690E-05    2.29     647.7  T
     SCC iter.                  ...        0 min,  0.001 sec
     gradient                   ...        0 min,  0.001 sec
 * total energy  :    -9.5447915 Eh     change       -0.2238817E-01 Eh
   gradient norm :     0.0757355 Eh/α   predicted    -0.3300405E-01 (  47.42%)
   displ. norm   :     0.1854236 α      lambda       -0.6882158E-02
   maximum displ.:     0.1473425 α      in ANC's #1, #4, #7, ...

........................................................................
.............................. CYCLE    5 ..............................
........................................................................
   1     -9.6969495 -0.969695E+01  0.962E-01    2.44       0.0  T
   2     -9.6882502  0.869935E-02  0.128E+00    2.05       1.0  T
   3     -9.6994377 -0.111875E-01  0.437E-01    2.36       1.0  T
   4     -9.6999920 -0.554356E-03  0.178E-01    2.30       1.0  T
   5     -9.7000613 -0.692910E-04  0.454E-02    2.32       1.0  T
   6     -9.7000699 -0.859329E-05  0.234E-02    2.31       1.9  T
   7     -9.7000708 -0.882996E-06  0.649E-03    2.31       6.9  T
   8     -9.7000709 -0.130223E-06  0.164E-03    2.31      27.2  T
   9     -9.7000709 -0.455086E-08  0.173E-04    2.31     258.9  T
  10     -9.7000709 -0.389058E-10  0.547E-05    2.31     817.7  T
     SCC iter.                  ...        0 min,  0.001 sec
     gradient                   ...        0 min,  0.001 sec
 * total energy  :    -9.5502473 Eh     change       -0.5455779E-02 Eh
   gradient norm :     0.0500917 Eh/α   predicted    -0.3559388E-02 ( -34.76%)
   displ. norm   :     0.2932065 α      lambda       -0.9952712E-02
   maximum displ.:     0.1684204 α      in ANC's #4, #6, #1, ...

........................................................................
.............................. CYCLE    6 ..............................
........................................................................
   1     -9.7209370 -0.972094E+01  0.151E+00    2.68       0.0  T
   2     -9.7124242  0.851271E-02  0.150E+00    2.14       1.0  T
   3     -9.7238535 -0.114293E-01  0.771E-01    2.58       1.0  T
   4     -9.7256791 -0.182553E-02  0.227E-01    2.47       1.0  T
   5     -9.7258163 -0.137252E-03  0.707E-02    2.49       1.0  T
   6     -9.7258308 -0.145212E-04  0.383E-02    2.48       1.2  T
   7     -9.7258331 -0.226877E-05  0.672E-03    2.48       6.7  T
   8     -9.7258332 -0.118629E-06  0.269E-03    2.48      16.6  T
   9     -9.7258332 -0.112655E-07  0.434E-04    2.48     103.1  T
  10     -9.7258332 -0.200259E-09  0.781E-05    2.48     572.6  T
     SCC iter.                  ...        0 min,  0.001 sec
     gradient                   ...        0 min,  0.001 sec
 * total energy  :    -9.5569918 Eh     change       -0.6744518E-02 Eh
   gradient norm :     0.0410584 Eh/α   predicted    -0.5404176E-02 ( -19.87%)
   displ. norm   :     0.2278824 α      lambda       -0.4519275E-02
   maximum displ.:     0.1234329 α      in ANC's #1, #6, #4, ...

........................................................................
.............................. CYCLE    7 ..............................
........................................................................
   1     -9.7287047 -0.972870E+01  0.970E-01    2.67       0.0  T
   2     -9.7279579  0.746816E-03  0.704E-01    2.47       1.0  T
   3     -9.7277430  0.214920E-03  0.610E-01    2.67       1.0  T
   4     -9.7294297 -0.168671E-02  0.155E-01    2.57       1.0  T
   5     -9.7295254 -0.956890E-04  0.388E-02    2.58       1.2  T
   6     -9.7295286 -0.318912E-05  0.206E-02    2.58       2.2  T
   7     -9.7295292 -0.555211E-06  0.283E-03    2.58      15.8  T
   8     -9.7295292 -0.342082E-07  0.815E-04    2.58      54.9  T
   9     -9.7295292 -0.115614E-09  0.129E-04    2.58     345.5  T
     SCC iter.                  ...        0 min,  0.001 sec
     gradient                   ...        0 min,  0.001 sec
 * total energy  :    -9.5602954 Eh     change       -0.3303611E-02 Eh
   gradient norm :     0.0333224 Eh/α   predicted    -0.2376976E-02 ( -28.05%)
   displ. norm   :     0.2366512 α      lambda       -0.4688064E-02
   maximum displ.:     0.1609641 α      in ANC's #6, #1, #8, ...

........................................................................
.............................. CYCLE    8 ..............................
........................................................................
   1     -9.7415108 -0.974151E+01  0.108E+00    2.60       0.0  T
   2     -9.7407808  0.729932E-03  0.764E-01    2.46       1.0  T
   3     -9.7406839  0.969145E-04  0.625E-01    2.61       1.0  T
   4     -9.7422139 -0.152999E-02  0.154E-01    2.51       1.0  T
   5     -9.7423510 -0.137099E-03  0.334E-02    2.54       1.3  T
   6     -9.7423520 -0.967063E-06  0.138E-02    2.54       3.2  T
   7     -9.7423521 -0.126288E-06  0.367E-03    2.54      12.2  T
   8     -9.7423522 -0.548825E-07  0.106E-03    2.54      42.1  T
   9     -9.7423522 -0.663125E-09  0.187E-04    2.54     239.1  T
  10     -9.7423522 -0.530083E-10  0.458E-05    2.54     977.1  T
     SCC iter.                  ...        0 min,  0.001 sec
     gradient                   ...        0 min,  0.001 sec
 * total energy  :    -9.5624710 Eh     change       -0.2175573E-02 Eh
   gradient norm :     0.0434496 Eh/α   predicted    -0.2475304E-02 (  13.78%)
   displ. norm   :     0.2049527 α      lambda       -0.2410694E-02
   maximum displ.:     0.1424844 α      in ANC's #1, #6, #2, ...

........................................................................
.............................. CYCLE    9 ..............................
........................................................................
   1     -9.7278291 -0.972783E+01  0.923E-01    2.56       0.0  T
   2     -9.7280696 -0.240509E-03  0.507E-01    2.54       1.0  T
   3     -9.7274386  0.630988E-03  0.457E-01    2.51       1.0  T
   4     -9.7281316 -0.692961E-03  0.194E-01    2.54       1.0  T
   5     -9.7283523 -0.220700E-03  0.567E-02    2.54       1.0  T
   6     -9.7283618 -0.956985E-05  0.263E-02    2.53       1.7  T
   7     -9.7283632 -0.135025E-05  0.243E-03    2.53      18.4  T
   8     -9.7283632  0.947349E-08  0.197E-03    2.53      22.7  T
   9     -9.7283632 -0.110728E-07  0.189E-04    2.53     236.7  T
  10     -9.7283632 -0.116387E-10  0.402E-05    2.53    1112.0  T
     SCC iter.                  ...        0 min,  0.001 sec
     gradient                   ...        0 min,  0.001 sec
 * total energy  :    -9.5626549 Eh     change       -0.1838964E-03 Eh
   gradient norm :     0.0305921 Eh/α   predicted    -0.1255978E-02 ( 582.98%)
   displ. norm   :     0.1178844 α      lambda       -0.1367763E-02
   maximum displ.:     0.0841366 α      in ANC's #1, #6, #3, ...

........................................................................
.............................. CYCLE   10 ..............................
........................................................................
   1     -9.7370856 -0.973709E+01  0.478E-01    2.57       0.0  T
   2     -9.7371103 -0.246123E-04  0.271E-01    2.58       1.0  T
   3     -9.7368400  0.270305E-03  0.247E-01    2.60       1.0  T
   4     -9.7371326 -0.292614E-03  0.734E-02    2.57       1.0  T
   5     -9.7371620 -0.294277E-04  0.203E-02    2.58       2.2  T
   6     -9.7371625 -0.499751E-06  0.122E-02    2.58       3.7  T
   7     -9.7371628 -0.347685E-06  0.203E-03    2.58      22.0  T
   8     -9.7371629 -0.115485E-07  0.515E-04    2.58      86.9  T
   9     -9.7371629 -0.102968E-09  0.113E-04    2.58     397.0  T
     SCC iter.                  ...        0 min,  0.001 sec
     gradient                   ...        0 min,  0.001 sec
 * total energy  :    -9.5633381 Eh     change       -0.6832478E-03 Eh
   gradient norm :     0.0115404 Eh/α   predicted    -0.6933845E-03 (   1.48%)
   displ. norm   :     0.0333616 α      lambda       -0.2609352E-03
   maximum displ.:     0.0196809 α      in ANC's #4, #3, #5, ...

........................................................................
.............................. CYCLE   11 ..............................
........................................................................
   1     -9.7366167 -0.973662E+01  0.126E-01    2.59       0.0  T
   2     -9.7366045  0.122072E-04  0.900E-02    2.58       1.0  T
   3     -9.7366040  0.530360E-06  0.789E-02    2.60       1.0  T
   4     -9.7366281 -0.241368E-04  0.204E-02    2.59       2.2  T
   5     -9.7366298 -0.171722E-05  0.542E-03    2.59       8.2  T
   6     -9.7366299 -0.485538E-07  0.302E-03    2.59      14.8  T
   7     -9.7366299 -0.130666E-07  0.411E-04    2.59     108.8  T
   8     -9.7366299 -0.205304E-09  0.131E-04    2.59     341.4  T
     SCC iter.                  ...        0 min,  0.001 sec
     gradient                   ...        0 min,  0.001 sec
 * total energy  :    -9.5635131 Eh     change       -0.1749104E-03 Eh
   gradient norm :     0.0137164 Eh/α   predicted    -0.1306141E-03 ( -25.33%)
   displ. norm   :     0.0635196 α      lambda       -0.4853474E-03
   maximum displ.:     0.0427014 α      in ANC's #5, #1, #6, ...

........................................................................
.............................. CYCLE   12 ..............................
........................................................................
   1     -9.7366818 -0.973668E+01  0.247E-01    2.66       0.0  T
   2     -9.7366906 -0.872067E-05  0.139E-01    2.64       1.0  T
   3     -9.7366246  0.659181E-04  0.118E-01    2.66       1.0  T
   4     -9.7366942 -0.695317E-04  0.363E-02    2.64       1.2  T
   5     -9.7367002 -0.606848E-05  0.954E-03    2.65       4.7  T
   6     -9.7367003 -0.178399E-07  0.689E-03    2.65       6.5  T
   7     -9.7367004 -0.129837E-06  0.594E-04    2.65      75.2  T
   8     -9.7367004 -0.408869E-09  0.183E-04    2.65     245.0  T
     SCC iter.                  ...        0 min,  0.001 sec
     gradient                   ...        0 min,  0.001 sec
 * total energy  :    -9.5639002 Eh     change       -0.3871805E-03 Eh
   gradient norm :     0.0134440 Eh/α   predicted    -0.2436549E-03 ( -37.07%)
   displ. norm   :     0.1010275 α      lambda       -0.5800584E-03
   maximum displ.:     0.0734716 α      in ANC's #5, #1, #6, ...

........................................................................
.............................. CYCLE   13 ..............................
........................................................................
   1     -9.7353642 -0.973536E+01  0.397E-01    2.74       0.0  T
   2     -9.7354115 -0.472719E-04  0.223E-01    2.73       1.0  T
   3     -9.7353837  0.277199E-04  0.116E-01    2.73       1.0  T
   4     -9.7353791  0.468551E-05  0.817E-02    2.74       1.0  T
   5     -9.7354216 -0.425849E-04  0.172E-02    2.73       2.6  T
   6     -9.7354221 -0.454559E-06  0.938E-03    2.73       4.8  T
   7     -9.7354223 -0.167843E-06  0.593E-04    2.73      75.4  T
   8     -9.7354223 -0.169749E-10  0.300E-04    2.73     149.2  T
     SCC iter.                  ...        0 min,  0.001 sec
     gradient                   ...        0 min,  0.001 sec
 * total energy  :    -9.5641907 Eh     change       -0.2905077E-03 Eh
   gradient norm :     0.0043940 Eh/α   predicted    -0.2929897E-03 (   0.85%)
   displ. norm   :     0.0110103 α      lambda       -0.2623299E-04
   maximum displ.:     0.0056320 α      in ANC's #3, #7, #8, ...

........................................................................
.............................. CYCLE   14 ..............................
........................................................................
   1     -9.7363312 -0.973633E+01  0.438E-02    2.74       0.0  T
   2     -9.7363313 -0.130674E-06  0.267E-02    2.74       1.7  T
   3     -9.7363303  0.981415E-06  0.187E-02    2.73       2.4  T
   4     -9.7363318 -0.144096E-05  0.236E-03    2.74      19.0  T
   5     -9.7363318  0.973995E-08  0.203E-03    2.74      22.0  T
   6     -9.7363318 -0.198928E-07  0.414E-04    2.74     107.9  T
   7     -9.7363318 -0.423565E-09  0.128E-04    2.74     349.4  T
     SCC iter.                  ...        0 min,  0.001 sec
     gradient                   ...        0 min,  0.001 sec
 * total energy  :    -9.5642096 Eh     change       -0.1884869E-04 Eh
   gradient norm :     0.0030582 Eh/α   predicted    -0.1311697E-04 ( -30.41%)
   displ. norm   :     0.0147654 α      lambda       -0.2157662E-04
   maximum displ.:     0.0091446 α      in ANC's #2, #8, #4, ...

........................................................................
.............................. CYCLE   15 ..............................
........................................................................
   1     -9.7365688 -0.973657E+01  0.566E-02    2.73       0.0  T
   2     -9.7365686  0.228019E-06  0.321E-02    2.74       1.4  T
   3     -9.7365627  0.582932E-05  0.364E-02    2.73       1.2  T
   4     -9.7365702 -0.750331E-05  0.513E-03    2.74       8.7  T
   5     -9.7365703 -0.520309E-07  0.195E-03    2.74      22.9  T
   6     -9.7365703 -0.497675E-08  0.137E-03    2.74      32.7  T
   7     -9.7365703 -0.362584E-08  0.124E-04    2.74     361.9  T
   8     -9.7365703 -0.227196E-11  0.336E-05    2.74    1332.5  T
     SCC iter.                  ...        0 min,  0.001 sec
     gradient                   ...        0 min,  0.001 sec
 * total energy  :    -9.5642241 Eh     change       -0.1445823E-04 Eh
   gradient norm :     0.0016270 Eh/α   predicted    -0.1078978E-04 ( -25.37%)
   displ. norm   :     0.0154569 α      lambda       -0.9636031E-05
   maximum displ.:     0.0095615 α      in ANC's #2, #8, #4, ...

........................................................................
.............................. CYCLE   16 ..............................
........................................................................
   1     -9.7364072 -0.973641E+01  0.712E-02    2.74       0.0  T
   2     -9.7364077 -0.465769E-06  0.389E-02    2.74       1.1  T
   3     -9.7364031  0.460745E-05  0.401E-02    2.74       1.1  T
   4     -9.7364102 -0.712001E-05  0.108E-02    2.74       4.2  T
   5     -9.7364106 -0.404774E-06  0.395E-03    2.74      11.3  T
   6     -9.7364107 -0.621408E-07  0.149E-03    2.74      30.0  T
   7     -9.7364107 -0.129447E-08  0.140E-04    2.74     318.7  T
   8     -9.7364107 -0.544276E-11  0.553E-05    2.74     808.1  T
     SCC iter.                  ...        0 min,  0.001 sec
     gradient                   ...        0 min,  0.001 sec
 * total energy  :    -9.5642315 Eh     change       -0.7465563E-05 Eh
   gradient norm :     0.0009860 Eh/α   predicted    -0.4819982E-05 ( -35.44%)
   displ. norm   :     0.0050379 α      lambda       -0.2024791E-05
   maximum displ.:     0.0033257 α      in ANC's #3, #6, #5, ...

........................................................................
.............................. CYCLE   17 ..............................
........................................................................
   1     -9.7362788 -0.973628E+01  0.218E-02    2.74       0.0  T
   2     -9.7362789 -0.118329E-06  0.136E-02    2.74       3.3  T
   3     -9.7362792 -0.272981E-06  0.876E-03    2.74       5.1  T
   4     -9.7362793 -0.129707E-06  0.207E-03    2.74      21.6  T
   5     -9.7362793 -0.121836E-07  0.141E-03    2.74      31.6  T
   6     -9.7362793 -0.113775E-07  0.430E-04    2.74     104.1  T
   7     -9.7362793 -0.165352E-09  0.377E-05    2.74    1184.9  T
     SCC iter.                  ...        0 min,  0.001 sec
     gradient                   ...        0 min,  0.001 sec
 * total energy  :    -9.5642334 Eh     change       -0.1877472E-05 Eh
   gradient norm :     0.0005047 Eh/α   predicted    -0.1010928E-05 ( -46.15%)
   displ. norm   :     0.0033646 α      lambda       -0.4738829E-06
   maximum displ.:     0.0027965 α      in ANC's #1, #3, #5, ...

   *** GEOMETRY OPTIMIZATION CONVERGED AFTER 17 ITERATIONS ***

------------------------------------------------------------------------
 total energy gain   :        -0.1155894 Eh      -72.5335 kcal/mol
 total RMSD          :         0.7235970 a0        0.3829 Å
 total power (kW/mol):       -17.8517668 (step)-5997.6230 (real)
------------------------------------------------------------------------

 ANCopt (total)                0 d,  0 h,  0 min,  0.051 sec
 optimizer setup                ...        0 min,  0.000 sec (  0.128%)
 model hessian                  ...        0 min,  0.000 sec (  0.183%)
 ANC generation                 ...        0 min,  0.000 sec (  0.105%)
 coordinate transformation      ...        0 min,  0.000 sec (  0.074%)
 single point calculation       ...        0 min,  0.049 sec ( 96.851%)
 optimization log               ...        0 min,  0.000 sec (  0.818%)
 hessian update                 ...        0 min,  0.000 sec (  0.077%)
 rational function              ...        0 min,  0.000 sec (  0.748%)

================
 final structure:
================
5
 xtb: 6.2.2 (9d81278992624c895f80dd42a50cac0aa55982e2)
C         1.87436588064085   -0.42350402332051    0.12265730856842
C         0.69157327236342   -0.03297768232309    0.03032964855584
C        -0.30769874391767    1.15354187137386   -0.14260183176956
N        -0.76253844952688   -0.00729653089762   -0.02946510770755
H        -1.49570195955971   -0.68976263483264    0.01907898235286

 Bond Distances (Angstroems)
 ---------------------------
C1-C2=1.2490         C2-C1=1.2490         C2-C3=1.5609         C2-N4=1.4556         C3-C2=1.5609         C3-N4=1.2519         
N4-C2=1.4556         N4-C3=1.2519         N4-H5=1.0028         H5-N4=1.0028         
 C  C  Rav=1.4049 sigma=0.1559  Rmin=1.2490  Rmax=1.5609     2
 N  H  Rav=1.0028 sigma=0.0000  Rmin=1.0028  Rmax=1.0028     1
 N  C  Rav=1.3537 sigma=0.1018  Rmin=1.2519  Rmax=1.4556     2

 selected bond angles (degree)
 --------------------
C3-C2-C1=148.44                N4-C2-C1=162.67                N4-C2-C3= 48.89                N4-C3-C2= 61.16                
C3-N4-C2= 69.95                H5-N4-C2=135.76                H5-N4-C3=154.30                

 selected dihedral angles (degree)
 ---------------------------------
N4-C3-C2-C1=180.17            C3-N4-C2-C1=179.69            H5-N4-C2-C1=359.72            H5-N4-C2-C3=180.02            
H5-N4-C3-C2=179.97            
           -------------------------------------------------
          |                Final Singlepoint                |
           -------------------------------------------------

          ...................................................
          :                      SETUP                      :
          :.................................................:
          :  # basis functions                  17          :
          :  # atomic orbitals                  17          :
          :  # shells                            9          :
          :  # electrons                        18          :
          :  max. iterations                   250          :
          :  Hamiltonian                  GFN2-xTB          :
          :  restarted?                      false          :
          :  GBSA solvation                  false          :
          :  PC potential                    false          :
          :  electronic temp.          300.0000000     K    :
          :  accuracy                    1.0000000          :
          :  -> integral cutoff          0.2500000E+02      :
          :  -> integral neglect         0.1000000E-07      :
          :  -> SCF convergence          0.1000000E-05 Eh   :
          :  -> wf. convergence          0.1000000E-03 e    :
          :  Broyden damping             0.4000000          :
          ...................................................

 iter      E             dE          RMSdq      gap      omega  full diag
   1     -9.7362793 -0.973628E+01  0.685E-06    2.74       0.0  T
   2     -9.7362793 -0.888178E-14  0.450E-06    2.74    9948.4  T
   3     -9.7362793  0.113687E-12  0.435E-06    2.74   10290.4  T

   *** convergence criteria satisfied after 3 iterations ***

         #    Occupation            Energy/Eh            Energy/eV
      -------------------------------------------------------------
         1        2.0000           -0.7295540             -19.8522
       ...           ...                  ...                  ...
         3        2.0000           -0.6348441             -17.2750
         4        2.0000           -0.5938817             -16.1603
         5        2.0000           -0.5665976             -15.4179
         6        2.0000           -0.5012020             -13.6384
         7        2.0000           -0.4439934             -12.0817
         8        2.0000           -0.4074547             -11.0874
         9        2.0000           -0.4054684             -11.0334 (HOMO)
        10                         -0.3047381              -8.2923 (LUMO)
        11                         -0.3020771              -8.2199
        12                         -0.1659143              -4.5148
        13                         -0.0532299              -1.4485
        14                         -0.0332474              -0.9047
       ...                                ...                  ...
        17                          0.9333598              25.3980
      -------------------------------------------------------------
                  HL-Gap            0.1007303 Eh            2.7410 eV
             Fermi-level           -0.3551032 Eh           -9.6629 eV

 SCC (total)                   0 d,  0 h,  0 min,  0.002 sec
 SCC setup                      ...        0 min,  0.000 sec (  2.066%)
 Dispersion                     ...        0 min,  0.000 sec (  0.444%)
 integral evaluation            ...        0 min,  0.001 sec ( 39.813%)
 zeroth order Hamiltonian       ...        0 min,  0.000 sec (  0.483%)
 iterations                     ...        0 min,  0.000 sec ( 13.654%)
 molecular gradient             ...        0 min,  0.001 sec ( 40.382%)
 printout                       ...        0 min,  0.000 sec (  2.762%)

         :::::::::::::::::::::::::::::::::::::::::::::::::::::
         ::                     SUMMARY                     ::
         :::::::::::::::::::::::::::::::::::::::::::::::::::::
         :: total energy              -9.564233396912 Eh    ::
         :: gradient norm              0.000528162915 Eh/a0 ::
         :: HOMO-LUMO gap              2.741011763943 eV    ::
         ::.................................................::
         :: SCC energy                -9.736279341720 Eh    ::
         :: -> isotropic ES           -0.010047894067 Eh    ::
         :: -> anisotropic ES          0.000010597846 Eh    ::
         :: -> anisotropic XC          0.011741163708 Eh    ::
         :: -> dispersion             -0.002168851133 Eh    ::
         :: repulsion energy           0.172045889475 Eh    ::
         :: add. restraining           0.000000000000 Eh    ::
         :::::::::::::::::::::::::::::::::::::::::::::::::::::

           ------------------------------------------------- 
          |                Numerical Hessian                |
           ------------------------------------------------- 
step length          :   0.00500
SCC accuracy         :   0.30000
Hessian scale factor :   1.00000
frozen atoms in %    :   0.00000    0
RMS gradient         :   0.00053
estimated CPU  time      0.00 min
estimated wall time      0.00 min

writing file <hessian>.

 projected vibrational frequencies (cm-1)
eigval :       -0.00    -0.00    -0.00    -0.00     0.00     0.00
eigval :      269.43   372.82   532.85   605.66   781.15   869.45
eigval :     1619.41  1948.77  3481.63
           -------------------------------------------------
          |                Property Printout                |
           -------------------------------------------------

    * Orbital Energies and Occupations

         #    Occupation            Energy/Eh            Energy/eV
      -------------------------------------------------------------
         1        2.0000           -0.7295539             -19.8522
         2        2.0000           -0.6486162             -17.6497
         3        2.0000           -0.6348441             -17.2750
         4        2.0000           -0.5938817             -16.1603
         5        2.0000           -0.5665975             -15.4179
         6        2.0000           -0.5012020             -13.6384
         7        2.0000           -0.4439934             -12.0817
         8        2.0000           -0.4074547             -11.0874
         9        2.0000           -0.4054684             -11.0334 (HOMO)
        10                         -0.3047381              -8.2923 (LUMO)
        11                         -0.3020771              -8.2199
        12                         -0.1659144              -4.5148
        13                         -0.0532298              -1.4485
        14                         -0.0332474              -0.9047
        15                          0.0826381               2.2487
        16                          0.5998545              16.3229
        17                          0.9333597              25.3980
      -------------------------------------------------------------
                  HL-Gap            0.1007303 Eh            2.7410 eV
             Fermi-level           -0.3551033 Eh           -9.6629 eV

     #   Z        covCN         q      C6AA      α(0)
     1   6 C      0.981    -0.205    42.817    10.991
     2   6 C      2.859     0.062    26.605     8.454
     3   6 C      1.882    -0.059    32.733     9.241
     4   7 N      2.678     0.023    20.848     6.781
     5   1 H      0.861     0.179     1.220     1.730

 Mol. C6AA /au·bohr⁶  :        532.146196
 Mol. C8AA /au·bohr⁸  :      14128.597306
 Mol. α(0) /au        :         37.197244


Wiberg/Mayer (AO) data.
largest (>0.10) Wiberg bond orders for each atom
          total WBO             WBO to atom ...
     1  C   2.730        C    2 2.354    C    3 0.224    N    4 0.142
     2  C   3.831        C    1 2.354    N    4 0.785    C    3 0.686
     3  C   2.774        N    4 1.835    C    2 0.686    C    1 0.224
     4  N   3.685        C    3 1.835    H    5 0.923    C    2 0.785    C    1 0.142
     5  H   0.968        N    4 0.923

MOs/occ written to file <molden.input>


molecular dipole:
                 x           y           z       tot (Debye)
 q only:       -1.149      -0.203      -0.023
   full:       -1.951      -0.557      -0.014       5.157
molecular quadrupole (traceless):
                xx          xy          yy          xz          yz          zz
 q only:       -0.944       1.965       0.401      -0.284       0.096       0.543
  q+dip:       -1.540       3.624      -0.033      -0.536       0.331       1.573
   full:       -3.035       3.958      -0.008      -0.694       0.511       3.043

           -------------------------------------------------
          |                Geometry Summary                 |
           -------------------------------------------------

      molecular mass/u    :       51.0468517
   center of mass at/Å    :        0.2925732       0.1483870      -0.0052660
  moments of inertia/u·Å² :        0.1225430E+02   0.6080656E+02   0.7306085E+02
rotational constants/cm⁻¹ :        0.1375650E+01   0.2772338E+00   0.2307341E+00

 * 3 selected distances

     #   Z        #   Z                                     value/Å
     1   6 C      2   6 C                                 1.2490130
     3   6 C      4   7 N                                 1.2518885 (max)
     4   7 N      5   1 H                                 1.0028186 (min)

 * 3 distinct bonds (by element types)

   Z      Z             #   av. dist./Å        max./Å        min./Å
   6 C    6 C           1     1.2490130     1.2490130     1.2490130
   1 H    7 N           1     1.0028186     1.0028186     1.0028186
   6 C    7 N           1     1.2518885     1.2518885     1.2518885

           -------------------------------------------------
          |               Frequency Printout                |
           -------------------------------------------------
 projected vibrational frequencies (cm-1)
eigval :       -0.00    -0.00    -0.00    -0.00     0.00     0.00
eigval :      269.43   372.82   532.85   605.66   781.15   869.45
eigval :     1619.41  1948.77  3481.63
 reduced masses (amu)
   1: 11.83   2: 11.69   3: 11.91   4: 11.97   5: 12.05   6: 12.31   7: 11.48   8: 11.36
   9:  4.46  10: 12.35  11: 11.19  12:  4.15  13: 12.33  14: 12.09  15:  1.98
 IR intensities (amu)
   1:  0.16   2:  0.18   3:  0.25   4:  0.14   5:  0.26   6:  0.19   7:  0.25   8:  0.18
   9:  0.40  10:  0.45  11:  0.28  12:  0.08  13:  1.13  14:  0.25  15:  0.33
Molecule has the following symmetry elements: (sigma) 
It seems to be the Cs point group
 Raman intensities (amu)
   1:  0.00   2:  0.00   3:  0.00   4:  0.00   5:  0.00   6:  0.00   7:  0.00   8:  0.00
   9:  0.00  10:  0.00  11:  0.00  12:  0.00  13:  0.00  14:  0.00  15:  0.00
 output can be read by thermo (or use thermo option).
 writing <g98.out> molden fake output.
 recommended (thermochemical) frequency scaling factor: 1.0
           -------------------------------------------------
          |             Thermodynamic Functions             |
           -------------------------------------------------

cs  symmetry found (for desy threshold:  0.10E+00) used in thermo

          ...................................................
          :                      SETUP                      :
          :.................................................:
          :  # frequencies                           9      :
          :  # imaginary freq.                       0      :
          :  linear?                             false      :
          :  only rotor calc.                    false      :
          :  symmetry                               cs      :
          :  rotational number                       1      :
          :  scaling factor                  1.0000000      :
          :  rotor cutoff                   50.0000000 cm⁻¹ :
          :  imag. cutoff                  -20.0000000 cm⁻¹ :
          :.................................................:

    mode    ω/cm⁻¹     T·S(HO)/kcal·mol⁻¹    T·S(FR)/kcal·mol⁻¹   T·S(vib)
   ------------------------------------------------------------------------
       1    269.43    -0.00000 ( 99.88%)     0.01504 (  0.12%)     0.00002
   ------------------------------------------------------------------------

   temp. (K)  partition function   enthalpy   heat capacity  entropy
                                   cal/mol     cal/K/mol   cal/K/mol   J/K/mol
 298.15  VIB   1.96                  817.439      6.744      4.079
         ROT  0.178E+05              888.752      2.981     22.433
         INT  0.349E+05             1706.191      9.725     26.512
         TR   0.353E+27             1481.254      4.968     37.697
         TOT                        3187.4449    14.6927    64.2085   268.6485

   temp. (K)  partition function   enthalpy   heat capacity  entropy
                                   cal/mol     cal/K/mol   cal/K/mol   J/K/mol
 120.00  VIB   1.06                   48.104      1.586      0.510
         ROT  0.455E+04              357.707      2.981     19.720
         INT  0.481E+04              405.810      4.567     20.230
         TR   0.901E+26              596.178      4.968     33.177
         TOT                        1001.9885     9.5348    53.4069   223.4543

   temp. (K)  partition function   enthalpy   heat capacity  entropy
                                   cal/mol     cal/K/mol   cal/K/mol   J/K/mol
 100.00  VIB   1.03                   22.353      1.000      0.277
         ROT  0.346E+04              298.089      2.981     19.176
         INT  0.355E+04              320.442      3.980     19.453
         TR   0.685E+26              496.815      4.968     32.272
         TOT                         817.2570     8.9486    51.7248   216.4166

   temp. (K)  partition function   enthalpy   heat capacity  entropy
                                   cal/mol     cal/K/mol   cal/K/mol   J/K/mol
  80.00  VIB   1.01                    7.551      0.500      0.113
         ROT  0.248E+04              238.471      2.981     18.511
         INT  0.250E+04              246.023      3.481     18.624
         TR   0.490E+26              397.452      4.968     31.164
         TOT                         643.4746     8.4488    49.7883   208.3141

   temp. (K)  partition function   enthalpy   heat capacity  entropy
                                   cal/mol     cal/K/mol   cal/K/mol   J/K/mol
  60.00  VIB   1.00                    1.351      0.152      0.026
         ROT  0.161E+04              178.853      2.981     17.654
         INT  0.161E+04              180.205      3.133     17.680
         TR   0.319E+26              298.089      4.968     29.735
         TOT                         478.2935     8.1011    47.4150   198.3843

   temp. (K)  partition function   enthalpy   heat capacity  entropy
                                   cal/mol     cal/K/mol   cal/K/mol   J/K/mol
  40.00  VIB   1.00                    0.049      0.012      0.001
         ROT   876.                  119.236      2.981     16.445
         INT   876.                  119.285      2.993     16.446
         TR   0.173E+26              198.726      4.968     27.722
         TOT                         318.0108     7.9611    44.1677   184.7978

   temp. (K)  partition function   enthalpy   heat capacity  entropy
                                   cal/mol     cal/K/mol   cal/K/mol   J/K/mol
  20.00  VIB   1.00                    0.000      0.000     -0.002
         ROT   310.                   59.618      2.981     14.379
         INT   310.                   59.618      2.981     14.377
         TR   0.613E+25               99.363      4.968     24.280
         TOT                         158.9808     7.9490    38.6571   161.7411

   temp. (K)  partition function   enthalpy   heat capacity  entropy
                                   cal/mol     cal/K/mol   cal/K/mol   J/K/mol
  10.00  VIB   1.00                    0.000      0.000     -0.003
         ROT   109.                   29.809      2.981     12.313
         INT   109.                   29.809      2.981     12.310
         TR   0.217E+25               49.681      4.968     20.838
         TOT                          79.4904     7.9490    33.1477   138.6902

       T/K    H(0)-H(T)+PV         H(T)/Eh          T*S/Eh         G(T)/Eh
   ------------------------------------------------------------------------
    298.15    0.507952E-02    0.289574E-01    0.305075E-01   -0.155018E-02
    120.00    0.159677E-02    0.254746E-01    0.102131E-01    0.152615E-01
    100.00    0.130238E-02    0.251802E-01    0.824287E-02    0.169374E-01
     80.00    0.102544E-02    0.249033E-01    0.634741E-02    0.185559E-01
     60.00    0.762209E-03    0.246401E-01    0.453364E-02    0.201064E-01
     40.00    0.506783E-03    0.243846E-01    0.281543E-02    0.215692E-01
     20.00    0.253352E-03    0.241312E-01    0.123208E-02    0.228991E-01
     10.00    0.126676E-03    0.240045E-01    0.528243E-03    0.234763E-01 (used)
   ------------------------------------------------------------------------

         :::::::::::::::::::::::::::::::::::::::::::::::::::::
         ::                  THERMODYNAMIC                  ::
         :::::::::::::::::::::::::::::::::::::::::::::::::::::
         :: total free energy          -9.540757109306 Eh   ::
         ::.................................................::
         :: total energy               -9.564233396823 Eh   ::
         :: zero point energy           0.023877854452 Eh   ::
         :: G(RRHO) w/o ZPVE           -0.000401566935 Eh   ::
         :: G(RRHO) contrib.            0.023476287517 Eh   ::
         :::::::::::::::::::::::::::::::::::::::::::::::::::::

optimized geometry written to: xtbopt.xyz


           -------------------------------------------------
          | TOTAL ENERGY               -9.564233396823 Eh   |
          | TOTAL ENTHALPY             -9.540228866355 Eh   |
          | TOTAL FREE ENERGY          -9.540757109306 Eh   |
          | GRADIENT NORM               0.000528177521 Eh/α |
          | HOMO-LUMO GAP               2.741011949676 eV   |
           -------------------------------------------------

------------------------------------------------------------------------
 * finished run on 2020/05/12 at 11:44:56.562     
------------------------------------------------------------------------
 total:
 * wall-time:     0 d,  0 h,  0 min,  0.154 sec
 *  cpu-time:     0 d,  0 h,  0 min,  0.153 sec
 * ratio c/w:     0.998 speedup
 SCF:
 * wall-time:     0 d,  0 h,  0 min,  0.004 sec
 *  cpu-time:     0 d,  0 h,  0 min,  0.004 sec
 * ratio c/w:     0.999 speedup
 ANC optimizer:
 * wall-time:     0 d,  0 h,  0 min,  0.054 sec
 *  cpu-time:     0 d,  0 h,  0 min,  0.054 sec
 * ratio c/w:     0.998 speedup
 numerical hessian:
 * wall-time:     0 d,  0 h,  0 min,  0.080 sec
 *  cpu-time:     0 d,  0 h,  0 min,  0.080 sec
 * ratio c/w:     0.998 speedup

