[Molden Format]
[Title]
[Atoms] AU
N      1     7  0.35237154545057E+00 -0.18433747674830E+01  0.97615245954028E-01
C      2     6 -0.13974530420357E+01 -0.14798108001934E+00 -0.13358003884914E+01
C      3     6  0.29763301507418E+00  0.19472425261743E+01 -0.10494969208960E+00
C      4     6 -0.13900659185348E+01 -0.42564359173881E-02  0.13516311520925E+01
C      5     6  0.21375144000623E+01  0.48371646974686E-01 -0.84944277429069E-02
[GTO]
           1 0
 s           4   1.0000000000000000     
   63.594024466941008      -0.19234388414721629     
   10.951417231523665      -0.23478107924953728     
  0.87999310257376984       0.37593753901700888     
  0.33538715296521110       0.14982889271862770     
 p           4   1.0000000000000000     
   7.2965040481495080       0.97658666315667420     
   1.8918745450712575       0.90372226730345739     
  0.66694432110824120       0.47404958461536373     
  0.26552202674130870        7.1516067715011844E-002

           2 0
 s           4   1.0000000000000000     
   51.049363095579913      -0.16312063210127389     
   8.7911227406887544      -0.19911024581000730     
  0.70640422258929825       0.31882047753655751     
  0.26922813413411617       0.12706504184240380     
 p           4   1.0000000000000000     
   5.8263656140800002       0.73716451545209605     
   1.5106896018720002       0.68216371614850257     
  0.53256483288000001       0.35783053929253711     
  0.21202323690600003        5.3983030275847881E-002

           3 0
 s           4   1.0000000000000000     
   51.049363095579913      -0.16312063210127389     
   8.7911227406887544      -0.19911024581000730     
  0.70640422258929825       0.31882047753655751     
  0.26922813413411617       0.12706504184240380     
 p           4   1.0000000000000000     
   5.8263656140800002       0.73716451545209605     
   1.5106896018720002       0.68216371614850257     
  0.53256483288000001       0.35783053929253711     
  0.21202323690600003        5.3983030275847881E-002

           4 0
 s           4   1.0000000000000000     
   51.049363095579913      -0.16312063210127389     
   8.7911227406887544      -0.19911024581000730     
  0.70640422258929825       0.31882047753655751     
  0.26922813413411617       0.12706504184240380     
 p           4   1.0000000000000000     
   5.8263656140800002       0.73716451545209605     
   1.5106896018720002       0.68216371614850257     
  0.53256483288000001       0.35783053929253711     
  0.21202323690600003        5.3983030275847881E-002

           5 0
 s           4   1.0000000000000000     
   51.049363095579913      -0.16312063210127389     
   8.7911227406887544      -0.19911024581000730     
  0.70640422258929825       0.31882047753655751     
  0.26922813413411617       0.12706504184240380     
 p           4   1.0000000000000000     
   5.8263656140800002       0.73716451545209605     
   1.5106896018720002       0.68216371614850257     
  0.53256483288000001       0.35783053929253711     
  0.21202323690600003        5.3983030275847881E-002

[MO]
Sym=     1a
Ene=  -0.77645036104495446     
Spin= Alpha
Occup=     2.00000000
           1 -0.28761228421303192     
           2   6.2378694958416331E-002
           3 -0.22314998035275393     
           4   1.1763782737620621E-002
           5 -0.26141471708608449     
           6  -9.0623539790040855E-002
           7   4.4450210481316085E-003
           8 -0.11662694874241578     
           9 -0.20911052572801442     
          10   2.0607709412386960E-002
          11  0.12215848712264500     
          12  -6.5888574233971247E-003
          13 -0.26141081386622123     
          14  -8.9981397030622134E-002
          15   1.6884471413851163E-002
          16  0.11598248740473013     
          17 -0.21285679863076543     
          18  0.13174665927993359     
          19   1.1454943450464796E-002
          20  -9.7622256989964083E-004
Sym=     2a
Ene=  -0.67684586402131630     
Spin= Alpha
Occup=     2.00000000
           1   8.7817771515329560E-002
           2  0.37680703091845086     
           3   7.4074173885528158E-002
           4  -5.0039906298306328E-003
           5 -0.27515911030010409     
           6  0.11607997113757575     
           7   4.6898779460987312E-002
           8 -0.13250137331808076     
           9  0.11672321796069485     
          10  0.19128139212536108     
          11  -4.5989247322733878E-002
          12   1.9296940297338007E-003
          13 -0.27516571634870113     
          14  0.11678497972639765     
          15   6.0728546486445864E-002
          16  0.12610166724317695     
          17  0.45742368439660219     
          18  -6.5147890162274014E-002
          19  -4.5214189132643037E-002
          20   2.5977183692901082E-003
Sym=     3a
Ene=  -0.65561502803461891     
Spin= Alpha
Occup=     2.00000000
           1  0.51718371279277831     
           2  -1.5431569392436034E-002
           3  -2.1232266951355824E-002
           4   1.1709311340273639E-003
           5  -5.9623641396967124E-002
           6   2.0677695304630945E-002
           7 -0.26238738851335747     
           8  -2.5083641925485473E-003
           9 -0.43455241573913428     
          10   3.4573897027530887E-002
          11   2.8772559177558651E-002
          12  -1.6337973252578499E-003
          13  -5.9630799979706876E-002
          14   2.0764695841149608E-002
          15 -0.26062271749287563     
          16   3.0362315545358065E-002
          17  -2.4859676176979983E-002
          18   6.3703222084351462E-003
          19 -0.26465285259141369     
          20   1.4133726519221538E-002
Sym=     4a
Ene=  -0.62531809322333254     
Spin= Alpha
Occup=     2.00000000
           1  -1.0039037150223444E-005
           2  -1.2691731610163883E-003
           3  -2.4519623107406074E-002
           4 -0.45846257905324483     
           5  0.37804126915766556     
           6  0.12499251174302133     
           7  -4.9836297396014098E-002
           8 -0.16277108630678880     
           9   1.2231420107201588E-006
          10  -6.6674565678410545E-004
          11  -1.2896265317078777E-002
          12 -0.24117362571101955     
          13 -0.37803361676939706     
          14 -0.12590266729527319     
          15   3.2232104193124819E-002
          16 -0.16646548314315116     
          17  -3.4991430953980541E-006
          18  -7.1199440548481280E-004
          19  -1.3772705990741312E-002
          20 -0.25760996904654121     
Sym=     5a
Ene=  -0.57674872501369301     
Spin= Alpha
Occup=     2.00000000
           1   6.0523396638236186E-002
           2  0.41354707485762660     
           3   2.0233145036557187E-003
           4  -1.2505898987673404E-003
           5   9.0557669304691973E-002
           6  -7.7433440569770584E-002
           7  0.26181640478743773     
           8   1.2204327861225961E-002
           9 -0.10775390877292436     
          10 -0.38868098102832249     
          11  -1.0423770888692785E-002
          12   1.6292721801687967E-003
          13   9.0556815753062653E-002
          14  -7.7576078857868977E-002
          15  0.25904413375004798     
          16  -3.9634321926034881E-002
          17  -8.9697568531607819E-002
          18  -1.3037476463036723E-002
          19 -0.41969656059245131     
          20   2.2480011741210816E-002
Sym=     6a
Ene=  -0.52453456772411189     
Spin= Alpha
Occup=     2.00000000
           1 -0.29017711426212434     
           2  0.11416722182344513     
           3  0.15434000283702268     
           4  -8.5681276353850745E-003
           5  0.19743176271768362     
           6 -0.33462106606570974     
           7  -6.6720153777964336E-002
           8   9.6793705271588107E-002
           9 -0.29713069841269374     
          10  0.16670596261853426     
          11 -0.12501211734354856     
          12   6.2241036510286424E-003
          13  0.19743288059712358     
          14 -0.33512547814149241     
          15  -7.6567145410562337E-002
          16  -8.7288790688227244E-002
          17  0.51082220903245235     
          18  0.29693455267953839     
          19  -1.7508347433070792E-002
          20   1.1889826156785608E-004
Sym=     7a
Ene=  -0.50806687692059738     
Spin= Alpha
Occup=     2.00000000
           1 -0.48004237572871850     
           2  -6.7160087136621915E-002
           3  0.59300734852754977     
           4  -3.1536673720760043E-002
           5  -5.5075006379491469E-002
           6  0.20475532465116902     
           7  -4.4689207954946207E-002
           8  -5.2804185217654995E-002
           9 -0.38636475153475242     
          10  -5.7244750264601518E-002
          11 -0.25677649031557670     
          12   1.3897423248025353E-002
          13  -5.5063378736189994E-002
          14  0.20504853547882559     
          15  -3.8852363301445834E-002
          16   5.6153023924898481E-002
          17 -0.16625189525203213     
          18 -0.17719970550882536     
          19  -8.5013566856857459E-002
          20   5.0324635949457056E-003
Sym=     8a
Ene=  -0.50096611208166808     
Spin= Alpha
Occup=     2.00000000
           1   1.3002668327115581E-006
           2  -1.5067332935667685E-003
           3  -2.9238687035512554E-002
           4 -0.54656034644047469     
           5 -0.25052389149982235     
           6  0.11436339241167250     
           7 -0.32623968621475075     
           8  0.18019087864289926     
           9   1.3068855715953650E-005
          10   1.0960310382030793E-003
          11   2.1248547075526075E-002
          12  0.39717554580169023     
          13  0.25053021630808536     
          14 -0.11347518425034990     
          15  0.34363090795156942     
          16  0.14499483268161548     
          17   6.5819392666538166E-006
          18  -2.2582599644580803E-004
          19  -4.4974677090872323E-003
          20  -8.4117874809654297E-002
Sym=     9a
Ene=  -0.47215731603150823     
Spin= Alpha
Occup=     1.99999574
           1   3.3456948741272708E-006
           2   5.9140769525800916E-005
           3   1.1812326748434996E-003
           4   2.2218319263495431E-002
           5 -0.36237828840925346     
           6  0.25400478707949825     
           7  0.19557884489072372     
           8  0.22663108354158995     
           9  -4.6513351758542895E-006
          10  -1.1039307755280289E-003
          11  -2.1355582340495439E-002
          12 -0.39930435771553729     
          13  0.36238699058278928     
          14 -0.25269425755966707     
          15 -0.17021579107254656     
          16  0.24759770510709361     
          17   4.9272250744768238E-006
          18  -1.2886430949500169E-003
          19  -2.5032478906410197E-002
          20 -0.46810454484146136     
Sym=    10a
Ene=  -0.44866082648293260     
Spin= Alpha
Occup=     1.00000426
           1  -1.9937363537839953E-002
           2  -2.0713481499904034E-002
           3   8.4077750384303346E-002
           4  -4.4442113342226391E-003
           5 -0.40774766016189334     
           6   2.3505561839885673E-002
           7   4.7313245494620383E-002
           8  0.57484397850161839     
           9   1.8715802492825291E-002
          10  -2.8182107016192007E-002
          11   6.5590647904444063E-002
          12  -3.4355508050463415E-003
          13 -0.40774463560094404     
          14   2.0326937190531712E-002
          15  -1.4272753294214249E-002
          16 -0.57672525784027540     
          17   1.5703654166521027E-002
          18   7.2724211758612184E-002
          19  -3.1984127694199248E-002
          20   1.5052696974476680E-003
Sym=    11a
Ene=  -0.40580779513437987     
Spin= Alpha
Occup=     1.00000000
           1 -0.11214848577864403     
           2  0.17340347901484590     
           3  0.43954428185913241     
           4  -2.3982986491753667E-002
           5   2.9130271799669143E-002
           6 -0.21344879025828956     
           7 -0.19175309532496182     
           8  -6.7566341196815633E-003
           9  0.36797803137150115     
          10  0.12543165788816010     
          11  0.60654881584197573     
          12  -3.2790076015386423E-002
          13   2.9136445911535906E-002
          14 -0.21336305663281868     
          15 -0.18988467629616526     
          16   2.8345093131641817E-002
          17 -0.15820208547581630     
          18 -0.29782748375277163     
          19 -0.18579759697362480     
          20   1.0761423838510354E-002
Sym=    12a
Ene=  -0.39643127689411700     
Spin= Alpha
Occup=     1.00000000
           1   9.6482380512624866E-002
           2  0.24592691281624124     
           3 -0.18221462972635666     
           4   9.0593195999328548E-003
           5  -2.9144994781385183E-002
           6 -0.28111041933752945     
           7   5.0422933339324003E-002
           8   8.5883552897815602E-002
           9 -0.16794630156072504     
          10  0.30219023777662829     
          11 -0.37268889232531821     
          12   1.9094759444900456E-002
          13  -2.9136241331632274E-002
          14 -0.28161230882586691     
          15   4.1059550845445540E-002
          16  -8.9220606413055695E-002
          17 -0.29691812649184585     
          18 -0.63907269698078217     
          19  0.18141428938327867     
          20  -7.9262288305519037E-003
Sym=    13a
Ene=  -0.31499212968003787     
Spin= Alpha
Occup=     0.00000000
           1  -2.4211235481168097E-007
           2  -6.7109319087834752E-004
           3  -1.2823833811309455E-002
           4 -0.23978312482624578     
           5  -3.0640933166869184E-002
           6  0.41843810233236012     
           7   9.6203602027295165E-002
           8   5.8668351959242325E-002
           9  -4.4778537902030299E-007
          10  -7.5339838845771159E-004
          11  -1.4424762908712080E-002
          12 -0.26975734677220814     
          13   3.0643784702759570E-002
          14 -0.41806827826167975     
          15  -8.9271412934416566E-002
          16   7.0896962470444608E-002
          17   1.5004182649946971E-006
          18   2.3582198746197516E-003
          19   4.5362268679577392E-002
          20  0.84825604748484562     
Sym=    14a
Ene=  -0.15350735022885095     
Spin= Alpha
Occup=     0.00000000
           1  -1.1376345857297439E-005
           2  -1.7826095300663256E-003
           3  -3.4837270609075710E-002
           4 -0.65122762530012712     
           5  -6.1336443845491855E-002
           6 -0.59113381029941181     
           7  0.25821067888978394     
           8  0.28673996600165536     
           9   5.3777411705190578E-006
          10  -9.2949999879530143E-004
          11  -1.8066643390161757E-002
          12 -0.33775618916776207     
          13   6.1341912592783800E-002
          14  0.59278629806064864     
          15 -0.22634907312536859     
          16  0.30939138805558258     
          17  -3.5550595494417283E-006
          18   5.2292148933543174E-004
          19   1.0157941838057443E-002
          20  0.19002420610405985     
Sym=    15a
Ene=  -0.13377819881626246     
Spin= Alpha
Occup=     0.00000000
           1  -1.7667214255799699E-005
           2  -8.0400814268005445E-004
           3  -1.5803778579308540E-002
           4 -0.29518921379315538     
           5   3.5887899013688433E-002
           6  0.15126868390451639     
           7  0.66583217336619538     
           8 -0.13831672137568185     
           9   1.2227355036416516E-005
          10   2.0217656803192797E-003
          11   3.9222477236360014E-002
          12  0.73360039940528887     
          13  -3.5880992542816174E-002
          14 -0.15181942434126841     
          15 -0.67677021446041241     
          16  -6.5688705108683673E-002
          17  -1.8364229114359652E-006
          18  -3.3100911890896932E-004
          19  -6.4363309669685708E-003
          20 -0.12014797301181890     
Sym=    16a
Ene=   -5.6322262829595737E-002
Spin= Alpha
Occup=     0.00000000
           1  0.59038903715848678     
           2 -0.52956716833074935     
           3  0.47866751718098810     
           4  -2.4160777156824246E-002
           5 -0.10385822418637929     
           6 -0.17482593567761101     
           7  0.56385265893296543     
           8 -0.12502910560769132     
           9 -0.36837110300173276     
          10  0.27873928295013212     
          11  0.28361998516663300     
          12  -1.5918436637802864E-002
          13 -0.10386220237639168     
          14 -0.17428630368903936     
          15  0.57397521178898381     
          16   6.5154246366151358E-002
          17   4.4755599562701087E-002
          18   4.6118529662720594E-003
          19  0.10162514097878816     
          20  -5.4493632570944443E-003
Sym=    17a
Ene=   -1.6963683972430706E-002
Spin= Alpha
Occup=     0.00000000
           1  -4.1961404407235635E-002
           2  0.50075696968455907     
           3  -5.5605179978462524E-002
           4   1.5955450701948802E-003
           5  0.38439078046424585     
           6  0.37973896861999989     
           7  0.16639544751532695     
           8  0.18245251039640079     
           9 -0.28926328797417272     
          10  0.72508600024954761     
          11  0.30185366996466662     
          12  -1.8143072136434412E-002
          13  0.38439262451277045     
          14  0.37867349150995416     
          15  0.14588144769904848     
          16 -0.20124963397853399     
          17 -0.45449236358822726     
          18  0.32145060405378384     
          19   4.7625765069177900E-002
          20  -3.4346700912261663E-003
Sym=    18a
Ene=   0.11671837300106230     
Spin= Alpha
Occup=     0.00000000
           1  0.45991918615781324     
           2  0.58445014287477548     
           3  0.39965870512942270     
           4  -2.2992648496128906E-002
           5  -3.0915312019410706E-002
           6  -3.5119309791531744E-002
           7 -0.13023459654976008     
           8  -1.7595106313286341E-002
           9 -0.24696914702455083     
          10 -0.57101653695329024     
          11  0.12755380264612023     
          12  -5.2382759685563668E-003
          13  -3.0917768945065927E-002
          14  -3.4984076708416106E-002
          15 -0.12761801687619864     
          16   3.1579276636889024E-002
          17 -0.12103828979346851     
          18  0.18865777398365141     
          19   1.0027397392152311     
          20  -5.4147807722242335E-002
Sym=    19a
Ene=   0.26760576578286682     
Spin= Alpha
Occup=     0.00000000
           1   8.4327360286042983E-007
           2  -7.3885955878947099E-004
           3  -1.4207362566438704E-002
           4 -0.26565480412940112     
           5 -0.73111354491191149     
           6 -0.13618409715073437     
           7  -3.5627369338943539E-002
           8 -0.85129136128386595     
           9  -9.8478957193634902E-006
          10  -6.5768525962249557E-004
          11  -1.2645221419565422E-002
          12 -0.23661999761478503     
          13  0.73111093084702306     
          14  0.13150414733021196     
          15  -5.5403500703162599E-002
          16 -0.85097117547020462     
          17   1.1006715828303385E-005
          18   1.6521527572400311E-004
          19   3.4386553992979316E-003
          20   6.4218673164497558E-002
Sym=    20a
Ene=   0.39563271792380844     
Spin= Alpha
Occup=     0.00000000
           1  0.40815207641198692     
           2  0.10274468174053074     
           3  0.46155234386363242     
           4  -2.4972072506881604E-002
           5 -0.17990656988320694     
           6 -0.22160236819161044     
           7  -6.6016528160170104E-002
           8 -0.10973952942567292     
           9  0.74427758910782948     
          10  0.29465326903042593     
          11 -0.74691461822099359     
          12   3.9122830187388158E-002
          13 -0.17988658015258832     
          14 -0.22097517957863699     
          15  -5.3870497012044827E-002
          16  0.11734793555072817     
          17 -0.77008574979274225     
          18  0.75838745090483950     
          19 -0.23616091926817243     
          20   1.0529349202387543E-002
