 Entering Gaussian System
 *********************************************
 Gaussian 98:
 frequency output generated by the xtb code
 *********************************************
                         Standard orientation:
 --------------------------------------------------------------------
  Center     Atomic     Atomic              Coordinates (Angstroms)
  Number     Number      Type              X           Y           Z
 --------------------------------------------------------------------
    1          7             0        0.186467   -0.975472    0.051656
    2          6             0       -0.739500   -0.078308   -0.706875
    3          6             0        0.157501    1.030436   -0.055537
    4          6             0       -0.735591   -0.002252    0.715252
    5          6             0        1.131124    0.025597   -0.004495
 --------------------------------------------------------------------
     1 basis functions        1 primitive gaussians
     1 alpha electrons        1 beta electrons

 Harmonic frequencies (cm**-1), IR intensities (KM/Mole),
 Raman scattering activities (A**4/amu), Raman depolarization ratios,
 reduced masses (AMU), force constants (mDyne/A) and normal coordinates:
                      1                      2                      3
                        a                      a                      a 
 Frequencies --  -251.9566              -213.6541               638.0069
 Red. masses --    12.3503                12.1889                12.3614
 Frc consts  --     0.0000                 0.0000                 0.0000
 IR Inten    --     0.7926                 0.0699                 1.5246
 Raman Activ --     0.0000                 0.0000                 0.0000
 Depolar     --     0.0000                 0.0000                 0.0000
 Atom AN      X      Y      Z        X      Y      Z        X      Y      Z
   1   7     0.00   0.02   0.41    -0.00  -0.02  -0.30     0.00   0.02   0.42
   2   6     0.20   0.55   0.02    -0.27   0.17   0.11    -0.50   0.11  -0.36
   3   6    -0.00  -0.02  -0.32    -0.00  -0.03  -0.54     0.01   0.01   0.22
   4   6    -0.20  -0.54   0.08     0.27  -0.16   0.13     0.49  -0.15  -0.35
   5   6    -0.00  -0.01  -0.22     0.00   0.03   0.62     0.00   0.00   0.04
                      4                      5                      6
                        a                      a                      a 
 Frequencies --   714.5757               894.6698               923.0229
 Red. masses --    12.2484                12.3053                12.9883
 Frc consts  --     0.0000                 0.0000                 0.0000
 IR Inten    --     0.1899                 0.2423                 0.6698
 Raman Activ --     0.0000                 0.0000                 0.0000
 Depolar     --     0.0000                 0.0000                 0.0000
 Atom AN      X      Y      Z        X      Y      Z        X      Y      Z
   1   7     0.29   0.18  -0.01    -0.08   0.38  -0.02     0.60  -0.36   0.02
   2   6    -0.51  -0.05   0.21     0.00   0.13  -0.19    -0.08   0.38   0.06
   3   6     0.40  -0.12   0.00    -0.42  -0.57   0.03    -0.30  -0.09   0.01
   4   6    -0.51  -0.07  -0.20     0.01   0.15   0.17    -0.08   0.37  -0.10
   5   6     0.30   0.04  -0.00     0.49  -0.11   0.00    -0.20  -0.27   0.01
                      7                      8                      9
                        a                      a                      a 
 Frequencies --  1190.0250              1350.9906              1419.4268
 Red. masses --    12.8102                12.1117                12.2236
 Frc consts  --     0.0000                 0.0000                 0.0000
 IR Inten    --     1.0146                 0.6842                 0.2310
 Raman Activ --     0.0000                 0.0000                 0.0000
 Depolar     --     0.0000                 0.0000                 0.0000
 Atom AN      X      Y      Z        X      Y      Z        X      Y      Z
   1   7     0.24   0.58  -0.03    -0.18  -0.13   0.01     0.06  -0.32   0.02
   2   6     0.00  -0.16  -0.09     0.02  -0.01   0.38    -0.20  -0.03  -0.52
   3   6    -0.05   0.30  -0.02    -0.37   0.45  -0.02    -0.00   0.40  -0.02
   4   6     0.00  -0.15   0.11     0.02  -0.05  -0.37    -0.20   0.02   0.52
   5   6    -0.22  -0.62   0.03     0.52  -0.24   0.01     0.34  -0.04   0.00
