$hessian                                                                        
        0.2685435994   0.0154698026  -0.0015517643  -0.0716690090   0.0604641056
       -0.0695397193   0.0195546797  -0.0147958671   0.0008757563  -0.0710997070
        0.0677343957   0.0629180238  -0.1453295631  -0.1288724367   0.0072977036
        0.0154698026   0.5095564757  -0.0257746548   0.0485522437  -0.0926115636
        0.0538601947   0.0267659558  -0.1331370917   0.0081941089   0.0531417585
       -0.0982332896  -0.0471582014  -0.1439297606  -0.1855745308   0.0108785526
       -0.0015517643  -0.0257746548   0.0314059918  -0.0479840390   0.0081115169
       -0.0326584675  -0.0015219443   0.0081838500   0.0186228993   0.0428732027
       -0.0013978001  -0.0274596359   0.0081845449   0.0108770879   0.0100892124
       -0.0716690090   0.0485522437  -0.0479840390   0.1417259875  -0.0120930322
        0.1091647796  -0.0460378557  -0.0478754029  -0.0186654402   0.0574956037
        0.0076129711  -0.0433205425  -0.0815147265   0.0038032203   0.0008052421
        0.0604641056  -0.0926115636   0.0081115169  -0.0120930322   0.0719765328
        0.0115361416  -0.0580634592  -0.0856638692   0.0162889203   0.0122572840
        0.0826089976  -0.0368435933  -0.0025648983   0.0236899025   0.0009070145
       -0.0695397193   0.0538601947  -0.0326584675   0.1091647796   0.0115361416
        0.4158523059  -0.0706988038  -0.0374028132  -0.0114030313   0.0398154989
       -0.0118734891  -0.3683668239  -0.0087417553  -0.0161200340  -0.0034239832
        0.0195546797   0.0267659558  -0.0015219443  -0.0460378557  -0.0580634592
       -0.0706988038   0.2500603868  -0.0620944753   0.0024844225  -0.0462330529
       -0.0503446664   0.0770740644  -0.1773441579   0.1437366451  -0.0073377388
       -0.0147958671  -0.1331370917   0.0081838500  -0.0478754029  -0.0856638692
       -0.0374028132  -0.0620944753   0.4946394261  -0.0263269835  -0.0454871750
       -0.0826246707   0.0453428431   0.1702529204  -0.1932137945   0.0102031037
        0.0008757563   0.0081941089   0.0186228993  -0.0186654402   0.0162889203
       -0.0114030313   0.0024844225  -0.0263269835   0.0014322559   0.0238539825
       -0.0082890927  -0.0149232108  -0.0085487210   0.0101330471   0.0062710869
       -0.0710997070   0.0531417585   0.0428732027   0.0574956037   0.0122572840
        0.0398154989  -0.0462330529  -0.0454871750   0.0238539825   0.1410427827
       -0.0233881313  -0.1059101259  -0.0812056266   0.0034762639  -0.0006325581
        0.0677343957  -0.0982332896  -0.0013978001   0.0076129711   0.0826089976
       -0.0118734891  -0.0503446664  -0.0826246707  -0.0082890927  -0.0233881313
        0.0735229774   0.0253972593  -0.0016145689   0.0247259854  -0.0038368775
        0.0629180238  -0.0471582014  -0.0274596359  -0.0433205425  -0.0368435933
       -0.3683668239   0.0770740644   0.0453428431  -0.0149232108  -0.1059101259
        0.0253972593   0.4155682799   0.0092385802   0.0132616923  -0.0048186093
       -0.1453295631  -0.1439297606   0.0081845449  -0.0815147265  -0.0025648983
       -0.0087417553  -0.1773441579   0.1702529204  -0.0085487210  -0.0812056266
       -0.0016145689   0.0092385802   0.4853940740  -0.0221436926  -0.0001326488
       -0.1288724367  -0.1855745308   0.0108770879   0.0038032203   0.0236899025
       -0.0161200340   0.1437366451  -0.1932137945   0.0101330471   0.0034762639
        0.0247259854   0.0132616923  -0.0221436926   0.3303724374  -0.0181517933
        0.0072977036   0.0108785526   0.0100892124   0.0008052421   0.0009070145
       -0.0034239832  -0.0073377388   0.0102031037   0.0062710869  -0.0006325581
       -0.0038368775  -0.0048186093  -0.0001326488  -0.0181517933  -0.0081177067
