 Entering Gaussian System
 *********************************************
 Gaussian 98:
 frequency output generated by the xtb code
 *********************************************
                         Standard orientation:
 --------------------------------------------------------------------
  Center     Atomic     Atomic              Coordinates (Angstroms)
  Number     Number      Type              X           Y           Z
 --------------------------------------------------------------------
    1          6             0        1.770281   -0.504863   -0.047308
    2          6             0        0.685646    0.120192    0.243289
    3          6             0       -0.303754    1.163898   -0.126959
    4          7             0       -0.725166   -0.065524    0.129925
    5          1             0       -1.427006   -0.713702   -0.198947
 --------------------------------------------------------------------
     1 basis functions        1 primitive gaussians
     1 alpha electrons        1 beta electrons

 Harmonic frequencies (cm**-1), IR intensities (KM/Mole),
 Raman scattering activities (A**4/amu), Raman depolarization ratios,
 reduced masses (AMU), force constants (mDyne/A) and normal coordinates:
                      1                      2                      3
                        a                      a                      a 
 Frequencies --   321.9512               378.1053               477.1099
 Red. masses --    11.3116                10.3467                 7.1844
 Frc consts  --     0.0000                 0.0000                 0.0000
 IR Inten    --     0.2865                 0.4249                 0.7816
 Raman Activ --     0.0000                 0.0000                 0.0000
 Depolar     --     0.0000                 0.0000                 0.0000
 Atom AN      X      Y      Z        X      Y      Z        X      Y      Z
   1   6    -0.01   0.36  -0.30     0.42   0.25   0.21     0.05   0.01   0.17
   2   6    -0.29  -0.35   0.49    -0.21  -0.53  -0.41     0.04   0.12  -0.45
   3   6     0.38  -0.05  -0.29     0.05   0.08   0.07     0.15  -0.07   0.04
   4   7    -0.11   0.03   0.16    -0.17   0.15   0.04    -0.27  -0.08   0.40
   5   1     0.11  -0.00  -0.24    -0.25   0.12   0.29     0.16   0.10  -0.67
                      4                      5                      6
                        a                      a                      a 
 Frequencies --   578.4945               845.4667               937.8612
 Red. masses --     9.3792                 8.9132                 7.8827
 Frc consts  --     0.0000                 0.0000                 0.0000
 IR Inten    --     0.5346                 0.1159                 0.2416
 Raman Activ --     0.0000                 0.0000                 0.0000
 Depolar     --     0.0000                 0.0000                 0.0000
 Atom AN      X      Y      Z        X      Y      Z        X      Y      Z
   1   6     0.06   0.12  -0.08     0.27  -0.15  -0.09     0.29  -0.12  -0.07
   2   6     0.35   0.25   0.15     0.26  -0.23   0.25     0.24  -0.06   0.09
   3   6     0.24  -0.44   0.04    -0.58   0.04  -0.16    -0.12  -0.04   0.03
   4   7    -0.47  -0.01  -0.13     0.08   0.20   0.08    -0.49   0.35  -0.07
   5   1    -0.44   0.27   0.11    -0.16   0.40  -0.33     0.41  -0.52   0.06
                      7                      8                      9
                        a                      a                      a 
 Frequencies --  1298.7915              1576.5789              3329.7264
 Red. masses --    12.1132                12.1693                 1.8965
 Frc consts  --     0.0000                 0.0000                 0.0000
 IR Inten    --     1.4575                 2.1162                 0.1884
 Raman Activ --     0.0000                 0.0000                 0.0000
 Depolar     --     0.0000                 0.0000                 0.0000
 Atom AN      X      Y      Z        X      Y      Z        X      Y      Z
   1   6    -0.52   0.31   0.12     0.28  -0.16  -0.07     0.00   0.00  -0.00
   2   6     0.30  -0.31  -0.16    -0.54   0.27  -0.01     0.01  -0.01   0.00
   3   6    -0.07  -0.42   0.08    -0.02  -0.55   0.13    -0.01   0.01  -0.01
   4   7     0.22   0.38  -0.04     0.23   0.38  -0.04    -0.18  -0.17  -0.08
   5   1     0.16   0.00  -0.02     0.09   0.10  -0.04     0.67   0.63   0.30
