$hessian                                                                        
        0.3662304217  -0.1945813314  -0.0799613725  -0.2436876549   0.1701511657
        0.0801387515  -0.0400104397  -0.0134490754   0.0016262650  -0.0802833898
        0.0340261031   0.0042909140  -0.0022489373   0.0038531380  -0.0060945580
       -0.1945813314   0.1291327647   0.0461217550   0.1428673981  -0.1187746056
       -0.0487150327   0.0317155526  -0.0100815912  -0.0007600497   0.0197183102
        0.0002981602  -0.0017808769   0.0002800705  -0.0005747281   0.0051342043
       -0.0799613725   0.0461217550   0.0318228143   0.0537283733  -0.0448116079
       -0.0455651979   0.0093257381   0.0067267692   0.0069093979   0.0155957236
       -0.0065905171   0.0059720970   0.0013115376  -0.0014463993   0.0008608886
       -0.2436876549   0.1428673981   0.0537283733   0.4652725482  -0.2357021991
        0.0028108488  -0.0576843519   0.2100945364  -0.0631087504  -0.1683783709
       -0.1071056010   0.0034820541   0.0044778295  -0.0101541344   0.0030874743
        0.1701511657  -0.1187746056  -0.0448116079  -0.2357021991   0.2103928142
        0.0194145054   0.0602371096  -0.0895905218   0.0358407107   0.0173701323
       -0.0010742894  -0.0090963972  -0.0120562085  -0.0009533974  -0.0013472110
        0.0801387515  -0.0487150327  -0.0455651979   0.0028108488   0.0194145054
        0.0886190685  -0.0382304523   0.0466882865  -0.0318911011  -0.0389287918
       -0.0222800727  -0.0112191386  -0.0057903562   0.0048923136   0.0000563691
       -0.0400104397   0.0317155526   0.0093257381  -0.0576843519   0.0602371096
       -0.0382304523   0.1362674428   0.0100503712   0.0192197033  -0.0279251522
       -0.0835745979  -0.0022645752  -0.0106474989  -0.0184284355   0.0119495861
       -0.0134490754  -0.0100815912   0.0067267692   0.2100945364  -0.0895905218
        0.0466882865   0.0100503712   0.5041385183  -0.1080195220  -0.1901579998
       -0.3943416187   0.0430973083  -0.0165378323  -0.0101247866   0.0115071580
        0.0016262650  -0.0007600497   0.0069093979  -0.0631087504   0.0358407107
       -0.0318911011   0.0192197033  -0.1080195220   0.0362755883   0.0396137591
        0.0819581568  -0.0124160016   0.0026490231  -0.0090192958   0.0011221165
       -0.0802833898   0.0197183102   0.0155957236  -0.1683783709   0.0173701323
       -0.0389287918  -0.0279251522  -0.1901579998   0.0396137591   0.4691764936
        0.2968689117   0.0762771944  -0.1925895806  -0.1437993544  -0.0925578852
        0.0340261031   0.0002981602  -0.0065905171  -0.1071056010  -0.0010742894
       -0.0222800727  -0.0835745979  -0.3943416187   0.0819581568   0.2968689117
        0.5664489219   0.0363207442  -0.1402148160  -0.1713311740  -0.0894083111
        0.0042909140  -0.0017808769   0.0059720970   0.0034820541  -0.0090963972
       -0.0112191386  -0.0022645752   0.0430973083  -0.0124160016   0.0762771944
        0.0363207442   0.0650673445  -0.0817855873  -0.0685407783  -0.0474043013
       -0.0022489373   0.0002800705   0.0013115376   0.0044778295  -0.0120562085
       -0.0057903562  -0.0106474989  -0.0165378323   0.0026490231  -0.1925895806
       -0.1402148160  -0.0817855873   0.2010081873   0.1685287863   0.0836153828
        0.0038531380  -0.0005747281  -0.0014463993  -0.0101541344  -0.0009533974
        0.0048923136  -0.0184284355  -0.0101247866  -0.0090192958  -0.1437993544
       -0.1713311740  -0.0685407783   0.1685287863   0.1829840861   0.0741141599
       -0.0060945580   0.0051342043   0.0008608886   0.0030874743  -0.0013472110
        0.0000563691   0.0119495861   0.0115071580   0.0011221165  -0.0925578852
       -0.0894083111  -0.0474043013   0.0836153828   0.0741141599   0.0453649272
