[Molden Format]
[Title]
[Atoms] AU
C      1     6  0.33453455826337E+01 -0.95405204569983E+00 -0.89399776463991E-01
C      2     6  0.12956831529822E+01  0.22713063186885E+00  0.45974901757476E+00
C      3     6 -0.57401251800022E+00  0.21994482477651E+01 -0.23991788314939E+00
N      4     7 -0.13703651365912E+01 -0.12382318177770E+00  0.24552221239618E+00
H      5     1 -0.26966510810212E+01 -0.13487017624338E+01 -0.37595546008681E+00
[GTO]
           1 0
 s           4   1.0000000000000000     
   51.049363095579913      -0.16312063210127389     
   8.7911227406887544      -0.19911024581000730     
  0.70640422258929825       0.31882047753655751     
  0.26922813413411617       0.12706504184240380     
 p           4   1.0000000000000000     
   5.8263656140800002       0.73716451545209605     
   1.5106896018720002       0.68216371614850257     
  0.53256483288000001       0.35783053929253711     
  0.21202323690600003        5.3983030275847881E-002

           2 0
 s           4   1.0000000000000000     
   51.049363095579913      -0.16312063210127389     
   8.7911227406887544      -0.19911024581000730     
  0.70640422258929825       0.31882047753655751     
  0.26922813413411617       0.12706504184240380     
 p           4   1.0000000000000000     
   5.8263656140800002       0.73716451545209605     
   1.5106896018720002       0.68216371614850257     
  0.53256483288000001       0.35783053929253711     
  0.21202323690600003        5.3983030275847881E-002

           3 0
 s           4   1.0000000000000000     
   51.049363095579913      -0.16312063210127389     
   8.7911227406887544      -0.19911024581000730     
  0.70640422258929825       0.31882047753655751     
  0.26922813413411617       0.12706504184240380     
 p           4   1.0000000000000000     
   5.8263656140800002       0.73716451545209605     
   1.5106896018720002       0.68216371614850257     
  0.53256483288000001       0.35783053929253711     
  0.21202323690600003        5.3983030275847881E-002

           4 0
 s           4   1.0000000000000000     
   63.594024466941008      -0.19234388414721629     
   10.951417231523665      -0.23478107924953728     
  0.87999310257376984       0.37593753901700888     
  0.33538715296521110       0.14982889271862770     
 p           4   1.0000000000000000     
   7.2965040481495080       0.97658666315667420     
   1.8918745450712575       0.90372226730345739     
  0.66694432110824120       0.47404958461536373     
  0.26552202674130870        7.1516067715011844E-002

           5 0
 s           3   1.0000000000000000     
   3.3702276975336001       0.27359110588908298     
  0.61389118221497996       0.26460540653860526     
  0.16614291148415999        8.2465947534082318E-002

[MO]
Sym=     1a
Ene=  -0.71926158686567931     
Spin= Alpha
Occup=     2.00000000
           1  -5.6052030562749627E-002
           2   4.5543825348498143E-002
           3  -1.9322543487895225E-002
           4  -2.4148297130387486E-003
           5 -0.30408289994937160     
           6  0.15720562775505964     
           7  -2.9807279878380204E-002
           8   4.0969009450104649E-002
           9 -0.34936699989906839     
          10  -9.7581340358774381E-003
          11  0.15708643198256270     
          12  -3.4758656874194174E-002
          13 -0.43182293250872034     
          14 -0.19319890601275874     
          15 -0.15508745780420785     
          16   3.4264462571768475E-002
          17  -4.2863282935261170E-002
Sym=     2a
Ene=  -0.64654584581336338     
Spin= Alpha
Occup=     2.00000000
           1 -0.43904347885984701     
           2  0.14307667773074184     
           3  -7.5784592705866238E-002
           4  -3.2306139317739235E-002
           5 -0.41832842481045152     
           6 -0.20088546680025901     
           7  0.11069447209892631     
           8   4.2177613411946459E-002
           9  0.10443088048201209     
          10 -0.12966017143645503     
          11  -2.3374895068956965E-002
          12   5.2506532450509987E-003
          13  0.26221954106989209     
          14 -0.21360266813821521     
          15   7.3892799513375435E-002
          16  -3.3984105684721898E-002
          17  0.14608722578301978     
Sym=     3a
Ene=  -0.62757998964411543     
Spin= Alpha
Occup=     2.00000000
           1 -0.19174877516954247     
           2   5.6874902578190556E-002
           3   2.8188726269911283E-003
           4  -1.0820430999013163E-002
           5  -4.5079050608076363E-002
           6  -7.7697849370759312E-002
           7  0.20463590579447691     
           8   2.3710033869251378E-002
           9  0.27480253058748205     
          10   5.1488448670050070E-002
          11   1.9651229504468036E-002
          12   4.8694775040624201E-002
          13 -0.39424404075701452     
          14  0.19445869196328183     
          15  0.36216135498430380     
          16   8.3258254219290090E-002
          17 -0.37389984741346344     
Sym=     4a
Ene=  -0.57838659302972073     
Spin= Alpha
Occup=     2.00000000
           1 -0.29611320609768854     
           2  -1.8121497490377659E-002
           3  -7.6007550261037324E-002
           4   2.2788719920379785E-002
           5   7.7818934916531496E-002
           6 -0.32194799839779537     
           7 -0.12957499167943706     
           8  0.15046395256250494     
           9 -0.35655727074771804     
          10  0.14718487383873122     
          11  -2.9646745907702676E-002
          12  0.10787131788300586     
          13   7.4159565094478172E-002
          14  0.39704759735305895     
          15 -0.31201513773819711     
          16  0.28857793387203767     
          17  -9.0686835184805234E-002
Sym=     5a
Ene=  -0.54864008912923545     
Spin= Alpha
Occup=     2.00000000
           1 -0.16325152921749922     
           2  -2.9019812077843817E-002
           3  -1.4905064925670231E-002
           4 -0.12928213031344174     
           5  -5.8795984024422390E-002
           6 -0.12774345028903811     
           7  -1.1256563816923976E-003
           8 -0.34717405149030761     
           9  -1.3233796653856075E-003
          10  0.15940662650509821     
          11  -4.8219930341792366E-002
          12 -0.31631723482680235     
          13 -0.16422111658863706     
          14  0.25805980212995006     
          15 -0.20047044404099798     
          16 -0.57640707645637546     
          17   1.4129619343747289E-002
Sym=     6a
Ene=  -0.50453265198451414     
Spin= Alpha
Occup=     2.00000000
           1  0.21047745488164707     
           2  -2.0068392318391935E-002
           3 -0.22218910775784617     
           4  -3.0621807450556503E-002
           5 -0.21533547864221364     
           6  -8.6223083863788644E-002
           7 -0.44074555986458391     
           8  -5.5739129573669416E-002
           9 -0.20599762699370058     
          10 -0.41214501928136094     
          11 -0.21614638876289574     
          12  -6.3423894526475955E-002
          13   8.2115446632779698E-002
          14  0.14689711655289139     
          15  0.29924610104243843     
          16  -9.2304318452770845E-002
          17 -0.25316908381881731     
Sym=     7a
Ene=  -0.44119452172697565     
Spin= Alpha
Occup=     2.00000000
           1 -0.25086314250196901     
           2  -3.9269512764491886E-002
           3  0.32066018064572943     
           4   7.3593592301069197E-002
           5  0.13140438120518183     
           6  0.15808617415754792     
           7  0.22803317745105528     
           8   2.8705520107214305E-002
           9 -0.58015226383692764     
          10   2.3656722888200917E-002
          11 -0.53909461068077424     
          12   6.8364206631442923E-002
          13   4.3013794318551790E-002
          14 -0.10788584517725078     
          15  0.24041748076749414     
          16 -0.16587860415667161     
          17  -4.4471938458065643E-002
Sym=     8a
Ene=  -0.43114624748388314     
Spin= Alpha
Occup=     1.99999880
           1  0.39394421646932265     
           2  0.30266461882774282     
           3  -3.0264550104205635E-002
           4 -0.49038162660398171     
           5 -0.18068119388049678     
           6  -7.5053065833277463E-002
           7  0.18980055887674113     
           8 -0.38922352043972080     
           9 -0.18663509973189596     
          10  0.18728711662657155     
          11 -0.14082231400921622     
          12  0.15171775704515139     
          13  0.12090206705215191     
          14  -2.8088476730074141E-002
          15  -1.7265695117473763E-003
          16  0.31061312449851369     
          17  -3.9490402199018254E-002
Sym=     9a
Ene=  -0.40524120588630691     
Spin= Alpha
Occup=     1.00000120
           1  0.40521507814975494     
           2  0.57547440649705539     
           3 -0.17306263997430113     
           4  0.33385961555286819     
           5  -5.7405863020519483E-002
           6  -6.4423840861895759E-002
           7  0.16674746970902896     
           8  0.36138234784273709     
           9  -5.0067060004754659E-002
          10  0.13110890332622663     
          11 -0.12345241401260180     
          12  -4.0656301006361313E-002
          13  -1.4039830279353682E-002
          14  0.15839956018645707     
          15  -6.5037834265247202E-002
          16 -0.31040304583653994     
          17   3.5242890940092558E-002
Sym=    10a
Ene=  -0.32756400932862095     
Spin= Alpha
Occup=     0.99999594
           1  -2.2829823655610048E-002
           2  0.34859299838949359     
           3  0.68647335504915308     
           4   3.0232851894943461E-002
           5  -7.8674030110450516E-002
           6   4.4793163285174582E-002
           7  -9.2464355179434826E-002
           8  -2.3290824076956554E-002
           9   8.4259884193683215E-002
          10 -0.29190899148649707     
          11  0.11496432550323739     
          12 -0.41926263848231726     
          13  0.22698467930547050     
          14  0.23177579089334382     
          15 -0.15416851702899950     
          16  0.23840044636490268     
          17 -0.16610212492911725     
Sym=    11a
Ene=  -0.30397787318049535     
Spin= Alpha
Occup=     0.00000406
           1   3.1181284945789468E-003
           2   9.5395281707555263E-002
           3  0.30406777553454140     
           4 -0.24328267444916962     
           5   1.0820702125681027E-003
           6  -1.2310246645818271E-002
           7  -5.6509552540453048E-002
           8   6.2382549348228747E-002
           9   5.2367932034370337E-003
          10 -0.30561424100035350     
          11  0.23659006725915133     
          12  0.74651787137549230     
          13  -8.7781561337238342E-002
          14  0.24762798226558089     
          15 -0.10961460862861264     
          16 -0.47167683751880968     
          17   7.5642593112558595E-002
Sym=    12a
Ene=  -0.21668459507633012     
Spin= Alpha
Occup=     0.00000000
           1  -2.5379435310686722E-002
           2   5.6407672980408254E-002
           3   5.6455664737399915E-002
           4  0.75419598411698774     
           5 -0.27524296204267007     
           6   2.6094978422687456E-002
           7  -9.7893218498399562E-002
           8 -0.71778962717528605     
           9   1.9422028770438849E-002
          10  0.12685580750094896     
          11   5.4412839594499968E-002
          12  0.36677950309270857     
          13  0.13476286615163130     
          14   2.7661087071044636E-002
          15  -2.0155667333995052E-002
          16   7.7011246357684998E-002
          17  -8.4936353884678448E-002
Sym=    13a
Ene=   -4.0355527970546382E-002
Spin= Alpha
Occup=     0.00000000
           1  -1.4697937216009089E-003
           2 -0.23805237417101943     
           3 -0.38281259094500814     
           4   2.1187116841022750E-002
           5  -7.8046764857432421E-002
           6  0.45777757095445631     
           7  0.70592666071811283     
           8  -4.7564667349621274E-002
           9  -6.7441033948955717E-002
          10 -0.44749172045503127     
          11   5.0002044558438638E-002
          12  -2.5016529464565333E-002
          13  0.52914444436950736     
          14  0.28527307552145326     
          15 -0.43880689813696255     
          16  -3.6730755734808593E-002
          17 -0.45443467478573035     
Sym=    14a
Ene=   -1.2286193831023732E-002
Spin= Alpha
Occup=     0.00000000
           1  -3.3187731254063380E-002
           2  0.12405240681674115     
           3 -0.15608406081823389     
           4  0.13702022265678360     
           5  0.35863774765709366     
           6 -0.14984136179484600     
           7  0.28619859690013488     
           8 -0.29171662943502413     
           9   1.5321625908529774E-002
          10 -0.65214023246638286     
          11 -0.24486423410602368     
          12  -5.2607000914067503E-002
          13 -0.80579096998101818     
          14  0.21026424154436163     
          15 -0.10057984810877715     
          16  0.33221043121432620     
          17  0.67685975921604791     
Sym=    15a
Ene=   0.17552485605913448     
Spin= Alpha
Occup=     0.00000000
           1 -0.17568662422553685     
           2  0.38416142204319337     
           3 -0.16470007738515030     
           4   3.8459841273116302E-002
           5  0.93091851645528600     
           6 -0.41251951791156494     
           7   6.2245053026258948E-002
           8 -0.27698771033962877     
           9 -0.40930625900183454     
          10 -0.24686499778648008     
          11  0.50204054854814739     
          12  -7.5911157462221074E-002
          13  0.19567664841434329     
          14 -0.59719729004132704     
          15   4.8060339888039393E-002
          16 -0.19407543739036845     
          17 -0.48538775084395591     
Sym=    16a
Ene=   0.41496139907143487     
Spin= Alpha
Occup=     0.00000000
           1  -3.9131320883142263E-003
           2   5.1286061258434018E-002
           3   7.8542066777351691E-002
           4  -2.2561851295151262E-002
           5   3.4832200692595357E-002
           6 -0.14311992207950280     
           7 -0.24624662485976911     
           8   6.3282472056559985E-002
           9  0.66047610564208170     
          10 -0.11957204085624691     
          11 -0.78187903265225234     
          12  0.21047607587238160     
          13 -0.30615513070637385     
          14 -0.64028404183324084     
          15 -0.88835240634358048     
          16  -2.8576010895757897E-002
          17 -0.65223149379811041     
Sym=    17a
Ene=   0.75953323228751135     
Spin= Alpha
Occup=     0.00000000
           1  0.84142856842397162     
           2 -0.77605036118426751     
           3  0.46224765696534947     
           4  0.24875701067733724     
           5 -0.48013780414193713     
           6  -1.1046745565783715     
           7  0.58815575217595562     
           8  0.14572810687056623     
           9 -0.26221287775511781     
          10 -0.18072189029162505     
          11  0.18406164482144843     
          12 -0.11921721904818461     
          13 -0.11427135380107836     
          14 -0.23852070025629715     
          15  -5.1923045217121246E-002
          16  -9.2487233833232624E-002
          17 -0.11204123110835634     
