$hessian                                                                        
        0.5270604318   0.0013369901  -0.0004702868  -0.2519188650  -0.1448811423
        0.0044575215  -0.2913970911   0.1253277089  -0.0034626393   0.0162555244
        0.0182164433  -0.0005245954
        0.0013369901   0.5033885530  -0.0139380153  -0.2099332675  -0.1248830825
        0.0035489268   0.1903760698  -0.0854619342   0.0021084907   0.0182202075
       -0.2930435363   0.0082805978
       -0.0004702868  -0.0139380153   0.0299974120   0.0064048377   0.0035120634
       -0.0097949283  -0.0054054970   0.0021526682  -0.0097471880  -0.0005290540
        0.0082732837  -0.0104552957
       -0.2519188650  -0.2099332675   0.0064048377   0.3653878452   0.1917847804
       -0.0059147965  -0.1010689643   0.0224212865  -0.0006063197  -0.0124000159
       -0.0042727994   0.0001162785
       -0.1448811423  -0.1248830825   0.0035120634   0.1917847804   0.1188988626
       -0.0035450855  -0.0364799949   0.0184219530  -0.0004302065  -0.0104236431
       -0.0124377331   0.0004632286
        0.0044575215   0.0035489268  -0.0097949283  -0.0059147965  -0.0035450855
        0.0032800408   0.0011476497  -0.0004681406   0.0031847756   0.0003096253
        0.0004642993   0.0033301119
       -0.2913970911   0.1903760698  -0.0054054970  -0.1010689643  -0.0364799949
        0.0011476497   0.4065757337  -0.1579784543   0.0043646327  -0.0141096783
        0.0040823793  -0.0001067855
        0.1253277089  -0.0854619342   0.0021526682   0.0224212865   0.0184219530
       -0.0004681406  -0.1579784543   0.0777709458  -0.0020865818   0.0102294589
       -0.0107309645   0.0004020541
       -0.0034626393   0.0021084907  -0.0097471880  -0.0006063197  -0.0004302065
        0.0031847756   0.0043646327  -0.0020865818   0.0032301634  -0.0002956737
        0.0004082975   0.0033322490
        0.0162555244   0.0182202075  -0.0005290540  -0.0124000159  -0.0104236431
        0.0003096253  -0.0141096783   0.0102294589  -0.0002956737   0.0102541697
       -0.0180260232   0.0005151024
        0.0182164433  -0.2930435363   0.0082732837  -0.0042727994  -0.0124377331
        0.0004642993   0.0040823793  -0.0107309645   0.0004082975  -0.0180260232
        0.3162122339  -0.0091458805
       -0.0005245954   0.0082805978  -0.0104552957   0.0001162785   0.0004632286
        0.0033301119  -0.0001067855   0.0004020541   0.0033322490   0.0005151024
       -0.0091458805   0.0037929347
