4
 energy: -6.507608908648 gnorm: 0.200090954418 xtb: 6.2.2 (9d81278992624c895f80dd42a50cac0aa55982e2)
C        -0.00694200000000    0.13216700000000    0.33236900000000
C        -1.19727900000000   -0.70333700000000   -0.08861300000000
C         1.27080900000000   -0.55866600000000   -0.09459700000000
H        -0.06658900000000    1.12983600000000   -0.14915900000000
4
 energy: -6.550389935894 gnorm: 0.083470052895 xtb: 6.2.2 (9d81278992624c895f80dd42a50cac0aa55982e2)
C        -0.00440896166933    0.08415668553828    0.21693938308783
C        -1.13849231362289   -0.67851019045927   -0.05018963335896
C         1.20970840608105   -0.54086257013446   -0.05588361492196
H        -0.06680813078884    1.13521607505545   -0.11086613480691
4
 energy: -6.557135300627 gnorm: 0.052200525824 xtb: 6.2.2 (9d81278992624c895f80dd42a50cac0aa55982e2)
C        -0.00244110596350    0.04709573099182    0.13162658017965
C        -1.10723713807366   -0.65494942978342   -0.02174058378283
C         1.17605586831102   -0.52111268564763   -0.02727619040391
H        -0.06637862427386    1.12896638443923   -0.08260980599291
4
 energy: -6.559365101373 gnorm: 0.034914965172 xtb: 6.2.2 (9d81278992624c895f80dd42a50cac0aa55982e2)
C        -0.00129007109545    0.02345071543922    0.03444172077599
C        -1.17189083824160   -0.65713869238167    0.00912867460290
C         1.24067108220096   -0.51572526565444    0.00327987066457
H        -0.06749117286391    1.14941324259689   -0.04685026604347
4
 energy: -6.560803471409 gnorm: 0.010310284234 xtb: 6.2.2 (9d81278992624c895f80dd42a50cac0aa55982e2)
C        -0.00128226153649    0.02422249656284    0.05642923493826
C        -1.16988577130139   -0.63673191611702    0.00212562072970
C         1.23626098757760   -0.49569328483434   -0.00370775494853
H        -0.06509395473973    1.10820270438852   -0.05484710071943
4
 energy: -6.561089800648 gnorm: 0.005158527406 xtb: 6.2.2 (9d81278992624c895f80dd42a50cac0aa55982e2)
C        -0.00071653827516    0.01371077150324    0.03564696613529
C        -1.17976886567294   -0.62414483231256    0.00904364791675
C         1.24463913034567   -0.48203572812398    0.00316596710870
H        -0.06415472639756    1.09246978893330   -0.04785658116073
4
 energy: -6.561190472343 gnorm: 0.002553811414 xtb: 6.2.2 (9d81278992624c895f80dd42a50cac0aa55982e2)
C        -0.00053408531939    0.00978423713763    0.01554320886936
C        -1.18009732205607   -0.62259799999143    0.01522519811969
C         1.24481515403701   -0.48046097835398    0.00934671472457
H        -0.06418474666155    1.09327474120778   -0.04011512171362
4
 energy: -6.561215740419 gnorm: 0.002046097973 xtb: 6.2.2 (9d81278992624c895f80dd42a50cac0aa55982e2)
C        -0.00060232510017    0.01046345248385    0.00398231826677
C        -1.17916352289699   -0.62346048263555    0.01843527520097
C         1.24400417315373   -0.48142561678417    0.01256086952110
H        -0.06423932515657    1.09442264693587   -0.03497846298884
4
 energy: -6.561223981764 gnorm: 0.000650344401 xtb: 6.2.2 (9d81278992624c895f80dd42a50cac0aa55982e2)
C        -0.00083425504372    0.01428934522616   -0.00334767404064
C        -1.17569886830440   -0.62626345498245    0.02007688254776
C         1.24090322878948   -0.48462695774999    0.01422249721219
H        -0.06437110544137    1.09660106750627   -0.03095170571931
4
 energy: -6.561225036199 gnorm: 0.000094716514 xtb: 6.2.2 (9d81278992624c895f80dd42a50cac0aa55982e2)
C        -0.00084635166260    0.01469089247113   -0.00046961828586
C        -1.17581755991890   -0.62656098001375    0.01921565808967
C         1.24105716269030   -0.48491903735596    0.01336257556148
H        -0.06439425110880    1.09678912489858   -0.03210861536529
