      -----------------------------------------------------------      
     |                   =====================                   |     
     |                           x T B                           |     
     |                   =====================                   |     
     |                         S. Grimme                         |     
     |          Mulliken Center for Theoretical Chemistry        |     
     |                    University of Bonn                     |     
      -----------------------------------------------------------      

   * xtb version 6.2.2 (9d81278992624c895f80dd42a50cac0aa55982e2) compiled by '@Darwin' on 04/03/2020

   xtb is free software: you can redistribute it and/or modify it under
   the terms of the GNU Lesser General Public License as published by
   the Free Software Foundation, either version 3 of the License, or
   (at your option) any later version.
   
   xtb is distributed in the hope that it will be useful,
   but WITHOUT ANY WARRANTY; without even the implied warranty of
   MERCHANTABILITY or FITNESS FOR A PARTICULAR PURPOSE.  See the
   GNU Lesser General Public License for more details.
   
   Cite this work as:
   * S. Grimme, C. Bannwarth, P. Shushkov, J. Chem. Theory Comput., 2017,
     13, 1989-2009. DOI: 10.1021/acs.jctc.7b00118
   * C. Bannwarth, S. Ehlert and S. Grimme., J. Chem. Theory Comput., 2019,
     15, 1652-1671. DOI: 10.1021/acs.jctc.8b01176
   * P. Pracht, E. Caldeweyher, S. Ehlert, S. Grimme, ChemRxiv, 2019, preprint.
     DOI: 10.26434/chemrxiv.8326202.v1
   
   for DFT-D4:
   * E. Caldeweyher, C. Bannwarth and S. Grimme, J. Chem. Phys., 2017,
     147, 034112. DOI: 10.1063/1.4993215
   * E. Caldeweyher, S. Ehlert, A. Hansen, H. Neugebauer, S. Spicher,
     C. Bannwarth and S. Grimme, J. Chem. Phys., 2019, 150, 154122.
     DOI: 10.1063/1.5090222
   
   for sTDA-xTB:
   * S. Grimme and C. Bannwarth, J. Chem. Phys., 2016, 145, 054103.
     DOI: 10.1063/1.4959605
   
   in the mass-spec context:
   * V. Asgeirsson, C. Bauer and S. Grimme, Chem. Sci., 2017, 8, 4879.
     DOI: 10.1039/c7sc00601b
   
   for metadynamics refer to:
   * S. Grimme, J. Chem. Theory Comput., 2019, 155, 2847-2862
     DOI: 10.1021/acs.jctc.9b00143
   
   with help from (in alphabetical order)
   C. Bannwarth, F. Bohle, G. Brandenburg, E. Caldeweyher, M. Checinski,
   S. Dohm, S. Ehlert, S. Ehrlich, F. März, H. Neugebauer, J. Pisarek,
   P. Pracht, P. Shushkov, and S. Spicher.
   
 * started run on 2020/05/12 at 11:43:51.111     

           -------------------------------------------------
          |                Calculation Setup                |
           -------------------------------------------------

          program call               : xtb --input H1C3_0_S_1.input H1C3_0_S_1.xyz --ohess --molden --namespace H1C3_0_S_1 output.out
          calculation namespace      : H1C3_0_S_1
          coordinate file            : H1C3_0_S_1.xyz
          number of atoms            :                     4
          number of electrons        :                    13
          charge                     :                     0
          spin                       :                   0.5
          first test random number   :      0.30769379366861

   ID    Z sym.   atoms
    1    6 C      1-3
    2    1 H      4

           -------------------------------------------------
          |                 G F N 2 - x T B                 |
           -------------------------------------------------

        Reference                      10.1021/acs.jctc.8b01176
      * Hamiltonian:
        H0-scaling (s, p, d)           1.850000    2.230000    2.230000
        zeta-weighting                 0.500000
      * Dispersion:
        s8                             2.700000
        a1                             0.520000
        a2                             5.000000
        s9                             5.000000
      * Repulsion:
        kExp                           1.500000    1.000000
        rExp                           1.000000
      * Coulomb:
        alpha                          2.000000
        third order                    shell-resolved
        anisotropic                    true
        a3                             3.000000
        a5                             4.000000
        cn-shift                       1.200000
        cn-exp                         4.000000
        max-rad                        5.000000


          ...................................................
          :                      SETUP                      :
          :.................................................:
          :  # basis functions                  13          :
          :  # atomic orbitals                  13          :
          :  # shells                            7          :
          :  # electrons                        13          :
          :  max. iterations                   250          :
          :  Hamiltonian                  GFN2-xTB          :
          :  restarted?                      false          :
          :  GBSA solvation                  false          :
          :  PC potential                    false          :
          :  electronic temp.          300.0000000     K    :
          :  accuracy                    1.0000000          :
          :  -> integral cutoff          0.2500000E+02      :
          :  -> integral neglect         0.1000000E-07      :
          :  -> SCF convergence          0.1000000E-05 Eh   :
          :  -> wf. convergence          0.1000000E-03 e    :
          :  Broyden damping             0.4000000          :
          ...................................................

 iter      E             dE          RMSdq      gap      omega  full diag
   1     -6.5026346 -0.650263E+01  0.116E+01    0.00       0.0  T
   2     -6.5024495  0.185084E-03  0.745E+00    0.17       1.0  T
   3     -6.4433080  0.591414E-01  0.669E+00    0.05       1.0  T
   4     -6.5495528 -0.106245E+00  0.130E+00    0.10       1.0  T
   5     -6.5508664 -0.131363E-02  0.908E-01    0.09       1.0  T
   6     -6.5284215  0.224449E-01  0.226E+00    0.09       1.0  T
   7     -6.5513307 -0.229092E-01  0.604E-01    0.05       1.0  T
   8     -6.5516966 -0.365988E-03  0.212E-01    0.06       1.0  T
   9     -6.5518604 -0.163800E-03  0.532E-02    0.06       1.0  T
  10     -6.5518585  0.197921E-05  0.593E-02    0.06       1.0  T
  11     -6.5518659 -0.746833E-05  0.137E-02    0.06       3.7  T
  12     -6.5518663 -0.376611E-06  0.568E-03    0.06       8.8  T
  13     -6.5518664 -0.109414E-06  0.309E-03    0.06      16.2  T
  14     -6.5518664 -0.176104E-07  0.783E-04    0.06      63.9  T
  15     -6.5518664 -0.195105E-08  0.648E-05    0.06     772.1  T

   *** convergence criteria satisfied after 15 iterations ***

         #    Occupation            Energy/Eh            Energy/eV
      -------------------------------------------------------------
         1        2.0000           -0.6790623             -18.4782
         2        2.0000           -0.6354089             -17.2904
         3        2.0000           -0.5734516             -15.6044
         4        2.0000           -0.5037348             -13.7073
         5        2.0000           -0.4692388             -12.7686
         6        2.0000           -0.4654366             -12.6652
         7        0.7712           -0.3876711             -10.5491 (HOMO)
         8        0.2288           -0.3853623             -10.4862 (LUMO)
         9                         -0.3662647              -9.9666
        10                         -0.3064014              -8.3376
        11                          0.0844762               2.2987
        12                          0.0975239               2.6538
        13                          0.1350583               3.6751
      -------------------------------------------------------------
                  HL-Gap            0.0023087 Eh            0.0628 eV
             Fermi-level           -0.4065353 Eh          -11.0624 eV

 SCC (total)                   0 d,  0 h,  0 min,  0.003 sec
 SCC setup                      ...        0 min,  0.000 sec (  4.343%)
 Dispersion                     ...        0 min,  0.000 sec (  0.721%)
 integral evaluation            ...        0 min,  0.001 sec ( 35.325%)
 zeroth order Hamiltonian       ...        0 min,  0.000 sec (  0.436%)
 iterations                     ...        0 min,  0.001 sec ( 38.663%)
 molecular gradient             ...        0 min,  0.000 sec ( 18.568%)
 printout                       ...        0 min,  0.000 sec (  1.593%)

         :::::::::::::::::::::::::::::::::::::::::::::::::::::
         ::                     SUMMARY                     ::
         :::::::::::::::::::::::::::::::::::::::::::::::::::::
         :: total energy              -6.507608909997 Eh    ::
         :: gradient norm              0.200091236348 Eh/a0 ::
         :: HOMO-LUMO gap              0.062823457927 eV    ::
         ::.................................................::
         :: SCC energy                -6.551866435653 Eh    ::
         :: -> isotropic ES           -0.032211807460 Eh    ::
         :: -> anisotropic ES         -0.001435535837 Eh    ::
         :: -> anisotropic XC          0.009566570573 Eh    ::
         :: -> dispersion             -0.001317948512 Eh    ::
         :: repulsion energy           0.044257502333 Eh    ::
         :: add. restraining           0.000000000000 Eh    ::
         :::::::::::::::::::::::::::::::::::::::::::::::::::::

      ----------------------------------------------------------- 
     |                   =====================                   |
     |                        A N C O P T                        |
     |                   =====================                   |
     |               Approximate Normal Coordinate               |
     |                Rational Function Optimizer                |
      ----------------------------------------------------------- 

          ...................................................
          :                      SETUP                      :
          :.................................................:
          :   optimization level            normal          :
          :   max. optcycles                   200          :
          :   ANC micro-cycles                  20          :
          :   degrees of freedom                 6          :
          :.................................................:
          :   RF solver                   davidson          :
          :   write xtbopt.log                true          :
          :   linear?                        false          :
          :   energy convergence         0.5000000E-05 Eh   :
          :   grad. convergence          0.1000000E-02 Eh/α :
          :   maximium RF displ.         1.0000000          :
          :   Hlow (freq-cutoff)         0.1000000E-01      :
          :   Hmax (freq-cutoff)         5.0000000          :
          :   S6 in model hess.         20.0000000          :
          ...................................................

generating ANC from model Hessian ...
Using Lindh-Hessian (1995)
 Shifting diagonal of input Hessian by    0.0000000000000000     
 Lowest  eigenvalues of input Hessian
   -0.000000   -0.000000   -0.000000   -0.000000    0.000000    0.000000
    0.066192    0.068554    0.090873    0.563562    0.968889    0.992422
 Highest eigenvalues
    0.066192    0.068554    0.090873    0.563562    0.968889    0.992422


........................................................................
.............................. CYCLE    1 ..............................
........................................................................
   1     -6.5518664 -0.655187E+01  0.938E-05    0.06       0.0  T
   2     -6.5518664  0.664002E-10  0.122E-04    0.06     408.2  T
   3     -6.5518664  0.168956E-08  0.604E-04    0.06      82.7  T
     SCC iter.                  ...        0 min,  0.000 sec
     gradient                   ...        0 min,  0.000 sec
 * total energy  :    -6.5076089 Eh     change        0.1349500E-08 Eh
   gradient norm :     0.2000910 Eh/α   predicted     0.0000000E+00 (-100.00%)
   displ. norm   :     0.3174982 α      lambda       -0.5815301E-01
   maximum displ.:     0.2638099 α      in ANC's #4, #5, #1, ...

........................................................................
.............................. CYCLE    2 ..............................
........................................................................
   1     -6.6266451 -0.662665E+01  0.198E+00    0.15       0.0  T
   2     -6.6256930  0.952175E-03  0.185E+00    0.03       1.0  T
   3     -6.6315772 -0.588430E-02  0.772E-01    0.09       1.0  T
   4     -6.6315725  0.471494E-05  0.217E-01    0.07       1.0  T
   5     -6.6289516  0.262089E-02  0.796E-01    0.08       1.0  T
   6     -6.6317105 -0.275883E-02  0.894E-02    0.07       1.0  T
   7     -6.6317261 -0.156198E-04  0.516E-02    0.08       1.0  T
   8     -6.6317274 -0.129880E-05  0.746E-03    0.08       6.7  T
   9     -6.6317276 -0.165676E-06  0.110E-03    0.08      45.3  T
  10     -6.6317276 -0.774518E-10  0.425E-04    0.08     117.8  T
  11     -6.6317276 -0.459572E-09  0.150E-04    0.08     332.5  T
     SCC iter.                  ...        0 min,  0.001 sec
     gradient                   ...        0 min,  0.001 sec
 * total energy  :    -6.5503899 Eh     change       -0.4278103E-01 Eh
   gradient norm :     0.0834455 Eh/α   predicted    -0.3200757E-01 ( -25.18%)
   displ. norm   :     0.2249933 α      lambda       -0.1731282E-01
   maximum displ.:     0.1908254 α      in ANC's #4, #1, #5, ...

........................................................................
.............................. CYCLE    3 ..............................
........................................................................
   1     -6.6763205 -0.667632E+01  0.149E+00    0.19       0.0  T
   2     -6.6773537 -0.103316E-02  0.878E-01    0.09       1.0  T
   3     -6.6785043 -0.115055E-02  0.567E-01    0.13       1.0  T
   4     -6.6787360 -0.231723E-03  0.108E-01    0.11       1.0  T
   5     -6.6787360 -0.958004E-08  0.537E-02    0.11       1.0  T
   6     -6.6786029  0.133075E-03  0.172E-01    0.11       1.0  T
   7     -6.6787408 -0.137919E-03  0.202E-02    0.11       2.5  T
   8     -6.6787412 -0.387172E-06  0.180E-03    0.11      27.8  T
   9     -6.6787412 -0.408478E-08  0.917E-04    0.11      54.5  T
  10     -6.6787412 -0.143562E-09  0.115E-04    0.11     434.6  T
     SCC iter.                  ...        0 min,  0.001 sec
     gradient                   ...        0 min,  0.001 sec
 * total energy  :    -6.5571353 Eh     change       -0.6745365E-02 Eh
   gradient norm :     0.0518752 Eh/α   predicted    -0.9094611E-02 (  34.83%)
   displ. norm   :     0.2801578 α      lambda       -0.6950714E-02
   maximum displ.:     0.2776310 α      in ANC's #1, #2, #4, ...

........................................................................
.............................. CYCLE    4 ..............................
........................................................................
   1     -6.6556312 -0.665563E+01  0.157E+00    0.19       0.0  T
   2     -6.6558531 -0.221884E-03  0.960E-01    0.21       1.0  T
   3     -6.6552102  0.642956E-03  0.560E-01    0.17       1.0  T
   4     -6.6561593 -0.949186E-03  0.600E-02    0.18       1.0  T
   5     -6.6561599 -0.552447E-06  0.182E-02    0.18       2.8  T
   6     -6.6561598  0.632071E-07  0.817E-03    0.18       6.1  T
   7     -6.6561583  0.148756E-05  0.149E-02    0.18       3.4  T
   8     -6.6561600 -0.164446E-05  0.137E-03    0.18      36.5  T
   9     -6.6561600 -0.848233E-09  0.229E-04    0.18     218.3  T
  10     -6.6561600 -0.431388E-11  0.419E-05    0.18    1192.5  T
     SCC iter.                  ...        0 min,  0.000 sec
     gradient                   ...        0 min,  0.000 sec
 * total energy  :    -6.5593651 Eh     change       -0.2229801E-02 Eh
   gradient norm :     0.0348195 Eh/α   predicted    -0.3748128E-02 (  68.09%)
   displ. norm   :     0.1067504 α      lambda       -0.2478223E-02
   maximum displ.:     0.0799521 α      in ANC's #2, #1, #4, ...

........................................................................
.............................. CYCLE    5 ..............................
........................................................................
   1     -6.6678245 -0.666782E+01  0.350E-01    0.30       0.0  T
   2     -6.6678560 -0.314636E-04  0.215E-01    0.29       1.0  T
   3     -6.6678345  0.214677E-04  0.111E-01    0.29       1.0  T
   4     -6.6678694 -0.348739E-04  0.272E-02    0.28       1.8  T
   5     -6.6678697 -0.375312E-06  0.648E-03    0.29       7.7  T
   6     -6.6678695  0.277565E-06  0.626E-03    0.29       8.0  T
   7     -6.6678698 -0.288024E-06  0.129E-03    0.29      38.8  T
   8     -6.6678698 -0.315996E-08  0.377E-04    0.29     132.7  T
   9     -6.6678698 -0.453637E-10  0.496E-05    0.29    1007.2  T
     SCC iter.                  ...        0 min,  0.000 sec
     gradient                   ...        0 min,  0.001 sec
 * total energy  :    -6.5608035 Eh     change       -0.1438370E-02 Eh
   gradient norm :     0.0103097 Eh/α   predicted    -0.1253233E-02 ( -12.87%)
   displ. norm   :     0.0719073 α      lambda       -0.4544118E-03
   maximum displ.:     0.0426382 α      in ANC's #1, #2, #4, ...

........................................................................
.............................. CYCLE    6 ..............................
........................................................................
   1     -6.6708275 -0.667083E+01  0.351E-01    0.30       0.0  T
   2     -6.6708313 -0.379253E-05  0.206E-01    0.30       1.0  T
   3     -6.6708294  0.187665E-05  0.340E-02    0.30       1.5  T
   4     -6.6708320 -0.259824E-05  0.169E-02    0.30       3.0  T
   5     -6.6708324 -0.357965E-06  0.315E-03    0.30      15.9  T
   6     -6.6708324 -0.491104E-09  0.936E-04    0.30      53.4  T
   7     -6.6708324  0.216320E-07  0.173E-03    0.30      28.9  T
   8     -6.6708324 -0.236277E-07  0.226E-04    0.30     221.1  T
     SCC iter.                  ...        0 min,  0.001 sec
     gradient                   ...        0 min,  0.000 sec
 * total energy  :    -6.5610898 Eh     change       -0.2863292E-03 Eh
   gradient norm :     0.0051505 Eh/α   predicted    -0.2283821E-03 ( -20.24%)
   displ. norm   :     0.0447835 α      lambda       -0.1581123E-03
   maximum displ.:     0.0343453 α      in ANC's #1, #4, #2, ...

........................................................................
.............................. CYCLE    7 ..............................
........................................................................
   1     -6.6719657 -0.667197E+01  0.257E-01    0.29       0.0  T
   2     -6.6719684 -0.269168E-05  0.141E-01    0.29       1.0  T
   3     -6.6719632  0.521638E-05  0.483E-02    0.29       1.0  T
   4     -6.6719701 -0.688661E-05  0.166E-02    0.29       3.0  T
   5     -6.6719702 -0.562000E-07  0.105E-03    0.29      47.6  T
   6     -6.6719701  0.847477E-08  0.112E-03    0.29      44.8  T
   7     -6.6719702 -0.716039E-08  0.593E-04    0.29      84.3  T
   8     -6.6719702 -0.214239E-08  0.953E-05    0.29     524.5  T
     SCC iter.                  ...        0 min,  0.000 sec
     gradient                   ...        0 min,  0.000 sec
 * total energy  :    -6.5611905 Eh     change       -0.1006717E-03 Eh
   gradient norm :     0.0024733 Eh/α   predicted    -0.7921400E-04 ( -21.31%)
   displ. norm   :     0.0257492 α      lambda       -0.3813662E-04
   maximum displ.:     0.0176658 α      in ANC's #1, #4, #2, ...

........................................................................
.............................. CYCLE    8 ..............................
........................................................................
   1     -6.6720740 -0.667207E+01  0.146E-01    0.29       0.0  T
   2     -6.6720744 -0.420864E-06  0.789E-02    0.29       1.0  T
   3     -6.6720746 -0.128077E-06  0.128E-02    0.29       3.9  T
   4     -6.6720745  0.381443E-07  0.351E-03    0.29      14.2  T
   5     -6.6720746 -0.438587E-07  0.801E-04    0.29      62.4  T
   6     -6.6720746 -0.936995E-09  0.707E-04    0.29      70.7  T
     SCC iter.                  ...        0 min,  0.000 sec
     gradient                   ...        0 min,  0.001 sec
 * total energy  :    -6.5612157 Eh     change       -0.2526808E-04 Eh
   gradient norm :     0.0019748 Eh/α   predicted    -0.1908072E-04 ( -24.49%)
   displ. norm   :     0.0219223 α      lambda       -0.1326642E-04
   maximum displ.:     0.0174534 α      in ANC's #2, #4, #1, ...

........................................................................
.............................. CYCLE    9 ..............................
........................................................................
   1     -6.6723309 -0.667233E+01  0.114E-01    0.31       0.0  T
   2     -6.6723311 -0.209882E-06  0.654E-02    0.31       1.0  T
   3     -6.6723309  0.207612E-06  0.111E-02    0.31       4.5  T
   4     -6.6723312 -0.270907E-06  0.563E-03    0.31       8.9  T
   5     -6.6723312 -0.277486E-07  0.615E-04    0.31      81.4  T
   6     -6.6723312  0.687200E-08  0.929E-04    0.31      53.8  T
     SCC iter.                  ...        0 min,  0.000 sec
     gradient                   ...        0 min,  0.000 sec
 * total energy  :    -6.5612240 Eh     change       -0.8241344E-05 Eh
   gradient norm :     0.0006459 Eh/α   predicted    -0.6635983E-05 ( -19.48%)
   displ. norm   :     0.0064116 α      lambda       -0.1407077E-05
   maximum displ.:     0.0045389 α      in ANC's #4, #1, #2, ...

........................................................................
.............................. CYCLE   10 ..............................
........................................................................
   1     -6.6721261 -0.667213E+01  0.362E-02    0.31       0.0  T
   2     -6.6721261 -0.584433E-07  0.200E-02    0.31       2.5  T
   3     -6.6721259  0.197115E-06  0.793E-03    0.31       6.3  T
   4     -6.6721260 -0.466396E-07  0.522E-03    0.31       9.6  T
   5     -6.6721261 -0.117355E-06  0.345E-03    0.31      14.5  T
   6     -6.6721262 -0.749927E-07  0.125E-04    0.31     399.6  T
   7     -6.6721262 -0.859846E-11  0.396E-05    0.31    1263.9  T
     SCC iter.                  ...        0 min,  0.000 sec
     gradient                   ...        0 min,  0.001 sec
 * total energy  :    -6.5612250 Eh     change       -0.1054435E-05 Eh
   gradient norm :     0.0000926 Eh/α   predicted    -0.7040009E-06 ( -33.23%)
   displ. norm   :     0.0005097 α      lambda       -0.1653766E-07
   maximum displ.:     0.0003922 α      in ANC's #2, #1, #4, ...

   *** GEOMETRY OPTIMIZATION CONVERGED AFTER 10 ITERATIONS ***

------------------------------------------------------------------------
 total energy gain   :        -0.0536161 Eh      -33.6446 kcal/mol
 total RMSD          :         0.3956915 a0        0.2094 Å
 total power (kW/mol):       -14.0769120 (step)-8476.4695 (real)
------------------------------------------------------------------------

 ANCopt (total)                0 d,  0 h,  0 min,  0.017 sec
 optimizer setup                ...        0 min,  0.000 sec (  0.423%)
 model hessian                  ...        0 min,  0.000 sec (  0.505%)
 ANC generation                 ...        0 min,  0.000 sec (  0.235%)
 coordinate transformation      ...        0 min,  0.000 sec (  0.230%)
 single point calculation       ...        0 min,  0.016 sec ( 94.524%)
 optimization log               ...        0 min,  0.000 sec (  1.094%)
 hessian update                 ...        0 min,  0.000 sec (  0.103%)
 rational function              ...        0 min,  0.000 sec (  1.062%)

================
 final structure:
================
4
 xtb: 6.2.2 (9d81278992624c895f80dd42a50cac0aa55982e2)
C        -0.00084635166260    0.01469089247113   -0.00046961828586
C        -1.17581755991890   -0.62656098001375    0.01921565808967
C         1.24105716269030   -0.48491903735596    0.01336257556148
H        -0.06439425110880    1.09678912489858   -0.03210861536529

 Bond Distances (Angstroems)
 ---------------------------
C1-C2=1.3387         C1-C3=1.3387         C1-H4=1.0844         C2-C1=1.3387         C3-C1=1.3387         H4-C1=1.0844         
 C  H  Rav=1.0844 sigma=0.0000  Rmin=1.0844  Rmax=1.0844     1
 C  C  Rav=1.3387 sigma=0.0000  Rmin=1.3387  Rmax=1.3387     2

 selected bond angles (degree)
 --------------------
C3-C1-C2=129.44                H4-C1-C2=115.28                H4-C1-C3=115.28                

 selected dihedral angles (degree)
 ---------------------------------

           -------------------------------------------------
          |                Final Singlepoint                |
           -------------------------------------------------

          ...................................................
          :                      SETUP                      :
          :.................................................:
          :  # basis functions                  13          :
          :  # atomic orbitals                  13          :
          :  # shells                            7          :
          :  # electrons                        13          :
          :  max. iterations                   250          :
          :  Hamiltonian                  GFN2-xTB          :
          :  restarted?                      false          :
          :  GBSA solvation                  false          :
          :  PC potential                    false          :
          :  electronic temp.          300.0000000     K    :
          :  accuracy                    1.0000000          :
          :  -> integral cutoff          0.2500000E+02      :
          :  -> integral neglect         0.1000000E-07      :
          :  -> SCF convergence          0.1000000E-05 Eh   :
          :  -> wf. convergence          0.1000000E-03 e    :
          :  Broyden damping             0.4000000          :
          ...................................................

 iter      E             dE          RMSdq      gap      omega  full diag
   1     -6.6721262 -0.667213E+01  0.581E-06    0.31       0.0  T
   2     -6.6721262 -0.213163E-13  0.338E-06    0.31   14790.1  T
   3     -6.6721262  0.461853E-13  0.338E-06    0.31   14778.8  T

   *** convergence criteria satisfied after 3 iterations ***

         #    Occupation            Energy/Eh            Energy/eV
      -------------------------------------------------------------
         1        2.0000           -0.6844580             -18.6251
         2        2.0000           -0.6377314             -17.3536
         3        2.0000           -0.5740501             -15.6207
         4        2.0000           -0.4889124             -13.3040
         5        2.0000           -0.4793158             -13.0428
         6        2.0000           -0.4384158             -11.9299
         7        0.9972           -0.3664296              -9.9711 (HOMO)
         8        0.0022           -0.3550559              -9.6616 (LUMO)
         9        0.0006           -0.3537812              -9.6269
        10                         -0.2013837              -5.4799
        11                          0.1833591               4.9895
        12                          0.3813721              10.3777
        13                          0.5757732              15.6676
      -------------------------------------------------------------
                  HL-Gap            0.0113738 Eh            0.3095 eV
             Fermi-level           -0.3816381 Eh          -10.3849 eV

 SCC (total)                   0 d,  0 h,  0 min,  0.001 sec
 SCC setup                      ...        0 min,  0.000 sec (  2.883%)
 Dispersion                     ...        0 min,  0.000 sec (  0.474%)
 integral evaluation            ...        0 min,  0.000 sec ( 38.676%)
 zeroth order Hamiltonian       ...        0 min,  0.000 sec (  0.550%)
 iterations                     ...        0 min,  0.000 sec ( 13.524%)
 molecular gradient             ...        0 min,  0.001 sec ( 40.725%)
 printout                       ...        0 min,  0.000 sec (  2.788%)

         :::::::::::::::::::::::::::::::::::::::::::::::::::::
         ::                     SUMMARY                     ::
         :::::::::::::::::::::::::::::::::::::::::::::::::::::
         :: total energy              -6.561225035984 Eh    ::
         :: gradient norm              0.000094631896 Eh/a0 ::
         :: HOMO-LUMO gap              0.309496257224 eV    ::
         ::.................................................::
         :: SCC energy                -6.672126165740 Eh    ::
         :: -> isotropic ES           -0.021091010914 Eh    ::
         :: -> anisotropic ES         -0.000699110652 Eh    ::
         :: -> anisotropic XC          0.010619934759 Eh    ::
         :: -> dispersion             -0.001315105189 Eh    ::
         :: repulsion energy           0.110901115325 Eh    ::
         :: add. restraining           0.000000000000 Eh    ::
         :::::::::::::::::::::::::::::::::::::::::::::::::::::

           ------------------------------------------------- 
          |                Numerical Hessian                |
           ------------------------------------------------- 
step length          :   0.00500
SCC accuracy         :   0.30000
Hessian scale factor :   1.00000
frozen atoms in %    :   0.00000    0
RMS gradient         :   0.00009
estimated CPU  time      0.00 min
estimated wall time      0.00 min

writing file <hessian>.

 projected vibrational frequencies (cm-1)
eigval :       -0.00    -0.00     0.00     0.00     0.00     0.00
eigval :      342.15   414.09   482.68  1297.33  1403.15  2993.87
           -------------------------------------------------
          |                Property Printout                |
           -------------------------------------------------

    * Orbital Energies and Occupations

         #    Occupation            Energy/Eh            Energy/eV
      -------------------------------------------------------------
         1        2.0000           -0.6844580             -18.6251
         2        2.0000           -0.6377314             -17.3536
         3        2.0000           -0.5740501             -15.6207
         4        2.0000           -0.4889124             -13.3040
         5        2.0000           -0.4793158             -13.0428
         6        2.0000           -0.4384158             -11.9299
         7        0.9972           -0.3664296              -9.9711 (HOMO)
         8        0.0022           -0.3550559              -9.6616 (LUMO)
         9        0.0006           -0.3537812              -9.6269
        10                         -0.2013837              -5.4799
        11                          0.1833591               4.9895
        12                          0.3813721              10.3777
        13                          0.5757732              15.6676
      -------------------------------------------------------------
                  HL-Gap            0.0113738 Eh            0.3095 eV
             Fermi-level           -0.3816381 Eh          -10.3849 eV

     #   Z        covCN         q      C6AA      α(0)
     1   6 C      2.886     0.052    26.840     8.494
     2   6 C      0.993    -0.122    39.936    10.621
     3   6 C      0.993    -0.122    39.936    10.621
     4   1 H      0.925     0.193     1.136     1.667

 Mol. C6AA /au·bohr⁶  :        356.541948
 Mol. C8AA /au·bohr⁸  :       9904.815152
 Mol. α(0) /au        :         31.401784


Wiberg/Mayer (AO) data.
largest (>0.10) Wiberg bond orders for each atom
          total WBO             WBO to atom ...
     1  C   3.986        C    3 1.607    C    2 1.607    H    4 0.773
     2  C   2.088        C    1 1.607    C    3 0.386
     3  C   2.088        C    1 1.607    C    2 0.386
     4  H   0.963        C    1 0.773

MOs/occ written to file <molden.input>


molecular dipole:
                 x           y           z       tot (Debye)
 q only:       -0.039       0.658      -0.019
   full:       -0.062       1.055      -0.031       2.686
molecular quadrupole (traceless):
                xx          xy          yy          xz          yz          zz
 q only:       -1.550      -0.161       1.190       0.006      -0.024       0.360
  q+dip:       -3.275      -0.336       2.430       0.013      -0.046       0.845
   full:       -4.890      -0.490       3.440       0.019      -0.058       1.450

           -------------------------------------------------
          |                Geometry Summary                 |
Molecule has the following symmetry elements: (C2) 2*(sigma) 
It seems to be the C2v point group
           -------------------------------------------------

      molecular mass/u    :       37.0401484
   center of mass at/Å    :        0.0191263      -0.3258019       0.0095384
  moments of inertia/u·Å² :        0.4722598E+01   0.3519974E+02   0.3992234E+02
rotational constants/cm⁻¹ :        0.3569567E+01   0.4789135E+00   0.4222606E+00

 * 1 selected distances

     #   Z        #   Z                                     value/Å
     1   6 C      4   1 H                                 1.0844242 (max)

 * 1 distinct bonds (by element types)

   Z      Z             #   av. dist./Å        max./Å        min./Å
   1 H    6 C           1     1.0844242     1.0844242     1.0844242

           -------------------------------------------------
          |               Frequency Printout                |
           -------------------------------------------------
 projected vibrational frequencies (cm-1)
eigval :       -0.00    -0.00     0.00     0.00     0.00     0.00
eigval :      342.15   414.09   482.68  1297.33  1403.15  2993.87
 reduced masses (amu)
   1: 11.95   2: 11.88   3: 11.78   4: 11.56   5: 11.65   6:  7.03   7: 11.72   8:  6.08
   9:  2.04  10: 11.77  11: 11.84  12:  1.84
 IR intensities (amu)
   1:  0.15   2:  0.08   3:  0.11   4:  0.16   5:  0.07   6:  0.46   7:  0.17   8:  0.07
   9:  0.25  10:  0.40  11:  0.01  12:  0.31
 Raman intensities (amu)
   1:  0.00   2:  0.00   3:  0.00   4:  0.00   5:  0.00   6:  0.00   7:  0.00   8:  0.00
   9:  0.00  10:  0.00  11:  0.00  12:  0.00
 output can be read by thermo (or use thermo option).
 writing <g98.out> molden fake output.
 recommended (thermochemical) frequency scaling factor: 1.0
           -------------------------------------------------
          |             Thermodynamic Functions             |
           -------------------------------------------------

c2v symmetry found (for desy threshold:  0.10E+00) used in thermo

          ...................................................
          :                      SETUP                      :
          :.................................................:
          :  # frequencies                           6      :
          :  # imaginary freq.                       0      :
          :  linear?                             false      :
          :  only rotor calc.                    false      :
          :  symmetry                              c2v      :
          :  rotational number                       2      :
          :  scaling factor                  1.0000000      :
          :  rotor cutoff                   50.0000000 cm⁻¹ :
          :  imag. cutoff                  -20.0000000 cm⁻¹ :
          :.................................................:

    mode    ω/cm⁻¹     T·S(HO)/kcal·mol⁻¹    T·S(FR)/kcal·mol⁻¹   T·S(vib)
   ------------------------------------------------------------------------
   ------------------------------------------------------------------------

   temp. (K)  partition function   enthalpy   heat capacity  entropy
                                   cal/mol     cal/K/mol   cal/K/mol   J/K/mol
 298.15  VIB   1.59                  578.483      4.574      2.863
         ROT  0.311E+04              888.752      2.981     18.964
         INT  0.495E+04             1467.235      7.555     21.827
         TR   0.218E+27             1481.254      4.968     36.741
         TOT                        2948.4891    12.5227    58.5681   245.0491

   temp. (K)  partition function   enthalpy   heat capacity  entropy
                                   cal/mol     cal/K/mol   cal/K/mol   J/K/mol
 120.00  VIB   1.03                   29.013      1.124      0.295
         ROT   795.                  357.707      2.981     16.251
         INT   816.                  386.720      4.105     16.547
         TR   0.557E+26              596.178      4.968     32.222
         TOT                         982.8983     9.0729    48.7682   204.0460

   temp. (K)  partition function   enthalpy   heat capacity  entropy
                                   cal/mol     cal/K/mol   cal/K/mol   J/K/mol
 100.00  VIB   1.01                   11.573      0.632      0.138
         ROT   604.                  298.089      2.981     15.708
         INT   611.                  309.662      3.612     15.845
         TR   0.424E+26              496.815      4.968     31.316
         TOT                         806.4772     8.5806    47.1616   197.3242

   temp. (K)  partition function   enthalpy   heat capacity  entropy
                                   cal/mol     cal/K/mol   cal/K/mol   J/K/mol
  80.00  VIB   1.00                    3.009      0.250      0.043
         ROT   432.                  238.471      2.981     15.043
         INT   434.                  241.481      3.231     15.086
         TR   0.303E+26              397.452      4.968     30.208
         TOT                         638.9325     8.1995    45.2943   189.5112

   temp. (K)  partition function   enthalpy   heat capacity  entropy
                                   cal/mol     cal/K/mol   cal/K/mol   J/K/mol
  60.00  VIB   1.00                    0.338      0.049      0.006
         ROT   281.                  178.853      2.981     14.185
         INT   281.                  179.192      3.030     14.191
         TR   0.197E+26              298.089      4.968     28.780
         TOT                         477.2805     7.9977    42.9709   179.7903

   temp. (K)  partition function   enthalpy   heat capacity  entropy
                                   cal/mol     cal/K/mol   cal/K/mol   J/K/mol
  40.00  VIB   1.00                    0.005      0.002     -0.000
         ROT   153.                  119.236      2.981     12.976
         INT   153.                  119.240      2.982     12.976
         TR   0.107E+26              198.726      4.968     26.766
         TOT                         317.9665     7.9506    39.7424   166.2820

   temp. (K)  partition function   enthalpy   heat capacity  entropy
                                   cal/mol     cal/K/mol   cal/K/mol   J/K/mol
  20.00  VIB   1.00                    0.000      0.000     -0.001
         ROT   54.1                   59.618      2.981     10.910
         INT   54.1                   59.618      2.981     10.909
         TR   0.379E+25               99.363      4.968     23.324
         TOT                         158.9808     7.9490    34.2335   143.2330

   temp. (K)  partition function   enthalpy   heat capacity  entropy
                                   cal/mol     cal/K/mol   cal/K/mol   J/K/mol
  10.00  VIB   1.00                    0.000      0.000     -0.001
         ROT   19.1                   29.809      2.981      8.844
         INT   19.1                   29.809      2.981      8.843
         TR   0.134E+25               49.681      4.968     19.882
         TOT                          79.4904     7.9490    28.7248   120.1845

       T/K    H(0)-H(T)+PV         H(T)/Eh          T*S/Eh         G(T)/Eh
   ------------------------------------------------------------------------
    298.15    0.469872E-02    0.204939E-01    0.278276E-01   -0.733373E-02
    120.00    0.156635E-02    0.173615E-01    0.932604E-02    0.803548E-02
    100.00    0.128520E-02    0.170804E-01    0.751568E-02    0.956469E-02
     80.00    0.101820E-02    0.168134E-01    0.577448E-02    0.110389E-01
     60.00    0.760595E-03    0.165558E-01    0.410871E-02    0.124471E-01
     40.00    0.506712E-03    0.163019E-01    0.253334E-02    0.137685E-01
     20.00    0.253352E-03    0.160485E-01    0.109109E-02    0.149574E-01
     10.00    0.126676E-03    0.159218E-01    0.457759E-03    0.154641E-01 (used)
   ------------------------------------------------------------------------

         :::::::::::::::::::::::::::::::::::::::::::::::::::::
         ::                  THERMODYNAMIC                  ::
         :::::::::::::::::::::::::::::::::::::::::::::::::::::
         :: total free energy          -6.545760949629 Eh   ::
         ::.................................................::
         :: total energy               -6.561225035963 Eh   ::
         :: zero point energy           0.015795169076 Eh   ::
         :: G(RRHO) w/o ZPVE           -0.000331082742 Eh   ::
         :: G(RRHO) contrib.            0.015464086334 Eh   ::
         :::::::::::::::::::::::::::::::::::::::::::::::::::::

optimized geometry written to: xtbopt.xyz


           -------------------------------------------------
          | TOTAL ENERGY               -6.561225035963 Eh   |
          | TOTAL ENTHALPY             -6.545303190871 Eh   |
          | TOTAL FREE ENERGY          -6.545760949629 Eh   |
          | GRADIENT NORM               0.000094611780 Eh/α |
          | HOMO-LUMO GAP               0.309496243569 eV   |
           -------------------------------------------------

------------------------------------------------------------------------
 * finished run on 2020/05/12 at 11:43:51.186     
------------------------------------------------------------------------
 total:
 * wall-time:     0 d,  0 h,  0 min,  0.074 sec
 *  cpu-time:     0 d,  0 h,  0 min,  0.073 sec
 * ratio c/w:     0.982 speedup
 SCF:
 * wall-time:     0 d,  0 h,  0 min,  0.003 sec
 *  cpu-time:     0 d,  0 h,  0 min,  0.003 sec
 * ratio c/w:     0.999 speedup
 ANC optimizer:
 * wall-time:     0 d,  0 h,  0 min,  0.019 sec
 *  cpu-time:     0 d,  0 h,  0 min,  0.019 sec
 * ratio c/w:     0.989 speedup
 numerical hessian:
 * wall-time:     0 d,  0 h,  0 min,  0.036 sec
 *  cpu-time:     0 d,  0 h,  0 min,  0.036 sec
 * ratio c/w:     0.996 speedup

