 Entering Gaussian System
 *********************************************
 Gaussian 98:
 frequency output generated by the xtb code
 *********************************************
                         Standard orientation:
 --------------------------------------------------------------------
  Center     Atomic     Atomic              Coordinates (Angstroms)
  Number     Number      Type              X           Y           Z
 --------------------------------------------------------------------
    1          6             0       -0.000846    0.014691   -0.000470
    2          6             0       -1.175821   -0.626555    0.019221
    3          6             0        1.241055   -0.484926    0.013359
    4          1             0       -0.064389    1.096789   -0.032110
 --------------------------------------------------------------------
     1 basis functions        1 primitive gaussians
     1 alpha electrons        1 beta electrons

 Harmonic frequencies (cm**-1), IR intensities (KM/Mole),
 Raman scattering activities (A**4/amu), Raman depolarization ratios,
 reduced masses (AMU), force constants (mDyne/A) and normal coordinates:
                      1                      2                      3
                        a                      a                      a 
 Frequencies --   342.1535               414.0907               482.6767
 Red. masses --    11.7219                 6.0801                 2.0394
 Frc consts  --     0.0000                 0.0000                 0.0000
 IR Inten    --     0.1682                 0.0665                 0.2517
 Raman Activ --     0.0000                 0.0000                 0.0000
 Depolar     --     0.0000                 0.0000                 0.0000
 Atom AN      X      Y      Z        X      Y      Z        X      Y      Z
   1   6    -0.04   0.61  -0.02     0.00   0.02   0.62    -0.24  -0.01   0.00
   2   6     0.46  -0.30   0.01    -0.00  -0.01  -0.20    -0.01  -0.13   0.00
   3   6    -0.42  -0.35   0.01    -0.00  -0.01  -0.20    -0.02   0.13  -0.00
   4   1    -0.01   0.16  -0.00    -0.01  -0.02  -0.73     0.95   0.06  -0.01
                      4                      5                      6
                        a                      a                      a 
 Frequencies --  1297.3329              1403.1545              2993.8694
 Red. masses --    11.7653                11.8434                 1.8416
 Frc consts  --     0.0000                 0.0000                 0.0000
 IR Inten    --     0.4027                 0.0075                 0.3067
 Raman Activ --     0.0000                 0.0000                 0.0000
 Depolar     --     0.0000                 0.0000                 0.0000
 Atom AN      X      Y      Z        X      Y      Z        X      Y      Z
   1   6     0.03  -0.48   0.01     0.76   0.04  -0.00    -0.02   0.27  -0.01
   2   6     0.54   0.29  -0.01    -0.39  -0.23   0.01    -0.01   0.00  -0.00
   3   6    -0.57   0.23  -0.01    -0.41   0.18  -0.00     0.01   0.00  -0.00
   4   1     0.01  -0.15   0.00     0.12   0.01  -0.00     0.06  -0.96   0.03
