      -----------------------------------------------------------      
     |                   =====================                   |     
     |                           x T B                           |     
     |                   =====================                   |     
     |                         S. Grimme                         |     
     |          Mulliken Center for Theoretical Chemistry        |     
     |                    University of Bonn                     |     
      -----------------------------------------------------------      

   * xtb version 6.2.2 (9d81278992624c895f80dd42a50cac0aa55982e2) compiled by '@Darwin' on 04/03/2020

   xtb is free software: you can redistribute it and/or modify it under
   the terms of the GNU Lesser General Public License as published by
   the Free Software Foundation, either version 3 of the License, or
   (at your option) any later version.
   
   xtb is distributed in the hope that it will be useful,
   but WITHOUT ANY WARRANTY; without even the implied warranty of
   MERCHANTABILITY or FITNESS FOR A PARTICULAR PURPOSE.  See the
   GNU Lesser General Public License for more details.
   
   Cite this work as:
   * S. Grimme, C. Bannwarth, P. Shushkov, J. Chem. Theory Comput., 2017,
     13, 1989-2009. DOI: 10.1021/acs.jctc.7b00118
   * C. Bannwarth, S. Ehlert and S. Grimme., J. Chem. Theory Comput., 2019,
     15, 1652-1671. DOI: 10.1021/acs.jctc.8b01176
   * P. Pracht, E. Caldeweyher, S. Ehlert, S. Grimme, ChemRxiv, 2019, preprint.
     DOI: 10.26434/chemrxiv.8326202.v1
   
   for DFT-D4:
   * E. Caldeweyher, C. Bannwarth and S. Grimme, J. Chem. Phys., 2017,
     147, 034112. DOI: 10.1063/1.4993215
   * E. Caldeweyher, S. Ehlert, A. Hansen, H. Neugebauer, S. Spicher,
     C. Bannwarth and S. Grimme, J. Chem. Phys., 2019, 150, 154122.
     DOI: 10.1063/1.5090222
   
   for sTDA-xTB:
   * S. Grimme and C. Bannwarth, J. Chem. Phys., 2016, 145, 054103.
     DOI: 10.1063/1.4959605
   
   in the mass-spec context:
   * V. Asgeirsson, C. Bauer and S. Grimme, Chem. Sci., 2017, 8, 4879.
     DOI: 10.1039/c7sc00601b
   
   for metadynamics refer to:
   * S. Grimme, J. Chem. Theory Comput., 2019, 155, 2847-2862
     DOI: 10.1021/acs.jctc.9b00143
   
   with help from (in alphabetical order)
   C. Bannwarth, F. Bohle, G. Brandenburg, E. Caldeweyher, M. Checinski,
   S. Dohm, S. Ehlert, S. Ehrlich, F. März, H. Neugebauer, J. Pisarek,
   P. Pracht, P. Shushkov, and S. Spicher.
   
 * started run on 2020/05/12 at 11:45:08.467     

           -------------------------------------------------
          |                Calculation Setup                |
           -------------------------------------------------

          program call               : xtb --input H1C4_2_S_1.input H1C4_2_S_1.xyz --ohess --molden --namespace H1C4_2_S_1 output.out
          calculation namespace      : H1C4_2_S_1
          coordinate file            : H1C4_2_S_1.xyz
          number of atoms            :                     5
          number of electrons        :                    17
          charge                     :                     0
          spin                       :                   0.5
          first test random number   :      0.66437910284378

   ID    Z sym.   atoms
    1    6 C      1-4
    2    1 H      5

           -------------------------------------------------
          |                 G F N 2 - x T B                 |
           -------------------------------------------------

        Reference                      10.1021/acs.jctc.8b01176
      * Hamiltonian:
        H0-scaling (s, p, d)           1.850000    2.230000    2.230000
        zeta-weighting                 0.500000
      * Dispersion:
        s8                             2.700000
        a1                             0.520000
        a2                             5.000000
        s9                             5.000000
      * Repulsion:
        kExp                           1.500000    1.000000
        rExp                           1.000000
      * Coulomb:
        alpha                          2.000000
        third order                    shell-resolved
        anisotropic                    true
        a3                             3.000000
        a5                             4.000000
        cn-shift                       1.200000
        cn-exp                         4.000000
        max-rad                        5.000000


          ...................................................
          :                      SETUP                      :
          :.................................................:
          :  # basis functions                  17          :
          :  # atomic orbitals                  17          :
          :  # shells                            9          :
          :  # electrons                        17          :
          :  max. iterations                   250          :
          :  Hamiltonian                  GFN2-xTB          :
          :  restarted?                      false          :
          :  GBSA solvation                  false          :
          :  PC potential                    false          :
          :  electronic temp.          300.0000000     K    :
          :  accuracy                    1.0000000          :
          :  -> integral cutoff          0.2500000E+02      :
          :  -> integral neglect         0.1000000E-07      :
          :  -> SCF convergence          0.1000000E-05 Eh   :
          :  -> wf. convergence          0.1000000E-03 e    :
          :  Broyden damping             0.4000000          :
          ...................................................

 iter      E             dE          RMSdq      gap      omega  full diag
   1     -8.5860174 -0.858602E+01  0.110E+01    0.86       0.0  T
   2     -8.4583289  0.127689E+00  0.713E+00    0.77       1.0  T
   3     -7.6399805  0.818348E+00  0.107E+01    0.96       1.0  T
   4     -8.4822548 -0.842274E+00  0.434E+00    0.77       1.0  T
   5     -8.6130798 -0.130825E+00  0.199E+00    0.77       1.0  T
   6     -8.6246900 -0.116102E-01  0.101E+00    0.76       1.0  T
   7     -8.6224916  0.219842E-02  0.864E-01    0.78       1.0  T
   8     -8.6228420 -0.350409E-03  0.662E-01    0.74       1.0  T
   9     -8.6247784 -0.193647E-02  0.183E-01    0.75       1.0  T
  10     -8.6250376 -0.259152E-03  0.508E-02    0.76       1.0  T
  11     -8.6250454 -0.776696E-05  0.271E-02    0.76       1.6  T
  12     -8.6250483 -0.298158E-05  0.910E-03    0.76       4.9  T
  13     -8.6250488 -0.448893E-06  0.416E-03    0.76      10.8  T
  14     -8.6250489 -0.102523E-06  0.349E-04    0.76     128.2  T
  15     -8.6250489 -0.753770E-09  0.117E-04    0.76     383.6  T

   *** convergence criteria satisfied after 15 iterations ***

         #    Occupation            Energy/Eh            Energy/eV
      -------------------------------------------------------------
         1        2.0000           -0.6692452             -18.2111
       ...           ...                  ...                  ...
         3        2.0000           -0.5961676             -16.2225
         4        2.0000           -0.5449184             -14.8280
         5        2.0000           -0.4924682             -13.4007
         6        2.0000           -0.4771984             -12.9852
         7        2.0000           -0.4734906             -12.8843
         8        1.9998           -0.4284101             -11.6576
         9        1.0002           -0.4121511             -11.2152 (HOMO)
        10        0.0000           -0.3842685             -10.4565 (LUMO)
        11                         -0.3375595              -9.1855
        12                         -0.3257977              -8.8654
        13                         -0.2947673              -8.0210
        14                          0.0844986               2.2993
       ...                                ...                  ...
        17                          0.1381988               3.7606
      -------------------------------------------------------------
                  HL-Gap            0.0278826 Eh            0.7587 eV
             Fermi-level           -0.4092452 Eh          -11.1361 eV

 SCC (total)                   0 d,  0 h,  0 min,  0.004 sec
 SCC setup                      ...        0 min,  0.000 sec (  3.077%)
 Dispersion                     ...        0 min,  0.000 sec (  0.611%)
 integral evaluation            ...        0 min,  0.001 sec ( 28.767%)
 zeroth order Hamiltonian       ...        0 min,  0.000 sec (  0.511%)
 iterations                     ...        0 min,  0.002 sec ( 38.385%)
 molecular gradient             ...        0 min,  0.001 sec ( 25.646%)
 printout                       ...        0 min,  0.000 sec (  2.677%)

         :::::::::::::::::::::::::::::::::::::::::::::::::::::
         ::                     SUMMARY                     ::
         :::::::::::::::::::::::::::::::::::::::::::::::::::::
         :: total energy              -8.567342478679 Eh    ::
         :: gradient norm              0.298354350209 Eh/a0 ::
         :: HOMO-LUMO gap              0.758723868052 eV    ::
         ::.................................................::
         :: SCC energy                -8.625048891231 Eh    ::
         :: -> isotropic ES           -0.022768372831 Eh    ::
         :: -> anisotropic ES         -0.000618575566 Eh    ::
         :: -> anisotropic XC          0.013530629217 Eh    ::
         :: -> dispersion             -0.002290363063 Eh    ::
         :: repulsion energy           0.057706314626 Eh    ::
         :: add. restraining           0.000000000000 Eh    ::
         :::::::::::::::::::::::::::::::::::::::::::::::::::::

      ----------------------------------------------------------- 
     |                   =====================                   |
     |                        A N C O P T                        |
     |                   =====================                   |
     |               Approximate Normal Coordinate               |
     |                Rational Function Optimizer                |
      ----------------------------------------------------------- 

          ...................................................
          :                      SETUP                      :
          :.................................................:
          :   optimization level            normal          :
          :   max. optcycles                   200          :
          :   ANC micro-cycles                  20          :
          :   degrees of freedom                 9          :
          :.................................................:
          :   RF solver                   davidson          :
          :   write xtbopt.log                true          :
          :   linear?                        false          :
          :   energy convergence         0.5000000E-05 Eh   :
          :   grad. convergence          0.1000000E-02 Eh/α :
          :   maximium RF displ.         1.0000000          :
          :   Hlow (freq-cutoff)         0.1000000E-01      :
          :   Hmax (freq-cutoff)         5.0000000          :
          :   S6 in model hess.         20.0000000          :
          ...................................................

generating ANC from model Hessian ...
Using Lindh-Hessian (1995)
 Shifting diagonal of input Hessian by    7.2304535040398719E-003
 Lowest  eigenvalues of input Hessian
   -0.000000   -0.000000   -0.000000    0.000000    0.000000    0.000000
    0.010000    0.017143    0.041065    0.090835    0.111457    0.613186
    0.752161    0.906746    1.040020
 Highest eigenvalues
    0.090835    0.111457    0.613186    0.752161    0.906746    1.040020


........................................................................
.............................. CYCLE    1 ..............................
........................................................................
   1     -8.6250489 -0.862505E+01  0.271E-05    0.76       0.0  T
   2     -8.6250489  0.461036E-10  0.696E-05    0.76     642.7  T
   3     -8.6250489 -0.484874E-10  0.145E-05    0.76    3093.9  T
     SCC iter.                  ...        0 min,  0.001 sec
     gradient                   ...        0 min,  0.001 sec
 * total energy  :    -8.5673425 Eh     change       -0.1839666E-09 Eh
   gradient norm :     0.2983539 Eh/α   predicted     0.0000000E+00 (-100.00%)
   displ. norm   :     0.4148378 α      lambda       -0.1184827E+00
   maximum displ.:     0.3670941 α      in ANC's #6, #7, #2, ...

........................................................................
.............................. CYCLE    2 ..............................
........................................................................
   1     -8.7681386 -0.876814E+01  0.286E+00    1.40       0.0  T
   2     -8.6355775  0.132561E+00  0.434E+00    1.22       1.0  T
   3     -8.7682533 -0.132676E+00  0.222E+00    1.41       1.0  T
   4     -8.7599603  0.829301E-02  0.220E+00    1.38       1.0  T
   5     -8.7904910 -0.305307E-01  0.356E-01    1.38       1.0  T
   6     -8.7905298 -0.387974E-04  0.305E-01    1.39       1.0  T
   7     -8.7905854 -0.555460E-04  0.233E-01    1.39       1.0  T
   8     -8.7907629 -0.177500E-03  0.316E-02    1.39       1.4  T
   9     -8.7907624  0.466685E-06  0.189E-02    1.39       2.4  T
  10     -8.7907636 -0.117192E-05  0.252E-03    1.39      17.7  T
  11     -8.7907635  0.258953E-07  0.289E-03    1.39      15.5  T
  12     -8.7907636 -0.305150E-07  0.379E-04    1.39     117.9  T
  13     -8.7907636 -0.781313E-10  0.162E-04    1.39     275.8  T
     SCC iter.                  ...        0 min,  0.001 sec
     gradient                   ...        0 min,  0.001 sec
 * total energy  :    -8.6670775 Eh     change       -0.9973506E-01 Eh
   gradient norm :     0.1850645 Eh/α   predicted    -0.6943620E-01 ( -30.38%)
   displ. norm   :     0.6125793 α      lambda       -0.1011142E+00
   maximum displ.:     0.4818880 α      in ANC's #6, #3, #1, ...

........................................................................
.............................. CYCLE    3 ..............................
........................................................................
   1     -9.0080087 -0.900801E+01  0.465E+00    2.72       0.0  T
   2     -8.9985980  0.941075E-02  0.304E+00    2.66       1.0  T
   3     -8.8407829  0.157815E+00  0.493E+00    2.95       1.0  T
   4     -8.9964963 -0.155713E+00  0.176E+00    2.50       1.0  T
   5     -9.0112406 -0.147442E-01  0.872E-01    2.70       1.0  T
   6     -9.0135144 -0.227381E-02  0.321E-01    2.71       1.0  T
   7     -9.0136388 -0.124437E-03  0.177E-01    2.70       1.0  T
   8     -9.0136616 -0.227930E-04  0.479E-02    2.71       1.0  T
   9     -9.0136620 -0.402408E-06  0.347E-02    2.71       1.3  T
  10     -9.0136678 -0.578675E-05  0.106E-02    2.71       4.2  T
  11     -9.0136679 -0.125676E-06  0.534E-03    2.71       8.4  T
  12     -9.0136680 -0.562702E-07  0.543E-04    2.71      82.3  T
  13     -9.0136680 -0.405192E-09  0.763E-05    2.71     586.2  T
     SCC iter.                  ...        0 min,  0.001 sec
     gradient                   ...        0 min,  0.001 sec
 * total energy  :    -8.7195176 Eh     change       -0.5244003E-01 Eh
   gradient norm :     0.1636036 Eh/α   predicted    -0.6952884E-01 (  32.59%)
   displ. norm   :     0.7025755 α      lambda       -0.6132174E-01
   maximum displ.:     0.6093318 α      in ANC's #3, #1, #5, ...

........................................................................
.............................. CYCLE    4 ..............................
........................................................................
   1     -8.9844171 -0.898442E+01  0.208E+00    2.84       0.0  T
   2     -8.9718791  0.125381E-01  0.186E+00    3.14       1.0  T
   3     -8.9681278  0.375122E-02  0.166E+00    2.74       1.0  T
   4     -8.9846244 -0.164966E-01  0.660E-01    2.89       1.0  T
   5     -8.9870091 -0.238471E-02  0.202E-01    2.95       1.0  T
   6     -8.9872809 -0.271726E-03  0.746E-02    2.97       1.0  T
   7     -8.9872868 -0.594152E-05  0.508E-02    2.97       1.0  T
   8     -8.9872935 -0.673266E-05  0.274E-03    2.98      16.3  T
   9     -8.9872935 -0.199058E-07  0.894E-04    2.98      50.0  T
  10     -8.9872936 -0.367400E-08  0.162E-04    2.98     276.2  T
     SCC iter.                  ...        0 min,  0.001 sec
     gradient                   ...        0 min,  0.001 sec
 * total energy  :    -8.7541825 Eh     change       -0.3466492E-01 Eh
   gradient norm :     0.1074559 Eh/α   predicted    -0.4579547E-01 (  32.11%)
   displ. norm   :     0.6303220 α      lambda       -0.2853612E-01
   maximum displ.:     0.4835616 α      in ANC's #1, #3, #6, ...

........................................................................
.............................. CYCLE    5 ..............................
........................................................................
   1     -8.9724029 -0.897240E+01  0.143E+00    3.57       0.0  T
   2     -8.9665346  0.586837E-02  0.129E+00    3.44       1.0  T
   3     -8.9660887  0.445805E-03  0.120E+00    3.62       1.0  T
   4     -8.9702183 -0.412955E-02  0.743E-01    3.53       1.0  T
   5     -8.9741024 -0.388414E-02  0.108E-01    3.57       1.0  T
   6     -8.9741580 -0.555485E-04  0.593E-02    3.56       1.0  T
   7     -8.9741513  0.673369E-05  0.369E-02    3.57       1.2  T
   8     -8.9741591 -0.786630E-05  0.129E-02    3.56       3.5  T
   9     -8.9741596 -0.472213E-06  0.143E-03    3.56      31.3  T
  10     -8.9741596 -0.181579E-08  0.441E-04    3.56     101.5  T
  11     -8.9741596 -0.109244E-09  0.929E-05    3.56     481.6  T
     SCC iter.                  ...        0 min,  0.001 sec
     gradient                   ...        0 min,  0.001 sec
 * total energy  :    -8.7659424 Eh     change       -0.1175992E-01 Eh
   gradient norm :     0.1257768 Eh/α   predicted    -0.1993686E-01 (  69.53%)
   displ. norm   :     0.4822188 α      lambda       -0.2706858E-01
   maximum displ.:     0.3797850 α      in ANC's #1, #4, #6, ...

........................................................................
.............................. CYCLE    6 ..............................
........................................................................
   1     -8.9972187 -0.899722E+01  0.153E+00    3.37       0.0  T
   2     -8.9952419  0.197678E-02  0.107E+00    3.29       1.0  T
   3     -8.9682670  0.269749E-01  0.183E+00    3.48       1.0  T
   4     -8.9930166 -0.247496E-01  0.832E-01    3.30       1.0  T
   5     -8.9977771 -0.476052E-02  0.601E-02    3.34       1.0  T
   6     -8.9977796 -0.256247E-05  0.389E-02    3.34       1.1  T
   7     -8.9977793  0.341535E-06  0.131E-02    3.34       3.4  T
   8     -8.9977798 -0.528126E-06  0.294E-03    3.34      15.2  T
   9     -8.9977799 -0.296188E-07  0.929E-04    3.34      48.1  T
  10     -8.9977799  0.140373E-09  0.455E-04    3.34      98.4  T
     SCC iter.                  ...        0 min,  0.001 sec
     gradient                   ...        0 min,  0.001 sec
 * total energy  :    -8.7775803 Eh     change       -0.1163786E-01 Eh
   gradient norm :     0.1247387 Eh/α   predicted    -0.1668149E-01 (  43.34%)
   displ. norm   :     0.5064327 α      lambda       -0.3293176E-01
   maximum displ.:     0.3656096 α      in ANC's #2, #6, #5, ...

........................................................................
.............................. CYCLE    7 ..............................
........................................................................
   1     -9.1151979 -0.911520E+01  0.186E+00    4.30       0.0  T
   2     -9.1152278 -0.298868E-04  0.124E+00    4.52       1.0  T
   3     -9.1087733  0.645445E-02  0.123E+00    4.21       1.0  T
   4     -9.1163963 -0.762294E-02  0.155E-01    4.38       1.0  T
   5     -9.1164656 -0.692775E-04  0.566E-02    4.41       1.0  T
   6     -9.1164567  0.887330E-05  0.455E-02    4.42       1.0  T
   7     -9.1164665 -0.984431E-05  0.664E-03    4.41       6.7  T
   8     -9.1164668 -0.235139E-06  0.156E-03    4.41      28.8  T
   9     -9.1164668 -0.620947E-09  0.247E-04    4.41     180.8  T
  10     -9.1164668 -0.467004E-10  0.845E-05    4.41     529.2  T
     SCC iter.                  ...        0 min,  0.001 sec
     gradient                   ...        0 min,  0.001 sec
 * total energy  :    -8.7569450 Eh     change        0.2063526E-01 Eh
   gradient norm :     0.4327251 Eh/α   predicted    -0.2068896E-01 (-200.26%)
   displ. norm   :     0.3520634 α      lambda       -0.8191465E-01
   maximum displ.:     0.2599100 α      in ANC's #2, #4, #7, ...

........................................................................
.............................. CYCLE    8 ..............................
........................................................................
   1     -9.0636195 -0.906362E+01  0.110E+00    4.07       0.0  T
   2     -9.0636582 -0.387143E-04  0.769E-01    4.04       1.0  T
   3     -9.0614048  0.225342E-02  0.672E-01    4.11       1.0  T
   4     -9.0639141 -0.250929E-02  0.153E-01    4.08       1.0  T
   5     -9.0639336 -0.195364E-04  0.107E-01    4.09       1.0  T
   6     -9.0639685 -0.349041E-04  0.736E-02    4.08       1.0  T
   7     -9.0639859 -0.173415E-04  0.123E-02    4.09       3.6  T
   8     -9.0639862 -0.344466E-06  0.315E-03    4.08      14.2  T
   9     -9.0639862 -0.225160E-07  0.608E-04    4.08      73.5  T
  10     -9.0639862 -0.102770E-08  0.979E-05    4.08     456.6  T
     SCC iter.                  ...        0 min,  0.001 sec
     gradient                   ...        0 min,  0.001 sec
 * total energy  :    -8.7837807 Eh     change       -0.2683567E-01 Eh
   gradient norm :     0.1207465 Eh/α   predicted    -0.4603393E-01 (  71.54%)
   displ. norm   :     0.6633702 α      lambda       -0.5975575E-01
   maximum displ.:     0.3883168 α      in ANC's #1, #5, #2, ...

........................................................................
.............................. CYCLE    9 ..............................
........................................................................
   1     -8.9478789 -0.894788E+01  0.223E+00    3.45       0.0  T
   2     -8.8425590  0.105320E+00  0.370E+00    3.22       1.0  T
   3     -8.9500181 -0.107459E+00  0.159E+00    3.44       1.0  T
   4     -8.9544892 -0.447108E-02  0.110E+00    3.46       1.0  T
   5     -8.9602388 -0.574969E-02  0.396E-01    3.45       1.0  T
   6     -8.9614456 -0.120672E-02  0.174E-01    3.44       1.0  T
   7     -8.9614691 -0.235611E-04  0.104E-01    3.44       1.0  T
   8     -8.9614729 -0.380800E-05  0.288E-02    3.44       1.6  T
   9     -8.9614736 -0.666076E-06  0.126E-02    3.44       3.6  T
  10     -8.9614736 -0.676574E-08  0.527E-03    3.44       8.5  T
  11     -8.9614736 -0.366624E-07  0.438E-04    3.44     102.1  T
  12     -8.9614736 -0.442940E-09  0.120E-04    3.44     372.5  T
     SCC iter.                  ...        0 min,  0.001 sec
     gradient                   ...        0 min,  0.001 sec
 * total energy  :    -8.7532236 Eh     change        0.3055706E-01 Eh
   gradient norm :     0.2067515 Eh/α   predicted    -0.4302591E-01 (-240.81%)
   displ. norm   :     0.3423776 α      lambda       -0.4869457E-01
   maximum displ.:     0.1962955 α      in ANC's #5, #1, #6, ...

........................................................................
.............................. CYCLE   10 ..............................
........................................................................
   1     -9.0043842 -0.900438E+01  0.154E+00    3.81       0.0  T
   2     -8.9897972  0.145870E-01  0.161E+00    3.97       1.0  T
   3     -8.9969965 -0.719936E-02  0.138E+00    3.77       1.0  T
   4     -9.0056501 -0.865355E-02  0.563E-01    3.81       1.0  T
   5     -9.0068990 -0.124897E-02  0.213E-01    3.83       1.0  T
   6     -9.0071140 -0.215001E-03  0.122E-01    3.85       1.0  T
   7     -9.0071365 -0.224324E-04  0.363E-02    3.85       1.2  T
   8     -9.0071376 -0.114313E-05  0.106E-02    3.85       4.2  T
   9     -9.0071377 -0.557583E-07  0.181E-03    3.85      24.8  T
  10     -9.0071377 -0.285851E-08  0.455E-04    3.85      98.2  T
  11     -9.0071377 -0.954586E-09  0.108E-04    3.85     413.4  T
     SCC iter.                  ...        0 min,  0.001 sec
     gradient                   ...        0 min,  0.001 sec
 * total energy  :    -8.7872158 Eh     change       -0.3399216E-01 Eh
   gradient norm :     0.0769620 Eh/α   predicted    -0.2720132E-01 ( -19.98%)
   displ. norm   :     0.5503000 α      lambda       -0.3354969E-01
   maximum displ.:     0.3894217 α      in ANC's #3, #5, #2, ...

........................................................................
.............................. CYCLE   11 ..............................
........................................................................
   1     -9.1201996 -0.912020E+01  0.160E+00    4.36       0.0  T
   2     -9.1167780  0.342157E-02  0.115E+00    4.53       1.0  T
   3     -9.1141056  0.267242E-02  0.134E+00    4.27       1.0  T
   4     -9.1211837 -0.707813E-02  0.376E-01    4.39       1.0  T
   5     -9.1217891 -0.605353E-03  0.105E-01    4.39       1.0  T
   6     -9.1218005 -0.114262E-04  0.857E-02    4.41       1.0  T
   7     -9.1218127 -0.121885E-04  0.177E-02    4.41       2.5  T
   8     -9.1218140 -0.137079E-05  0.489E-03    4.40       9.1  T
   9     -9.1218141 -0.131998E-07  0.663E-04    4.40      67.5  T
  10     -9.1218141 -0.910157E-09  0.115E-04    4.40     389.0  T
     SCC iter.                  ...        0 min,  0.001 sec
     gradient                   ...        0 min,  0.001 sec
 * total energy  :    -8.7779187 Eh     change        0.9297112E-02 Eh
   gradient norm :     0.1796072 Eh/α   predicted    -0.2185474E-01 (-335.07%)
   displ. norm   :     0.3106532 α      lambda       -0.4432566E-01
   maximum displ.:     0.2251222 α      in ANC's #1, #3, #5, ...

........................................................................
.............................. CYCLE   12 ..............................
........................................................................
   1     -9.0544002 -0.905440E+01  0.809E-01    4.12       0.0  T
   2     -9.0499389  0.446134E-02  0.885E-01    3.98       1.0  T
   3     -9.0537375 -0.379857E-02  0.653E-01    4.13       1.0  T
   4     -9.0552268 -0.148936E-02  0.284E-01    4.10       1.0  T
   5     -9.0555405 -0.313666E-03  0.815E-02    4.10       1.0  T
   6     -9.0555837 -0.431593E-04  0.316E-02    4.09       1.4  T
   7     -9.0555864 -0.271989E-05  0.931E-03    4.09       4.8  T
   8     -9.0555864 -0.426660E-07  0.444E-03    4.09      10.1  T
   9     -9.0555865 -0.537953E-07  0.649E-04    4.09      68.9  T
  10     -9.0555865 -0.182897E-09  0.102E-04    4.09     439.5  T
     SCC iter.                  ...        0 min,  0.001 sec
     gradient                   ...        0 min,  0.001 sec
 * total energy  :    -8.7957876 Eh     change       -0.1786891E-01 Eh
   gradient norm :     0.0529303 Eh/α   predicted    -0.2430166E-01 (  36.00%)
   displ. norm   :     0.1491354 α      lambda       -0.3394010E-02
   maximum displ.:     0.0836033 α      in ANC's #3, #4, #6, ...

........................................................................
.............................. CYCLE   13 ..............................
........................................................................
   1     -9.0539351 -0.905394E+01  0.459E-01    4.01       0.0  T
   2     -9.0539179  0.172625E-04  0.292E-01    4.02       1.0  T
   3     -9.0533848  0.533101E-03  0.318E-01    4.00       1.0  T
   4     -9.0539032 -0.518454E-03  0.982E-02    4.02       1.0  T
   5     -9.0539572 -0.539471E-04  0.361E-02    4.01       1.2  T
   6     -9.0539678 -0.106545E-04  0.647E-03    4.02       6.9  T
   7     -9.0539678 -0.164148E-07  0.157E-03    4.02      28.4  T
   8     -9.0539678 -0.331466E-09  0.591E-04    4.02      75.6  T
   9     -9.0539678 -0.471086E-09  0.134E-04    4.02     332.9  T
     SCC iter.                  ...        0 min,  0.001 sec
     gradient                   ...        0 min,  0.001 sec
 * total energy  :    -8.7962336 Eh     change       -0.4460102E-03 Eh
   gradient norm :     0.0541040 Eh/α   predicted    -0.1734749E-02 ( 288.95%)
   displ. norm   :     0.2001725 α      lambda       -0.2399666E-02
   maximum displ.:     0.1621392 α      in ANC's #1, #6, #5, ...

........................................................................
.............................. CYCLE   14 ..............................
........................................................................
   1     -9.0529797 -0.905298E+01  0.435E-01    4.11       0.0  T
   2     -9.0528924  0.873365E-04  0.274E-01    4.12       1.0  T
   3     -9.0516917  0.120064E-02  0.439E-01    4.07       1.0  T
   4     -9.0529446 -0.125288E-02  0.101E-01    4.12       1.0  T
   5     -9.0530093 -0.647022E-04  0.171E-02    4.11       2.6  T
   6     -9.0530097 -0.349402E-06  0.703E-03    4.11       6.4  T
   7     -9.0530098 -0.119943E-06  0.200E-03    4.11      22.4  T
   8     -9.0530098 -0.233019E-07  0.899E-04    4.11      49.8  T
   9     -9.0530098 -0.160042E-08  0.109E-04    4.11     411.2  T
     SCC iter.                  ...        0 min,  0.001 sec
     gradient                   ...        0 min,  0.001 sec
 * total energy  :    -8.7974970 Eh     change       -0.1263433E-02 Eh
   gradient norm :     0.0283224 Eh/α   predicted    -0.1247912E-02 (  -1.23%)
   displ. norm   :     0.0981998 α      lambda       -0.1784457E-02
   maximum displ.:     0.0644277 α      in ANC's #3, #2, #5, ...

........................................................................
.............................. CYCLE   15 ..............................
........................................................................
   1     -9.0795849 -0.907958E+01  0.309E-01    4.27       0.0  T
   2     -9.0795330  0.519398E-04  0.214E-01    4.29       1.0  T
   3     -9.0792227  0.310234E-03  0.276E-01    4.25       1.0  T
   4     -9.0795660 -0.343266E-03  0.914E-02    4.28       1.0  T
   5     -9.0796161 -0.500564E-04  0.183E-02    4.27       2.4  T
   6     -9.0796158  0.320276E-06  0.141E-02    4.28       3.2  T
   7     -9.0796165 -0.784703E-06  0.313E-03    4.28      14.3  T
   8     -9.0796165 -0.913495E-08  0.722E-04    4.28      62.0  T
   9     -9.0796165 -0.172189E-08  0.146E-04    4.28     306.9  T
     SCC iter.                  ...        0 min,  0.001 sec
     gradient                   ...        0 min,  0.001 sec
 * total energy  :    -8.7973053 Eh     change        0.1917472E-03 Eh
   gradient norm :     0.0575570 Eh/α   predicted    -0.9008334E-03 (-569.80%)
   displ. norm   :     0.0965837 α      lambda       -0.1781202E-02
   maximum displ.:     0.0681950 α      in ANC's #1, #2, #6, ...

........................................................................
.............................. CYCLE   16 ..............................
........................................................................
   1     -9.0659746 -0.906597E+01  0.289E-01    4.17       0.0  T
   2     -9.0659273  0.472723E-04  0.191E-01    4.16       1.0  T
   3     -9.0652545  0.672779E-03  0.329E-01    4.20       1.0  T
   4     -9.0659850 -0.730514E-03  0.245E-02    4.17       1.8  T
   5     -9.0659875 -0.247713E-05  0.945E-03    4.17       4.7  T
   6     -9.0659876 -0.142113E-06  0.651E-03    4.17       6.9  T
   7     -9.0659878 -0.132623E-06  0.244E-03    4.17      18.3  T
   8     -9.0659878 -0.157132E-07  0.793E-04    4.17      56.4  T
   9     -9.0659878 -0.487409E-09  0.255E-04    4.17     175.1  T
     SCC iter.                  ...        0 min,  0.001 sec
     gradient                   ...        0 min,  0.001 sec
 * total energy  :    -8.7982748 Eh     change       -0.9695521E-03 Eh
   gradient norm :     0.0149535 Eh/α   predicted    -0.8989078E-03 (  -7.29%)
   displ. norm   :     0.0601205 α      lambda       -0.2354064E-03
   maximum displ.:     0.0399947 α      in ANC's #6, #1, #8, ...

........................................................................
.............................. CYCLE   17 ..............................
........................................................................
   1     -9.0655173 -0.906552E+01  0.173E-01    4.18       0.0  T
   2     -9.0654987  0.186055E-04  0.115E-01    4.19       1.0  T
   3     -9.0652554  0.243359E-03  0.199E-01    4.16       1.0  T
   4     -9.0655207 -0.265334E-03  0.185E-02    4.18       2.4  T
   5     -9.0655224 -0.171002E-05  0.807E-03    4.18       5.5  T
   6     -9.0655225 -0.904030E-07  0.194E-03    4.18      23.0  T
   7     -9.0655225 -0.171597E-07  0.103E-03    4.18      43.5  T
   8     -9.0655225 -0.376862E-08  0.350E-04    4.18     127.9  T
   9     -9.0655225 -0.153065E-09  0.497E-05    4.18     899.5  T
     SCC iter.                  ...        0 min,  0.001 sec
     gradient                   ...        0 min,  0.001 sec
 * total energy  :    -8.7984052 Eh     change       -0.1304148E-03 Eh
   gradient norm :     0.0071193 Eh/α   predicted    -0.1181286E-03 (  -9.42%)
   displ. norm   :     0.0558426 α      lambda       -0.1250166E-03
   maximum displ.:     0.0357699 α      in ANC's #1, #6, #8, ...

........................................................................
.............................. CYCLE   18 ..............................
........................................................................
   1     -9.0671926 -0.906719E+01  0.160E-01    4.19       0.0  T
   2     -9.0671883  0.436648E-05  0.991E-02    4.20       1.0  T
   3     -9.0670478  0.140472E-03  0.152E-01    4.18       1.0  T
   4     -9.0671925 -0.144686E-03  0.184E-02    4.20       2.4  T
   5     -9.0671941 -0.166722E-05  0.815E-03    4.20       5.5  T
   6     -9.0671943 -0.122348E-06  0.125E-03    4.20      35.7  T
   7     -9.0671943 -0.996033E-08  0.470E-04    4.20      95.2  T
   8     -9.0671943 -0.247342E-09  0.259E-04    4.20     173.0  T
     SCC iter.                  ...        0 min,  0.001 sec
     gradient                   ...        0 min,  0.001 sec
 * total energy  :    -8.7984854 Eh     change       -0.8019682E-04 Eh
   gradient norm :     0.0083580 Eh/α   predicted    -0.6270115E-04 ( -21.82%)
   displ. norm   :     0.0242166 α      lambda       -0.6498875E-04
   maximum displ.:     0.0118504 α      in ANC's #8, #3, #1, ...

........................................................................
.............................. CYCLE   19 ..............................
........................................................................
   1     -9.0707108 -0.907071E+01  0.106E-01    4.23       0.0  T
   2     -9.0706881  0.226633E-04  0.823E-02    4.24       1.0  T
   3     -9.0706577  0.304060E-04  0.107E-01    4.22       1.0  T
   4     -9.0707146 -0.569100E-04  0.207E-02    4.23       2.2  T
   5     -9.0707164 -0.171945E-05  0.803E-03    4.23       5.6  T
   6     -9.0707165 -0.165170E-06  0.485E-03    4.23       9.2  T
   7     -9.0707166 -0.320649E-07  0.339E-04    4.23     131.9  T
   8     -9.0707166 -0.409544E-09  0.134E-04    4.23     333.8  T
     SCC iter.                  ...        0 min,  0.001 sec
     gradient                   ...        0 min,  0.001 sec
 * total energy  :    -8.7985259 Eh     change       -0.4043963E-04 Eh
   gradient norm :     0.0032717 Eh/α   predicted    -0.3251251E-04 ( -19.60%)
   displ. norm   :     0.0268783 α      lambda       -0.3219910E-04
   maximum displ.:     0.0195155 α      in ANC's #1, #2, #8, ...

........................................................................
.............................. CYCLE   20 ..............................
........................................................................
   1     -9.0712465 -0.907125E+01  0.966E-02    4.25       0.0  T
   2     -9.0712379  0.859134E-05  0.662E-02    4.25       1.0  T
   3     -9.0711784  0.594634E-04  0.108E-01    4.24       1.0  T
   4     -9.0712483 -0.698912E-04  0.855E-03    4.25       5.2  T
   5     -9.0712485 -0.205825E-06  0.455E-03    4.25       9.8  T
   6     -9.0712485  0.216086E-07  0.287E-03    4.25      15.6  T
   7     -9.0712486 -0.474175E-07  0.342E-04    4.25     130.9  T
   8     -9.0712486 -0.344368E-09  0.146E-04    4.25     307.3  T
     SCC iter.                  ...        0 min,  0.001 sec
     gradient                   ...        0 min,  0.001 sec
 * total energy  :    -8.7985503 Eh     change       -0.2444667E-04 Eh
   gradient norm :     0.0030658 Eh/α   predicted    -0.1611318E-04 ( -34.09%)
   displ. norm   :     0.0346133 α      lambda       -0.4694979E-04
   maximum displ.:     0.0196438 α      in ANC's #1, #2, #9, ...
 * RMSD in coord.:     1.4328183 α      energy gain  -0.2312079E+00 Eh

generating ANC from model Hessian ...
Using Lindh-Hessian (1995)
 Shifting diagonal of input Hessian by    9.6670246180480153E-003
 Lowest  eigenvalues of input Hessian
   -0.000000   -0.000000    0.000000    0.000000    0.000000    0.000000
    0.010000    0.011369    0.107858    0.272443    0.452373    0.855909
    0.996377    2.044833    2.769841
 Highest eigenvalues
    0.272443    0.452373    0.855909    0.996377    2.044833    2.769841


........................................................................
.............................. CYCLE   21 ..............................
........................................................................
   1     -9.0717862 -0.907179E+01  0.157E-01    4.27       0.0  T
   2     -9.0717693  0.169067E-04  0.105E-01    4.28       1.0  T
   3     -9.0715982  0.171141E-03  0.175E-01    4.26       1.0  T
   4     -9.0717898 -0.191606E-03  0.138E-02    4.28       3.2  T
   5     -9.0717904 -0.621843E-06  0.748E-03    4.28       6.0  T
   6     -9.0717904  0.283120E-07  0.506E-03    4.28       8.8  T
   7     -9.0717905 -0.132060E-06  0.534E-04    4.28      83.8  T
   8     -9.0717905 -0.554483E-09  0.256E-04    4.28     174.7  T
     SCC iter.                  ...        0 min,  0.001 sec
     gradient                   ...        0 min,  0.001 sec
 * total energy  :    -8.7985831 Eh     change       -0.3278163E-04 Eh
   gradient norm :     0.0023493 Eh/α   predicted     0.0000000E+00 (-100.00%)
   displ. norm   :     0.1039186 α      lambda       -0.1186744E-03
   maximum displ.:     0.0964468 α      in ANC's #1, #2, #4, ...

........................................................................
.............................. CYCLE   22 ..............................
........................................................................
   1     -9.0704808 -0.907048E+01  0.282E-01    4.25       0.0  T
   2     -9.0704576  0.231873E-04  0.175E-01    4.24       1.0  T
   3     -9.0698588  0.598779E-03  0.299E-01    4.28       1.0  T
   4     -9.0704871 -0.628327E-03  0.954E-03    4.25       4.7  T
   5     -9.0704873 -0.157812E-06  0.608E-03    4.25       7.4  T
   6     -9.0704873 -0.543424E-07  0.415E-03    4.25      10.8  T
   7     -9.0704874 -0.701416E-07  0.663E-04    4.25      67.5  T
   8     -9.0704874 -0.165105E-08  0.292E-04    4.25     153.1  T
     SCC iter.                  ...        0 min,  0.001 sec
     gradient                   ...        0 min,  0.001 sec
 * total energy  :    -8.7985521 Eh     change        0.3099059E-04 Eh
   gradient norm :     0.0027897 Eh/α   predicted    -0.5997641E-04 (-293.53%)
   displ. norm   :     0.0651886 α      lambda       -0.1237290E-03
   maximum displ.:     0.0650785 α      in ANC's #1, #2, #3, ...

........................................................................
.............................. CYCLE   23 ..............................
........................................................................
   1     -9.0708898 -0.907089E+01  0.164E-01    4.26       0.0  T
   2     -9.0708808  0.902913E-05  0.105E-01    4.27       1.0  T
   3     -9.0706794  0.201396E-03  0.176E-01    4.24       1.0  T
   4     -9.0708919 -0.212551E-03  0.987E-03    4.26       4.5  T
   5     -9.0708924 -0.468810E-06  0.388E-03    4.26      11.5  T
   6     -9.0708924  0.262103E-08  0.325E-03    4.26      13.7  T
   7     -9.0708924 -0.396443E-07  0.400E-04    4.26     111.9  T
   8     -9.0708924  0.550209E-10  0.262E-04    4.26     170.7  T
     SCC iter.                  ...        0 min,  0.001 sec
     gradient                   ...        0 min,  0.001 sec
 * total energy  :    -8.7986048 Eh     change       -0.5270713E-04 Eh
   gradient norm :     0.0012673 Eh/α   predicted    -0.6212693E-04 (  17.87%)
   displ. norm   :     0.0692961 α      lambda       -0.2552046E-04
   maximum displ.:     0.0692365 α      in ANC's #2, #3, #5, ...

........................................................................
.............................. CYCLE   24 ..............................
........................................................................
   1     -9.0708480 -0.907085E+01  0.271E-01    4.27       0.0  T
   2     -9.0708485 -0.449570E-06  0.163E-01    4.27       1.0  T
   3     -9.0708478  0.715995E-06  0.152E-02    4.27       2.9  T
   4     -9.0708487 -0.916629E-06  0.705E-03    4.27       6.3  T
   5     -9.0708485  0.213263E-06  0.687E-03    4.27       6.5  T
   6     -9.0708488 -0.297007E-06  0.162E-03    4.27      27.6  T
   7     -9.0708488 -0.197891E-07  0.282E-04    4.27     158.4  T
   8     -9.0708488 -0.349161E-10  0.122E-04    4.27     366.6  T
     SCC iter.                  ...        0 min,  0.001 sec
     gradient                   ...        0 min,  0.001 sec
 * total energy  :    -8.7985581 Eh     change        0.4670141E-04 Eh
   gradient norm :     0.0020609 Eh/α   predicted    -0.1278616E-04 (-127.38%)
   displ. norm   :     0.0374324 α      lambda       -0.6844808E-04
   maximum displ.:     0.0370181 α      in ANC's #2, #1, #3, ...

........................................................................
.............................. CYCLE   25 ..............................
........................................................................
   1     -9.0711427 -0.907114E+01  0.144E-01    4.27       0.0  T
   2     -9.0711428 -0.119195E-06  0.867E-02    4.27       1.0  T
   3     -9.0711423  0.538150E-06  0.111E-02    4.27       4.0  T
   4     -9.0711429 -0.627147E-06  0.355E-03    4.27      12.6  T
   5     -9.0711429  0.353660E-08  0.145E-03    4.27      30.8  T
   6     -9.0711429 -0.134254E-07  0.518E-04    4.27      86.4  T
   7     -9.0711429 -0.150972E-08  0.117E-04    4.27     382.0  T
     SCC iter.                  ...        0 min,  0.001 sec
     gradient                   ...        0 min,  0.001 sec
 * total energy  :    -8.7986038 Eh     change       -0.4563132E-04 Eh
   gradient norm :     0.0009715 Eh/α   predicted    -0.3427074E-04 ( -24.90%)
   displ. norm   :     0.0287076 α      lambda       -0.1258738E-04
   maximum displ.:     0.0286177 α      in ANC's #2, #4, #1, ...

........................................................................
.............................. CYCLE   26 ..............................
........................................................................
   1     -9.0706311 -0.907063E+01  0.111E-01    4.26       0.0  T
   2     -9.0706312 -0.773001E-07  0.667E-02    4.26       1.0  T
   3     -9.0706312 -0.194888E-07  0.369E-03    4.26      12.1  T
   4     -9.0706312  0.148549E-07  0.324E-03    4.26      13.8  T
   5     -9.0706312 -0.321928E-07  0.101E-03    4.26      44.3  T
   6     -9.0706312 -0.350371E-08  0.809E-04    4.26      55.3  T
   7     -9.0706312 -0.443576E-08  0.116E-04    4.26     384.9  T
     SCC iter.                  ...        0 min,  0.001 sec
     gradient                   ...        0 min,  0.001 sec
 * total energy  :    -8.7986078 Eh     change       -0.4060304E-05 Eh
   gradient norm :     0.0013129 Eh/α   predicted    -0.6294336E-05 (  55.02%)
   displ. norm   :     0.0095254 α      lambda       -0.3062726E-05
   maximum displ.:     0.0093786 α      in ANC's #2, #4, #5, ...

........................................................................
.............................. CYCLE   27 ..............................
........................................................................
   1     -9.0711145 -0.907111E+01  0.368E-02    4.27       0.0  T
   2     -9.0711145  0.348080E-07  0.223E-02    4.27       2.0  T
   3     -9.0711120  0.244329E-05  0.192E-02    4.27       2.3  T
   4     -9.0711145 -0.248989E-05  0.168E-03    4.27      26.6  T
   5     -9.0711145 -0.122085E-07  0.813E-04    4.27      55.0  T
   6     -9.0711145 -0.146999E-08  0.910E-05    4.27     491.3  T
     SCC iter.                  ...        0 min,  0.000 sec
     gradient                   ...        0 min,  0.001 sec
 * total energy  :    -8.7986100 Eh     change       -0.2171629E-05 Eh
   gradient norm :     0.0004564 Eh/α   predicted    -0.1533531E-05 ( -29.38%)
   displ. norm   :     0.0011634 α      lambda       -0.1770172E-06
   maximum displ.:     0.0006592 α      in ANC's #2, #4, #3, ...

   *** GEOMETRY OPTIMIZATION CONVERGED AFTER 27 ITERATIONS ***

------------------------------------------------------------------------
 total energy gain   :        -0.2312675 Eh     -145.1226 kcal/mol
 total RMSD          :         1.4288243 a0        0.7561 Å
 total power (kW/mol):       -22.4886210 (step)-7140.8173 (real)
------------------------------------------------------------------------

 ANCopt (total)                0 d,  0 h,  0 min,  0.085 sec
 optimizer setup                ...        0 min,  0.000 sec (  0.086%)
 model hessian                  ...        0 min,  0.000 sec (  0.157%)
 ANC generation                 ...        0 min,  0.000 sec (  0.151%)
 coordinate transformation      ...        0 min,  0.000 sec (  0.072%)
 single point calculation       ...        0 min,  0.082 sec ( 96.854%)
 optimization log               ...        0 min,  0.001 sec (  0.862%)
 hessian update                 ...        0 min,  0.000 sec (  0.075%)
 rational function              ...        0 min,  0.001 sec (  0.752%)

================
 final structure:
================
5
 xtb: 6.2.2 (9d81278992624c895f80dd42a50cac0aa55982e2)
C        -1.29160089646307   -0.00120221021061    0.02520387061794
C        -0.08581983980134    0.04108277785760    0.01757147953281
C         1.27356363141944    0.12222054211650    0.02496683901584
C         2.44443415187381   -0.16583211306622   -0.11378969324997
H        -2.34057704702884    0.00373100330274    0.04604850408343

 Bond Distances (Angstroems)
 ---------------------------
C1-C2=1.2065         C1-H5=1.0492         C2-C1=1.2065         C2-C3=1.3618         C3-C2=1.3618         C3-C4=1.2137         
C4-C3=1.2137         H5-C1=1.0492         
 C  H  Rav=1.0492 sigma=0.0000  Rmin=1.0492  Rmax=1.0492     1
 C  C  Rav=1.2607 sigma=0.0716  Rmin=1.2065  Rmax=1.3618     3

 selected bond angles (degree)
 --------------------
H5-C1-C2=177.59                C3-C2-C1=178.44                C4-C3-C2=161.48                

 selected dihedral angles (degree)
 ---------------------------------
C3-C2-C1-H5=  6.75            C4-C3-C2-C1=176.51            
           -------------------------------------------------
          |                Final Singlepoint                |
           -------------------------------------------------

          ...................................................
          :                      SETUP                      :
          :.................................................:
          :  # basis functions                  17          :
          :  # atomic orbitals                  17          :
          :  # shells                            9          :
          :  # electrons                        17          :
          :  max. iterations                   250          :
          :  Hamiltonian                  GFN2-xTB          :
          :  restarted?                      false          :
          :  GBSA solvation                  false          :
          :  PC potential                    false          :
          :  electronic temp.          300.0000000     K    :
          :  accuracy                    1.0000000          :
          :  -> integral cutoff          0.2500000E+02      :
          :  -> integral neglect         0.1000000E-07      :
          :  -> SCF convergence          0.1000000E-05 Eh   :
          :  -> wf. convergence          0.1000000E-03 e    :
          :  Broyden damping             0.4000000          :
          ...................................................

 iter      E             dE          RMSdq      gap      omega  full diag
   1     -9.0711145 -0.907111E+01  0.350E-05    4.27       0.0  T
   2     -9.0711145  0.121378E-10  0.525E-05    4.27     852.3  T
   3     -9.0711145 -0.154721E-10  0.179E-05    4.27    2498.4  T

   *** convergence criteria satisfied after 3 iterations ***

         #    Occupation            Energy/Eh            Energy/eV
      -------------------------------------------------------------
         1        2.0000           -0.6410151             -17.4429
       ...           ...                  ...                  ...
         3        2.0000           -0.5771614             -15.7054
         4        2.0000           -0.5176539             -14.0861
         5        2.0000           -0.4809744             -13.0880
         6        2.0000           -0.4807927             -13.0830
         7        2.0000           -0.4213366             -11.4652
         8        1.9999           -0.4168864             -11.3441
         9        1.0001           -0.4000829             -10.8868 (HOMO)
        10                         -0.2432293              -6.6186 (LUMO)
        11                         -0.2401174              -6.5339
        12                         -0.0966916              -2.6311
        13                         -0.0845035              -2.2995
        14                          0.0735465               2.0013
       ...                                ...                  ...
        17                          1.5156272              41.2423
      -------------------------------------------------------------
                  HL-Gap            0.1568536 Eh            4.2682 eV
             Fermi-level           -0.3650682 Eh           -9.9340 eV

 SCC (total)                   0 d,  0 h,  0 min,  0.003 sec
 SCC setup                      ...        0 min,  0.000 sec (  1.796%)
 Dispersion                     ...        0 min,  0.000 sec (  0.288%)
 integral evaluation            ...        0 min,  0.001 sec ( 39.904%)
 zeroth order Hamiltonian       ...        0 min,  0.000 sec (  0.802%)
 iterations                     ...        0 min,  0.000 sec ( 13.452%)
 molecular gradient             ...        0 min,  0.001 sec ( 39.634%)
 printout                       ...        0 min,  0.000 sec (  3.688%)

         :::::::::::::::::::::::::::::::::::::::::::::::::::::
         ::                     SUMMARY                     ::
         :::::::::::::::::::::::::::::::::::::::::::::::::::::
         :: total energy              -8.798609990131 Eh    ::
         :: gradient norm              0.000456439627 Eh/a0 ::
         :: HOMO-LUMO gap              4.268203873202 eV    ::
         ::.................................................::
         :: SCC energy                -9.071114515099 Eh    ::
         :: -> isotropic ES           -0.001215521857 Eh    ::
         :: -> anisotropic ES         -0.000455165099 Eh    ::
         :: -> anisotropic XC          0.014248451909 Eh    ::
         :: -> dispersion             -0.002148570630 Eh    ::
         :: repulsion energy           0.272505075600 Eh    ::
         :: add. restraining           0.000000000000 Eh    ::
         :::::::::::::::::::::::::::::::::::::::::::::::::::::

           ------------------------------------------------- 
          |                Numerical Hessian                |
           ------------------------------------------------- 
step length          :   0.00500
SCC accuracy         :   0.30000
Hessian scale factor :   1.00000
frozen atoms in %    :   0.00000    0
RMS gradient         :   0.00046
estimated CPU  time      0.00 min
estimated wall time      0.00 min

writing file <hessian>.

 projected vibrational frequencies (cm-1)
eigval :       -0.00    -0.00    -0.00    -0.00     0.00     0.00
eigval :      185.08   289.55   366.21   587.81   616.51   950.51
eigval :     2046.19  2176.31  3390.02
           -------------------------------------------------
          |                Property Printout                |
           -------------------------------------------------

    * Orbital Energies and Occupations

         #    Occupation            Energy/Eh            Energy/eV
      -------------------------------------------------------------
         1        2.0000           -0.6410148             -17.4429
         2        2.0000           -0.6296009             -17.1323
         3        2.0000           -0.5771611             -15.7054
         4        2.0000           -0.5176536             -14.0861
         5        2.0000           -0.4809742             -13.0880
         6        2.0000           -0.4807924             -13.0830
         7        2.0000           -0.4213366             -11.4652
         8        1.9999           -0.4168864             -11.3441
         9        1.0001           -0.4000832             -10.8868 (HOMO)
        10                         -0.2432293              -6.6186 (LUMO)
        11                         -0.2401174              -6.5339
        12                         -0.0966913              -2.6311
        13                         -0.0845033              -2.2995
        14                          0.0735467               2.0013
        15                          0.3453044               9.3962
        16                          1.0721060              29.1735
        17                          1.5156276              41.2423
      -------------------------------------------------------------
                  HL-Gap            0.1568539 Eh            4.2682 eV
             Fermi-level           -0.3650683 Eh           -9.9340 eV

     #   Z        covCN         q      C6AA      α(0)
     1   6 C      1.910    -0.070    33.009     9.279
     2   6 C      1.963     0.029    30.330     8.894
     3   6 C      1.963     0.021    30.518     8.921
     4   6 C      0.983    -0.079    38.397    10.409
     5   1 H      0.928     0.098     1.800     2.098

 Mol. C6AA /au·bohr⁶  :        591.106991
 Mol. C8AA /au·bohr⁸  :      16435.803473
 Mol. α(0) /au        :         39.600309


Wiberg/Mayer (AO) data.
largest (>0.10) Wiberg bond orders for each atom
          total WBO             WBO to atom ...
     1  C   3.902        C    2 2.684    H    5 0.964    C    4 0.243
     2  C   3.920        C    1 2.684    C    3 1.195
     3  C   3.854        C    4 2.637    C    2 1.195
     4  C   2.916        C    3 2.637    C    1 0.243
     5  H   0.985        C    1 0.964

MOs/occ written to file <molden.input>


molecular dipole:
                 x           y           z       tot (Debye)
 q only:       -0.580       0.033       0.024
   full:       -0.679       0.119       0.061       1.758
molecular quadrupole (traceless):
                xx          xy          yy          xz          yz          zz
 q only:       -0.041       0.183       0.018       0.076      -0.007       0.023
  q+dip:        5.627       0.489      -2.809       0.037      -0.008      -2.818
   full:        1.801       0.970      -0.869       0.342       0.005      -0.932

           -------------------------------------------------
          |                Geometry Summary                 |
           -------------------------------------------------

      molecular mass/u    :       49.0508844
   center of mass at/Å    :        0.5250239      -0.0008397      -0.0103309
  moments of inertia/u·Å² :        0.5130899E+00   0.1035625E+03   0.1040755E+03
rotational constants/cm⁻¹ :        0.3285512E+02   0.1627774E+00   0.1619750E+00

 * 3 selected distances

     #   Z        #   Z                                     value/Å
     1   6 C      2   6 C                                 1.2065464
     3   6 C      4   6 C                                 1.2137403 (max)
     1   6 C      5   1 H                                 1.0491948 (min)

 * 2 distinct bonds (by element types)

   Z      Z             #   av. dist./Å        max./Å        min./Å
   1 H    6 C           1     1.0491948     1.0491948     1.0491948
   6 C    6 C           2     1.2101433     1.2137403     1.2065464

           -------------------------------------------------
          |               Frequency Printout                |
           -------------------------------------------------
 projected vibrational frequencies (cm-1)
eigval :       -0.00    -0.00    -0.00    -0.00     0.00     0.00
eigval :      185.08   289.55   366.21   587.81   616.51   950.51
eigval :     2046.19  2176.31  3390.02
 reduced masses (amu)
   1: 10.86   2: 11.88   3: 11.71   4: 11.80   5: 12.01   6: 11.22   7: 11.46   8: 11.92
   9: 11.95  10:  2.36  11:  2.72  12: 11.68  13: 12.01  14: 11.15  15:  2.43
 IR intensities (amu)
   1:  0.09   2:  0.15   3:  0.20   4:  0.11   5:  0.17   6:  0.12   7:  0.39   8:  0.06
   9:  0.59  10:  0.24  11:  0.40  12:  0.30  13:  2.27  14:  0.81  15:  0.08
 Raman intensities (amu)
Molecule has the following symmetry elements: (sigma) 
It seems to be the Cs point group
   1:  0.00   2:  0.00   3:  0.00   4:  0.00   5:  0.00   6:  0.00   7:  0.00   8:  0.00
   9:  0.00  10:  0.00  11:  0.00  12:  0.00  13:  0.00  14:  0.00  15:  0.00
 output can be read by thermo (or use thermo option).
 writing <g98.out> molden fake output.
 recommended (thermochemical) frequency scaling factor: 1.0
           -------------------------------------------------
          |             Thermodynamic Functions             |
           -------------------------------------------------

cs  symmetry found (for desy threshold:  0.10E+00) used in thermo

          ...................................................
          :                      SETUP                      :
          :.................................................:
          :  # frequencies                           9      :
          :  # imaginary freq.                       0      :
          :  linear?                             false      :
          :  only rotor calc.                    false      :
          :  symmetry                               cs      :
          :  rotational number                       1      :
          :  scaling factor                  1.0000000      :
          :  rotor cutoff                   50.0000000 cm⁻¹ :
          :  imag. cutoff                  -20.0000000 cm⁻¹ :
          :.................................................:

    mode    ω/cm⁻¹     T·S(HO)/kcal·mol⁻¹    T·S(FR)/kcal·mol⁻¹   T·S(vib)
   ------------------------------------------------------------------------
       1    185.08    -0.00000 ( 99.47%)     0.01131 (  0.53%)     0.00006
       2    289.55    -0.00000 ( 99.91%)     0.01576 (  0.09%)     0.00001
   ------------------------------------------------------------------------

   temp. (K)  partition function   enthalpy   heat capacity  entropy
                                   cal/mol     cal/K/mol   cal/K/mol   J/K/mol
 298.15  VIB   3.07                 1082.349      7.601      5.858
         ROT  0.568E+04              888.752      2.981     20.160
         INT  0.174E+05             1971.101     10.582     26.019
         TR   0.332E+27             1481.254      4.968     37.578
         TOT                        3452.3549    15.5498    63.5965   266.0878

   temp. (K)  partition function   enthalpy   heat capacity  entropy
                                   cal/mol     cal/K/mol   cal/K/mol   J/K/mol
 120.00  VIB   1.17                  106.805      2.774      1.213
         ROT  0.145E+04              357.707      2.981     17.448
         INT  0.170E+04              464.512      5.755     18.661
         TR   0.849E+26              596.178      4.968     33.058
         TOT                        1060.6903    10.7233    51.7189   216.3919

   temp. (K)  partition function   enthalpy   heat capacity  entropy
                                   cal/mol     cal/K/mol   cal/K/mol   J/K/mol
 100.00  VIB   1.10                   58.751      2.027      0.777
         ROT  0.110E+04              298.089      2.981     16.904
         INT  0.121E+04              356.840      5.008     17.681
         TR   0.646E+26              496.815      4.968     32.153
         TOT                         853.6547     9.9765    49.8342   208.5063

   temp. (K)  partition function   enthalpy   heat capacity  entropy
                                   cal/mol     cal/K/mol   cal/K/mol   J/K/mol
  80.00  VIB   1.04                   25.748      1.276      0.412
         ROT   790.                  238.471      2.981     16.239
         INT   825.                  264.219      4.257     16.651
         TR   0.462E+26              397.452      4.968     31.045
         TOT                         661.6709     9.2250    47.6957   199.5586

   temp. (K)  partition function   enthalpy   heat capacity  entropy
                                   cal/mol     cal/K/mol   cal/K/mol   J/K/mol
  60.00  VIB   1.01                    7.291      0.590      0.150
         ROT   513.                  178.853      2.981     15.381
         INT   520.                  186.145      3.571     15.532
         TR   0.300E+26              298.089      4.968     29.616
         TOT                         484.2339     8.5394    45.1480   188.8991

   temp. (K)  partition function   enthalpy   heat capacity  entropy
                                   cal/mol     cal/K/mol   cal/K/mol   J/K/mol
  40.00  VIB   1.00                    0.708      0.121      0.021
         ROT   279.                  119.236      2.981     14.173
         INT   280.                  119.943      3.101     14.194
         TR   0.163E+26              198.726      4.968     27.603
         TOT                         318.6692     8.0696    41.7968   174.8776

   temp. (K)  partition function   enthalpy   heat capacity  entropy
                                   cal/mol     cal/K/mol   cal/K/mol   J/K/mol
  20.00  VIB   1.00                    0.001      0.001     -0.004
         ROT   98.7                   59.618      2.981     12.107
         INT   98.7                   59.619      2.981     12.103
         TR   0.577E+25               99.363      4.968     24.161
         TOT                         158.9817     7.9496    36.2638   151.7279

   temp. (K)  partition function   enthalpy   heat capacity  entropy
                                   cal/mol     cal/K/mol   cal/K/mol   J/K/mol
  10.00  VIB   1.00                    0.000      0.000     -0.008
         ROT   34.9                   29.809      2.981     10.040
         INT   34.9                   29.809      2.981     10.032
         TR   0.204E+25               49.681      4.968     20.719
         TOT                          79.4904     7.9490    30.7511   128.6624

       T/K    H(0)-H(T)+PV         H(T)/Eh          T*S/Eh         G(T)/Eh
   ------------------------------------------------------------------------
    298.15    0.550168E-02    0.296689E-01    0.302168E-01   -0.547815E-03
    120.00    0.169032E-02    0.258576E-01    0.989032E-02    0.159673E-01
    100.00    0.136039E-02    0.255276E-01    0.794158E-02    0.175861E-01
     80.00    0.105444E-02    0.252217E-01    0.608063E-02    0.191411E-01
     60.00    0.771676E-03    0.249389E-01    0.431687E-02    0.206221E-01
     40.00    0.507832E-03    0.246751E-01    0.266429E-02    0.220108E-01
     20.00    0.253353E-03    0.244206E-01    0.115580E-02    0.232648E-01
     10.00    0.126676E-03    0.242939E-01    0.490049E-03    0.238039E-01 (used)
   ------------------------------------------------------------------------

         :::::::::::::::::::::::::::::::::::::::::::::::::::::
         ::                  THERMODYNAMIC                  ::
         :::::::::::::::::::::::::::::::::::::::::::::::::::::
         :: total free energy          -8.774806101383 Eh   ::
         ::.................................................::
         :: total energy               -8.798609990503 Eh   ::
         :: zero point energy           0.024167262388 Eh   ::
         :: G(RRHO) w/o ZPVE           -0.000363373267 Eh   ::
         :: G(RRHO) contrib.            0.023803889121 Eh   ::
         :::::::::::::::::::::::::::::::::::::::::::::::::::::

optimized geometry written to: xtbopt.xyz


           -------------------------------------------------
          | TOTAL ENERGY               -8.798609990503 Eh   |
          | TOTAL ENTHALPY             -8.774316052100 Eh   |
          | TOTAL FREE ENERGY          -8.774806101383 Eh   |
          | GRADIENT NORM               0.000456508799 Eh/α |
          | HOMO-LUMO GAP               4.268212023970 eV   |
           -------------------------------------------------

------------------------------------------------------------------------
 * finished run on 2020/05/12 at 11:45:08.666     
------------------------------------------------------------------------
 total:
 * wall-time:     0 d,  0 h,  0 min,  0.197 sec
 *  cpu-time:     0 d,  0 h,  0 min,  0.197 sec
 * ratio c/w:     0.998 speedup
 SCF:
 * wall-time:     0 d,  0 h,  0 min,  0.004 sec
 *  cpu-time:     0 d,  0 h,  0 min,  0.004 sec
 * ratio c/w:     0.997 speedup
 ANC optimizer:
 * wall-time:     0 d,  0 h,  0 min,  0.088 sec
 *  cpu-time:     0 d,  0 h,  0 min,  0.088 sec
 * ratio c/w:     0.999 speedup
 numerical hessian:
 * wall-time:     0 d,  0 h,  0 min,  0.085 sec
 *  cpu-time:     0 d,  0 h,  0 min,  0.085 sec
 * ratio c/w:     0.996 speedup

