1
 energy: -3.769421097344 gnorm: 0.000000000000 xtb: 6.2.2 (9d81278992624c895f80dd42a50cac0aa55982e2)
O         0.00000000000000    0.00000000000000    0.00000000000000
