[Molden Format]
[Title]
[Atoms] AU
O      1     8 -0.11690649648814E+01 -0.65680969272658E+00  0.30098060175809E+00
C      2     6  0.99216859717175E+00  0.56646183850196E+00 -0.25936438349573E+00
H      3     1 -0.26128475931884E+01  0.36610151200513E+00 -0.12406112608789E+00
H      4     1  0.27897458506240E+01 -0.27575365779041E+00  0.82444907818929E-01
[GTO]
           1 0
 s           4   1.0000000000000000     
   69.137961906196551      -0.20478756370077797     
   11.906129132707308      -0.24997023136827334     
  0.95670827744340703       0.40025880240639616     
  0.36462520496073686       0.15952206667693555     
 p           4   1.0000000000000000     
   8.2124193257781641        1.1321556799186829     
   2.1293576997098116        1.0476840782254817     
  0.75066448202360914       0.54956508217158984     
  0.29885246543283073        8.2908486592766617E-002

           2 0
 s           4   1.0000000000000000     
   51.049363095579913      -0.16312063210127389     
   8.7911227406887544      -0.19911024581000730     
  0.70640422258929825       0.31882047753655751     
  0.26922813413411617       0.12706504184240380     
 p           4   1.0000000000000000     
   5.8263656140800002       0.73716451545209605     
   1.5106896018720002       0.68216371614850257     
  0.53256483288000001       0.35783053929253711     
  0.21202323690600003        5.3983030275847881E-002

           3 0
 s           3   1.0000000000000000     
   3.3702276975336001       0.27359110588908298     
  0.61389118221497996       0.26460540653860526     
  0.16614291148415999        8.2465947534082318E-002

           4 0
 s           3   1.0000000000000000     
   3.3702276975336001       0.27359110588908298     
  0.61389118221497996       0.26460540653860526     
  0.16614291148415999        8.2465947534082318E-002

[MO]
Sym=     1a
Ene=  -0.71288481586630248     
Spin= Alpha
Occup=     2.00000000
           1 -0.78105267364086339     
           2  -2.2213636741009124E-002
           3  -8.6980642560139848E-002
           4   3.8083334324578819E-002
           5 -0.17889477246942875     
           6  0.14006381144598526     
           7   6.6099319801011622E-002
           8  -3.0589859970540260E-002
           9 -0.17009011201744839     
          10  -5.9666901933206461E-003
Sym=     2a
Ene=  -0.62322278155650013     
Spin= Alpha
Occup=     2.00000000
           1   6.6045161759742135E-002
           2 -0.63110729226657780     
           3   2.5809491870208316E-002
           4  -2.7629889946788836E-003
           5 -0.36985461174735973     
           6   6.7001548262507787E-002
           7  0.13705158088994615     
           8  -6.0434657475851743E-002
           9  0.31148781438619627     
          10 -0.12719117120606169     
Sym=     3a
Ene=  -0.55862703362734245     
Spin= Alpha
Occup=     2.00000000
           1 -0.41468657133130149     
           2  -3.3940571095079100E-002
           3  0.68794389456084992     
           4 -0.29840060648560929     
           5  0.30303331740353390     
           6 -0.10340769246296046     
           7  0.15557191747111249     
           8  -6.6198778073652736E-002
           9  0.21305712163487039     
          10   5.3097981881089315E-002
Sym=     4a
Ene=  -0.51346251618691230     
Spin= Alpha
Occup=     2.00000000
           1   1.5272583251261349E-008
           2   1.0840946317694087E-002
           3  0.35179710834020228     
           4  0.80981401084252103     
           5   6.6399680456762988E-007
           6   4.2664109117849288E-003
           7  0.13840727219899682     
           8  0.31860397976117044     
           9   2.9682471300757870E-007
          10   1.1994314057933988E-006
Sym=     5a
Ene=  -0.50673642549294318     
Spin= Alpha
Occup=     2.00000000
           1   4.4708484900148667E-003
           2  0.28113895125236188     
           3  0.16004985259215582     
           4  -7.3289974204190825E-002
           5 -0.32591215445395777     
           6 -0.45038853561568082     
           7  -2.2410320837644104E-002
           8   1.5765908661270634E-002
           9 -0.12799565847398334     
          10 -0.49471179736142762     
Sym=     6a
Ene=  -0.33904167797492218     
Spin= Alpha
Occup=     1.00000000
           1 -0.12905094451682136     
           2   3.4579765777358641E-002
           3  0.31712993297385933     
           4 -0.13823010268651850     
           5 -0.48558757515338496     
           6  0.10516023601108422     
           7 -0.73138846590597106     
           8  0.31632064531169624     
           9  0.15694266829825754     
          10  0.23207800571833076     
Sym=     7a
Ene=  -0.27411608498731799     
Spin= Alpha
Occup=     1.00000000
           1   1.0806502286953523E-007
           2  -6.1072613237670515E-003
           3 -0.19817483535159949     
           4 -0.45618465331385627     
           5  -1.1397302422148458E-007
           6   1.1689194942649783E-002
           7  0.37931318869125868     
           8  0.87315179783862340     
           9  -1.6478148568796877E-007
          10   9.6419394574749029E-008
Sym=     8a
Ene=    7.8259828376979715E-002
Spin= Alpha
Occup=     0.00000000
           1 -0.76780829275173845     
           2  0.12820890797631654     
           3 -0.54980197284562282     
           4  0.23712722731419411     
           5  0.52344540699049735     
           6 -0.16884120388944709     
           7 -0.34276556494062405     
           8  0.15116415602539393     
           9  0.90635350428301698     
          10 -0.40659346490069509     
Sym=     9a
Ene=   0.23057389231563052     
Spin= Alpha
Occup=     0.00000000
           1  -7.8280997370463706E-002
           2  0.81812744823472028     
           3 -0.12572509767914924     
           4   4.3664375949980939E-002
           5 -0.77078231461995239     
           6  -2.6288596689905554E-002
           7  0.53405741213404578     
           8 -0.23165246083121718     
           9  0.71761504125971154     
          10  0.62380567037101953     
Sym=    10a
Ene=   0.28904884292504052     
Spin= Alpha
Occup=     0.00000000
           1 -0.31315686770955820     
           2 -0.49996432241994160     
           3 -0.25768413732723533     
           4  0.11863607473617239     
           5 -0.12533891853921866     
           6  -1.1337597693990400     
           7  -4.3703280535204603E-003
           8   1.7076541632366306E-002
           9 -0.22227351610623641     
          10  0.89744070462022918     
