 Entering Gaussian System
 *********************************************
 Gaussian 98:
 frequency output generated by the xtb code
 *********************************************
                         Standard orientation:
 --------------------------------------------------------------------
  Center     Atomic     Atomic              Coordinates (Angstroms)
  Number     Number      Type              X           Y           Z
 --------------------------------------------------------------------
    1          8             0       -0.618643   -0.347569    0.159272
    2          6             0        0.525033    0.299759   -0.137250
    3          1             0       -1.382660    0.193733   -0.065650
    4          1             0        1.476270   -0.145923    0.043628
 --------------------------------------------------------------------
     1 basis functions        1 primitive gaussians
     1 alpha electrons        1 beta electrons

 Harmonic frequencies (cm**-1), IR intensities (KM/Mole),
 Raman scattering activities (A**4/amu), Raman depolarization ratios,
 reduced masses (AMU), force constants (mDyne/A) and normal coordinates:
                      1                      2                      3
                        a                      a                      a 
 Frequencies --  -286.3645               882.0956              1124.3780
 Red. masses --     1.8907                 2.2641                 3.2964
 Frc consts  --     0.0000                 0.0000                 0.0000
 IR Inten    --     0.5636                 0.4304                 0.3303
 Raman Activ --     0.0000                 0.0000                 0.0000
 Depolar     --     0.0000                 0.0000                 0.0000
 Atom AN      X      Y      Z        X      Y      Z        X      Y      Z
   1   8    -0.00  -0.06  -0.13     0.19   0.08  -0.04    -0.10   0.25  -0.11
   2   6    -0.00  -0.09  -0.21    -0.04   0.21  -0.09     0.20  -0.21   0.09
   3   1     0.01   0.27   0.63    -0.26  -0.36   0.16    -0.53  -0.56   0.25
   4   1     0.01   0.27   0.62    -0.39  -0.67   0.30     0.23   0.29  -0.13
                      4                      5                      6
                        a                      a                      a 
 Frequencies --  1337.1305              3149.4382              3511.9711
 Red. masses --    13.4267                 1.8555                 1.8706
 Frc consts  --     0.0000                 0.0000                 0.0000
 IR Inten    --     1.0885                 0.2369                 0.2577
 Raman Activ --     0.0000                 0.0000                 0.0000
 Depolar     --     0.0000                 0.0000                 0.0000
 Atom AN      X      Y      Z        X      Y      Z        X      Y      Z
   1   8    -0.54  -0.32   0.15    -0.00  -0.01   0.00    -0.19   0.14  -0.06
   2   6     0.62   0.39  -0.18     0.25  -0.10   0.04    -0.00  -0.00   0.00
   3   1    -0.06   0.00   0.00    -0.00   0.00  -0.00     0.78  -0.54   0.22
   4   1     0.08  -0.09   0.04    -0.87   0.38  -0.15    -0.01   0.00  -0.00
