$hessian                                                                        
        0.6092965020  -0.0180245052  -0.0003139465  -0.3244502044  -0.1662551808
        0.0765854722  -0.2641641121   0.1934627042  -0.0805224498  -0.0206821854
       -0.0091830183   0.0042509241
       -0.0180245052   0.2971966193  -0.1293361971  -0.1660469187  -0.1434353400
        0.0638973435   0.1740634920  -0.1661153493   0.0703893247   0.0100079319
        0.0123540700  -0.0049504711
       -0.0003139465  -0.1293361971   0.0551497007   0.0764477193   0.0639158087
       -0.0301987024  -0.0720805933   0.0701300500  -0.0282695081  -0.0040531795
       -0.0047096616   0.0033185098
       -0.3244502044  -0.1660469187   0.0764477193   0.6240811861   0.0533644912
       -0.0315775134  -0.0318361960  -0.0124734141   0.0058800082  -0.2677947858
        0.1251558416  -0.0507502141
       -0.1662551808  -0.1434353400   0.0639158087   0.0533644912   0.2137549654
       -0.0944143471   0.0064015394   0.0131763587  -0.0050750414   0.1064891501
       -0.0834959841   0.0355735797
        0.0765854722   0.0638973435  -0.0301987024  -0.0315775134  -0.0944143471
        0.0395214250  -0.0023559442  -0.0048032135   0.0037928954  -0.0426520146
        0.0353202170  -0.0131156180
       -0.2641641121   0.1740634920  -0.0720805933  -0.0318361960   0.0064015394
       -0.0023559442   0.3006843883  -0.1790687985   0.0737662289  -0.0046840802
       -0.0013962329   0.0006703086
        0.1934627042  -0.1661153493   0.0701300500  -0.0124734141   0.0131763587
       -0.0048032135  -0.1790687985   0.1542028648  -0.0652498248  -0.0019204916
       -0.0012638742  -0.0000770117
       -0.0805224498   0.0703893247  -0.0282695081   0.0058800082  -0.0050750414
        0.0037928954   0.0737662289  -0.0652498248   0.0259015704   0.0008762127
       -0.0000644585  -0.0014249576
       -0.0206821854   0.0100079319  -0.0040531795  -0.2677947858   0.1064891501
       -0.0426520146  -0.0046840802  -0.0019204916   0.0008762127   0.2931610513
       -0.1145765905   0.0458289814
       -0.0091830183   0.0123540700  -0.0047096616   0.1251558416  -0.0834959841
        0.0353202170  -0.0013962329  -0.0012638742  -0.0000644585  -0.1145765905
        0.0724057883  -0.0305460969
        0.0042509241  -0.0049504711   0.0033185098  -0.0507502141   0.0355735797
       -0.0131156180   0.0006703086  -0.0000770117  -0.0014249576   0.0458289814
       -0.0305460969   0.0112220658
