4
 energy: -7.015504808706 gnorm: 0.075973958597 xtb: 6.2.2 (9d81278992624c895f80dd42a50cac0aa55982e2)
O        -0.59575200000000   -0.38027100000000    0.17316800000000
C         0.52089400000000    0.37931700000000   -0.17175200000000
H        -1.36821300000000    0.19175900000000   -0.06499400000000
H         1.44307200000000   -0.19080500000000    0.06357800000000
4
 energy: -7.020285524470 gnorm: 0.033235343975 xtb: 6.2.2 (9d81278992624c895f80dd42a50cac0aa55982e2)
O        -0.61242009782622   -0.36487005467844    0.16670062389619
C         0.52055904641342    0.33263914906346   -0.15146989803405
H        -1.37111804946603    0.19524130940888   -0.06646789624886
H         1.46298010087882   -0.16301040379390    0.05123717038672
4
 energy: -7.021361376583 gnorm: 0.002946631957 xtb: 6.2.2 (9d81278992624c895f80dd42a50cac0aa55982e2)
O        -0.61692403663604   -0.35021438235616    0.16039421707425
C         0.52215780747845    0.30372019547302   -0.13892844367125
H        -1.37516300746890    0.19402147915484   -0.06588383770047
H         1.46993023662649   -0.14752729227170    0.04441806429747
4
 energy: -7.021384961121 gnorm: 0.000960987826 xtb: 6.2.2 (9d81278992624c895f80dd42a50cac0aa55982e2)
O        -0.61900778434575   -0.34857813599877    0.15971126014223
C         0.52392478072359    0.30013826990555   -0.13739607261403
H        -1.38047493281682    0.19423387894973   -0.06590499351832
H         1.47555893643898   -0.14579401285651    0.04358980599012
4
 energy: -7.021386221902 gnorm: 0.000445330185 xtb: 6.2.2 (9d81278992624c895f80dd42a50cac0aa55982e2)
O        -0.61864133096444   -0.34757227071672    0.15926932405904
C         0.52503196925794    0.29976171219791   -0.13724737791071
H        -1.38266031535226    0.19372547000327   -0.06565481505646
H         1.47627067705876   -0.14591491148446    0.04363286890814
