4
 energy: -7.021386222785 gnorm: 0.000442164129 xtb: 6.2.2 (9d81278992624c895f80dd42a50cac0aa55982e2)
O        -0.61864259487795   -0.34756875353849    0.15927209015150
C         0.52503305970939    0.29975872359303   -0.13724973379986
H        -1.38265953016102    0.19373259500473   -0.06565032677571
H         1.47627006532957   -0.14592256506451    0.04362797042057
