 Entering Gaussian System
 *********************************************
 Gaussian 98:
 frequency output generated by the xtb code
 *********************************************
                         Standard orientation:
 --------------------------------------------------------------------
  Center     Atomic     Atomic              Coordinates (Angstroms)
  Number     Number      Type              X           Y           Z
 --------------------------------------------------------------------
    1          7             0       -1.026888   -0.031763   -0.059821
    2          6             0       -0.052734    0.869509    0.188594
    3          6             0        1.067898    0.053302   -0.145632
    4          6             0        0.011724   -0.891048    0.016857
 --------------------------------------------------------------------
     1 basis functions        1 primitive gaussians
     1 alpha electrons        1 beta electrons

 Harmonic frequencies (cm**-1), IR intensities (KM/Mole),
 Raman scattering activities (A**4/amu), Raman depolarization ratios,
 reduced masses (AMU), force constants (mDyne/A) and normal coordinates:
                      1                      2                      3
                        a                      a                      a 
 Frequencies --   577.3122               806.2085               858.8447
 Red. masses --    12.4582                12.4746                12.4041
 Frc consts  --     0.0000                 0.0000                 0.0000
 IR Inten    --     0.2265                 0.1518                 1.7734
 Raman Activ --     0.0000                 0.0000                 0.0000
 Depolar     --     0.0000                 0.0000                 0.0000
 Atom AN      X      Y      Z        X      Y      Z        X      Y      Z
   1   7     0.06  -0.04   0.47     0.46   0.03  -0.14    -0.02   0.44   0.04
   2   6    -0.04   0.26  -0.46    -0.01   0.47   0.17     0.07  -0.48  -0.17
   3   6     0.00  -0.04   0.46    -0.52  -0.01  -0.10    -0.02   0.52   0.05
   4   6    -0.02  -0.17  -0.50     0.03  -0.49   0.08    -0.03  -0.51   0.07
                      4                      5                      6
                        a                      a                      a 
 Frequencies --  1111.3073              1198.0582              1428.0296
 Red. masses --    12.4698                12.3730                12.6705
 Frc consts  --     0.0000                 0.0000                 0.0000
 IR Inten    --     0.1286                 1.0488                 0.3759
 Raman Activ --     0.0000                 0.0000                 0.0000
 Depolar     --     0.0000                 0.0000                 0.0000
 Atom AN      X      Y      Z        X      Y      Z        X      Y      Z
   1   7    -0.02   0.48   0.05     0.42   0.01   0.05    -0.57  -0.01  -0.08
   2   6    -0.54  -0.08   0.00    -0.50   0.05   0.05     0.07   0.46   0.13
   3   6     0.02  -0.41  -0.04     0.54   0.03  -0.14     0.44   0.02  -0.09
   4   6     0.55  -0.03  -0.02    -0.49  -0.10   0.04     0.10  -0.47   0.04
