4
 energy: -8.869159406234 gnorm: 0.136705100312 xtb: 6.2.2 (9d81278992624c895f80dd42a50cac0aa55982e2)
N        -1.20825200000000   -0.02524000000000   -0.19492400000000
C        -0.03055300000000    0.69983100000000    0.30666500000000
C         1.21638300000000    0.07156300000000   -0.27734400000000
C         0.02242200000000   -0.74615400000000    0.16560200000000
4
 energy: -8.891659262034 gnorm: 0.102607770497 xtb: 6.2.2 (9d81278992624c895f80dd42a50cac0aa55982e2)
N        -1.14781005193911   -0.02577270478997   -0.16672244509348
C        -0.03627267307311    0.72508580068563    0.28088034448821
C         1.16572121212150    0.06700520205580   -0.24955105991100
C         0.01836151289072   -0.76631829795145    0.13539216051627
4
 energy: -8.917030633599 gnorm: 0.133565025067 xtb: 6.2.2 (9d81278992624c895f80dd42a50cac0aa55982e2)
N        -1.00455861971484   -0.02931984869897   -0.07647774192448
C        -0.05188472089180    0.81782416252847    0.19990767916764
C         1.04752924704112    0.05410447403482   -0.16137666150820
C         0.00891409356552   -0.84260878786432    0.03794572426504
4
 energy: -8.921453518292 gnorm: 0.046701340514 xtb: 6.2.2 (9d81278992624c895f80dd42a50cac0aa55982e2)
N        -1.05564655811402   -0.03632675092928   -0.02382332214471
C        -0.05303112496922    0.84250569521577    0.15143934836685
C         1.09945951577983    0.05130778489500   -0.11322824992016
C         0.00921816730340   -0.85748672918149   -0.01438877630198
4
 energy: -8.924916307220 gnorm: 0.019847847572 xtb: 6.2.2 (9d81278992624c895f80dd42a50cac0aa55982e2)
N        -1.03428495537028   -0.03206863278454   -0.05950124639209
C        -0.05255049994691    0.85244379994674    0.18704471227307
C         1.07616446412648    0.05366374265932   -0.14617477365578
C         0.01067099119071   -0.87403890982152    0.01863030777480
4
 energy: -8.925334043329 gnorm: 0.005644590804 xtb: 6.2.2 (9d81278992624c895f80dd42a50cac0aa55982e2)
N        -1.02425693447251   -0.03163943767214   -0.06014105234282
C        -0.05329564905713    0.86843525799963    0.18897225954753
C         1.06645459173147    0.05331807412596   -0.14626255443336
C         0.01109799179817   -0.89011389445346    0.01743034722864
4
 energy: -8.925349521924 gnorm: 0.000896573225 xtb: 6.2.2 (9d81278992624c895f80dd42a50cac0aa55982e2)
N        -1.02647321709625   -0.03163046765248   -0.06109180508731
C        -0.05289005897133    0.86881985676280    0.18985933230577
C         1.06782536681912    0.05343620812748   -0.14699458176273
C         0.01153790924847   -0.89062559723780    0.01822605454427
4
 energy: -8.925350014385 gnorm: 0.000505298978 xtb: 6.2.2 (9d81278992624c895f80dd42a50cac0aa55982e2)
N        -1.02688810202255   -0.03176786410699   -0.05982414040563
C        -0.05273883527028    0.86950846478633    0.18859526384871
C         1.06789816010487    0.05330763100029   -0.14562788442916
C         0.01172877718797   -0.89104823167963    0.01685576098607
