$hessian                                                                        
        0.5855094720   0.1301249205   0.0458667126  -0.3415906557   0.1074392588
       -0.0497095519  -0.0786021575   0.0050982835  -0.0205269613  -0.0623457022
       -0.0384149125   0.0213636996  -0.1029709566  -0.2042475503   0.0030061011
        0.1301249205   0.2504552216  -0.0099594365  -0.0060546004  -0.0024976887
        0.0009195222  -0.0564909583  -0.0163274777   0.0107305045   0.0334053118
        0.0008893547   0.0055376897  -0.1009846736  -0.2325194099  -0.0072282800
        0.0458667126  -0.0099594365   0.0351164776  -0.0356723414   0.0272515885
       -0.0267603696   0.0282304568  -0.0024870464   0.0193303166  -0.0049645204
       -0.0075723502  -0.0037074750  -0.0334603076  -0.0072327554  -0.0239789495
       -0.3415906557  -0.0060546004  -0.0356723414   0.5762323056  -0.0229826865
        0.0475796854   0.0023627329  -0.0812911860   0.0464555978  -0.2845585487
       -0.0393849859  -0.0518465836   0.0475541660   0.1497134588  -0.0065163583
        0.1074392588  -0.0024976887   0.0272515885  -0.0229826865   0.2178031034
       -0.0344793670  -0.0070143609  -0.0638527601   0.0579339611  -0.1140668401
       -0.0099581657  -0.0380933473   0.0366246286  -0.1414944889  -0.0126128353
       -0.0497095519   0.0009195222  -0.0267603696   0.0475796854  -0.0344793670
        0.0413638484  -0.0106266682   0.0281207653  -0.0084181549  -0.0050660870
       -0.0130852368  -0.0104434125   0.0178226217   0.0185243162   0.0042580886
       -0.0786021575  -0.0564909583   0.0282304568   0.0023627329  -0.0070143609
       -0.0106266682   0.2978743255  -0.0483257765  -0.0107832625  -0.0335165668
        0.0727636451  -0.0524904212  -0.1881183341   0.0390674505   0.0456698951
        0.0050982835  -0.0163274777  -0.0024870464  -0.0812911860  -0.0638527601
        0.0281207653  -0.0483257765   0.2161472984  -0.1289769420   0.1684092038
       -0.1650143062   0.1087554306  -0.0438905249   0.0290472456  -0.0054122076
       -0.0205269613   0.0107305045   0.0193303166   0.0464555978   0.0579339611
       -0.0084181549  -0.0107832625  -0.1289769420   0.1536038207  -0.0932239040
        0.1020515039  -0.1047767188   0.0780785300  -0.0417390275  -0.0597392636
       -0.0623457022   0.0334053118  -0.0049645204  -0.2845585487  -0.1140668401
       -0.0050660870  -0.0335165668   0.1684092038  -0.0932239040   0.4399591856
       -0.0458697074   0.1147938347  -0.0595383680  -0.0418779682  -0.0115393233
       -0.0384149125   0.0008893547  -0.0075723502  -0.0393849859  -0.0099581657
       -0.0130852368   0.0727636451  -0.1650143062   0.1020515039  -0.0458697074
        0.1979774289  -0.0954486966   0.0509059607  -0.0238943117   0.0140547797
        0.0213636996   0.0055376897  -0.0037074750  -0.0518465836  -0.0380933473
       -0.0104434125  -0.0524904212   0.1087554306  -0.1047767188   0.1147938347
       -0.0954486966   0.0995363618  -0.0318205295   0.0192489236   0.0193912445
       -0.1029709566  -0.1009846736  -0.0334603076   0.0475541660   0.0366246286
        0.0178226217  -0.1881183341  -0.0438905249   0.0780785300  -0.0595383680
        0.0509059607  -0.0318205295   0.3030734927   0.0573446092  -0.0306203146
       -0.2042475503  -0.2325194099  -0.0072327554   0.1497134588  -0.1414944889
        0.0185243162   0.0390674505   0.0290472456  -0.0417390275  -0.0418779682
       -0.0238943117   0.0192489236   0.0573446092   0.3688609648   0.0111985432
        0.0030061011  -0.0072282800  -0.0239789495  -0.0065163583  -0.0126128353
        0.0042580886   0.0456698951  -0.0054122076  -0.0597392636  -0.0115393233
        0.0140547797   0.0193912445  -0.0306203146   0.0111985432   0.0600688801
