5
 energy: -10.919090653645 gnorm: 0.106400080593 xtb: 6.2.2 (9d81278992624c895f80dd42a50cac0aa55982e2)
N        -0.94634000000000   -0.32772400000000    0.66456600000000
C        -0.36946800000000   -0.42798100000000   -0.66735300000000
C         0.99684300000000   -0.68550200000000   -0.07526400000000
C         0.01029800000000    1.03428100000000   -0.63199900000000
C         0.30866700000000    0.40692600000000    0.71004900000000
5
 energy: -10.942085700261 gnorm: 0.076098123246 xtb: 6.2.2 (9d81278992624c895f80dd42a50cac0aa55982e2)
N        -0.98312387110455   -0.34046288082698    0.69039694676736
C        -0.40058971504732   -0.42901222400018   -0.61538987110198
C         1.01972036435534   -0.59890704362795   -0.13901619014044
C         0.10847643594142    0.98960945721125   -0.65325741073895
C         0.25551678585511    0.37877269124386    0.71726552521400
5
 energy: -10.955370360649 gnorm: 0.042762316366 xtb: 6.2.2 (9d81278992624c895f80dd42a50cac0aa55982e2)
N        -1.00881847543990   -0.34936268758543    0.70844028175046
C        -0.45217461230745   -0.43965280706948   -0.55684960635900
C         1.02284841994540   -0.45267082505722   -0.22919642647294
C         0.25053807291732    0.89365542675475   -0.66503597453756
C         0.18760659488463    0.34803089295738    0.74264072561903
5
 energy: -10.957546476217 gnorm: 0.020758084178 xtb: 6.2.2 (9d81278992624c895f80dd42a50cac0aa55982e2)
N        -0.99211736059321   -0.34357880689372    0.69671140969304
C        -0.44551398547533   -0.44135024127250   -0.57389522117224
C         1.00745046290756   -0.46665012928669   -0.21314234536139
C         0.22686362474030    0.89410339264391   -0.65365210515898
C         0.20331725842068    0.35747578480899    0.74397726199957
5
 energy: -10.958173307913 gnorm: 0.010002347971 xtb: 6.2.2 (9d81278992624c895f80dd42a50cac0aa55982e2)
N        -0.98167596078254   -0.33996335491158    0.68937803524372
C        -0.45090995358328   -0.44802990716962   -0.58496808350375
C         0.99375138777175   -0.45376585634237   -0.21420831746618
C         0.23003780227424    0.87757352034372   -0.64519586108465
C         0.20879672431983    0.36418559807985    0.75499322681086
5
 energy: -10.958227884373 gnorm: 0.001743208466 xtb: 6.2.2 (9d81278992624c895f80dd42a50cac0aa55982e2)
N        -0.98225772236522   -0.34016452154063    0.68978654756468
C        -0.45123987000460   -0.44903000920298   -0.58747212551197
C         0.99534212146907   -0.45733270324484   -0.21282925067024
C         0.22768701841288    0.88087731078641   -0.64604077242574
C         0.21046845248787    0.36564992320204    0.75655460104327
5
 energy: -10.958230587627 gnorm: 0.000890531920 xtb: 6.2.2 (9d81278992624c895f80dd42a50cac0aa55982e2)
N        -0.98277257577510   -0.34034245191967    0.69014806898046
C        -0.45264908445756   -0.44983368975613   -0.58745570663179
C         0.99589875321477   -0.45556425568706   -0.21417500556012
C         0.22975156291930    0.88001726388704   -0.64653541581550
C         0.20977134409857    0.36572313347582    0.75801705902694
