 Entering Gaussian System, Link 0=g16
 Initial command:
 /applis/site/cecic/gaussian16/B.01/nehalem/g16/l1.exe "/bettik/tinaccil/g16/12567591_CH2_3/Gau-189407.inp" -scrdir="/bettik/tinaccil/g16/12567591_CH2_3/"
 Entering Link 1 = /applis/site/cecic/gaussian16/B.01/nehalem/g16/l1.exe PID=    189409.
  
 Copyright (c) 1988-2017, Gaussian, Inc.  All Rights Reserved.
  
 This is part of the Gaussian(R) 16 program.  It is based on
 the Gaussian(R) 09 system (copyright 2009, Gaussian, Inc.),
 the Gaussian(R) 03 system (copyright 2003, Gaussian, Inc.),
 the Gaussian(R) 98 system (copyright 1998, Gaussian, Inc.),
 the Gaussian(R) 94 system (copyright 1995, Gaussian, Inc.),
 the Gaussian 92(TM) system (copyright 1992, Gaussian, Inc.),
 the Gaussian 90(TM) system (copyright 1990, Gaussian, Inc.),
 the Gaussian 88(TM) system (copyright 1988, Gaussian, Inc.),
 the Gaussian 86(TM) system (copyright 1986, Carnegie Mellon
 University), and the Gaussian 82(TM) system (copyright 1983,
 Carnegie Mellon University). Gaussian is a federally registered
 trademark of Gaussian, Inc.
  
 This software contains proprietary and confidential information,
 including trade secrets, belonging to Gaussian, Inc.
  
 This software is provided under written license and may be
 used, copied, transmitted, or stored only in accord with that
 written license.
  
 The following legend is applicable only to US Government
 contracts under FAR:
  
                    RESTRICTED RIGHTS LEGEND
  
 Use, reproduction and disclosure by the US Government is
 subject to restrictions as set forth in subparagraphs (a)
 and (c) of the Commercial Computer Software - Restricted
 Rights clause in FAR 52.227-19.
  
 Gaussian, Inc.
 340 Quinnipiac St., Bldg. 40, Wallingford CT 06492
  
  
 ---------------------------------------------------------------
 Warning -- This program may not be used in any manner that
 competes with the business of Gaussian, Inc. or will provide
 assistance to any competitor of Gaussian, Inc.  The licensee
 of this program is prohibited from giving any competitor of
 Gaussian, Inc. access to this program.  By using this program,
 the user acknowledges that Gaussian, Inc. is engaged in the
 business of creating and licensing software in the field of
 computational chemistry and represents and warrants to the
 licensee that it is not a competitor of Gaussian, Inc. and that
 it will not use this program in any manner prohibited above.
 ---------------------------------------------------------------
  

 Cite this work as:
 Gaussian 16, Revision B.01,
 M. J. Frisch, G. W. Trucks, H. B. Schlegel, G. E. Scuseria, 
 M. A. Robb, J. R. Cheeseman, G. Scalmani, V. Barone, 
 G. A. Petersson, H. Nakatsuji, X. Li, M. Caricato, A. V. Marenich, 
 J. Bloino, B. G. Janesko, R. Gomperts, B. Mennucci, H. P. Hratchian, 
 J. V. Ortiz, A. F. Izmaylov, J. L. Sonnenberg, D. Williams-Young, 
 F. Ding, F. Lipparini, F. Egidi, J. Goings, B. Peng, A. Petrone, 
 T. Henderson, D. Ranasinghe, V. G. Zakrzewski, J. Gao, N. Rega, 
 G. Zheng, W. Liang, M. Hada, M. Ehara, K. Toyota, R. Fukuda, 
 J. Hasegawa, M. Ishida, T. Nakajima, Y. Honda, O. Kitao, H. Nakai, 
 T. Vreven, K. Throssell, J. A. Montgomery, Jr., J. E. Peralta, 
 F. Ogliaro, M. J. Bearpark, J. J. Heyd, E. N. Brothers, K. N. Kudin, 
 V. N. Staroverov, T. A. Keith, R. Kobayashi, J. Normand, 
 K. Raghavachari, A. P. Rendell, J. C. Burant, S. S. Iyengar, 
 J. Tomasi, M. Cossi, J. M. Millam, M. Klene, C. Adamo, R. Cammi, 
 J. W. Ochterski, R. L. Martin, K. Morokuma, O. Farkas, 
 J. B. Foresman, and D. J. Fox, Gaussian, Inc., Wallingford CT, 2016.
 
 ******************************************
 Gaussian 16:  ES64L-G16RevB.01 20-Dec-2017
                 2-Oct-2020 
 ******************************************
 %nosave
 %nproc=8
 Will use up to    8 processors via shared memory.
 %mem=2gb
 %chk=input
 --------------------------------------------------------
 #P M062X/cc-pvtz nosymm opt(noeigentest) optcyc=120 freq
 --------------------------------------------------------
 1/6=120,11=1,18=20,19=15,26=3,38=1/1,3;
 2/9=110,12=2,15=1,17=6,18=5,40=1/2;
 3/5=16,6=1,11=2,25=1,30=1,71=1,74=-55/1,2,3;
 4//1;
 5/5=2,38=5/2;
 6/7=2,8=2,9=2,10=2,28=1/1;
 7/30=1/1,2,3,16;
 1/6=120,11=1,18=20,19=15,26=3/3(2);
 2/9=110,15=1/2;
 99//99;
 2/9=110,15=1/2;
 3/5=16,6=1,11=2,25=1,30=1,71=1,74=-55/1,2,3;
 4/5=5,16=3,69=1/1;
 5/5=2,38=5/2;
 7/30=1/1,2,3,16;
 1/6=120,11=1,18=20,19=15,26=3/3(-5);
 2/9=110,15=1/2;
 6/7=2,8=2,9=2,10=2,19=2,28=1/1;
 99/9=1/99;
 Leave Link    1 at Fri Oct  2 21:26:53 2020, MaxMem=   268435456 cpu:               0.9 elap:               0.1
 (Enter /applis/site/cecic/gaussian16/B.01/nehalem/g16/l101.exe)
 -----
 Title
 -----
 Symbolic Z-matrix:
 Charge =  0 Multiplicity = 3
 C
 H                    1    B1
 H                    1    B2       2    A2
       Variables:
  B1                    1.1094                   
  B2                    1.1094                   
  A2                  109.47                     
 
 ITRead=  0  0  0
 MicOpt= -1 -1 -1
 NAtoms=      3 NQM=        3 NQMF=       0 NMMI=      0 NMMIF=      0
                NMic=       0 NMicF=      0.
                    Isotopes and Nuclear Properties:
 (Nuclear quadrupole moments (NQMom) in fm**2, nuclear magnetic moments (NMagM)
  in nuclear magnetons)

  Atom         1           2           3
 IAtWgt=          12           1           1
 AtmWgt=  12.0000000   1.0078250   1.0078250
 NucSpn=           0           1           1
 AtZEff=  -0.0000000  -0.0000000  -0.0000000
 NQMom=    0.0000000   0.0000000   0.0000000
 NMagM=    0.0000000   2.7928460   2.7928460
 AtZNuc=   6.0000000   1.0000000   1.0000000
 Leave Link  101 at Fri Oct  2 21:26:54 2020, MaxMem=   268435456 cpu:               2.3 elap:               0.4
 (Enter /applis/site/cecic/gaussian16/B.01/nehalem/g16/l103.exe)

 GradGradGradGradGradGradGradGradGradGradGradGradGradGradGradGradGradGrad
 Berny optimization.
 Initialization pass.
                           ----------------------------
                           !    Initial Parameters    !
                           ! (Angstroms and Degrees)  !
 --------------------------                            --------------------------
 ! Name  Definition              Value          Derivative Info.                !
 --------------------------------------------------------------------------------
 ! R1    R(1,2)                  1.1094         estimate D2E/DX2                !
 ! R2    R(1,3)                  1.1094         estimate D2E/DX2                !
 ! A1    A(2,1,3)              109.47           estimate D2E/DX2                !
 --------------------------------------------------------------------------------
 Trust Radius=3.00D-01 FncErr=1.00D-07 GrdErr=1.00D-06 EigMax=2.50D+02 EigMin=1.00D-04
 Number of steps in this run=    100 maximum allowed number of steps=    100.
 GradGradGradGradGradGradGradGradGradGradGradGradGradGradGradGradGradGrad

 Leave Link  103 at Fri Oct  2 21:26:54 2020, MaxMem=   268435456 cpu:               0.3 elap:               0.1
 (Enter /applis/site/cecic/gaussian16/B.01/nehalem/g16/l202.exe)
                          Input orientation:                          
 ---------------------------------------------------------------------
 Center     Atomic      Atomic             Coordinates (Angstroms)
 Number     Number       Type             X           Y           Z
 ---------------------------------------------------------------------
      1          6           0        0.000000    0.000000    0.000000
      2          1           0        0.000000    0.000000    1.109400
      3          1           0        1.045960    0.000000   -0.369778
 ---------------------------------------------------------------------
                    Distance matrix (angstroms):
                    1          2          3
     1  C    0.000000
     2  H    1.109400   0.000000
     3  H    1.109400   1.811629   0.000000
 Symmetry turned off by external request.
 Stoichiometry    CH2(3)
 Framework group  C2V[C2(C),SGV(H2)]
 Deg. of freedom     2
 Full point group                 C2V     NOp   4
 Rotational constants (GHZ):         713.7825195         305.5790238         213.9740968
 Leave Link  202 at Fri Oct  2 21:26:54 2020, MaxMem=   268435456 cpu:               0.7 elap:               0.2
 (Enter /applis/site/cecic/gaussian16/B.01/nehalem/g16/l301.exe)
 Standard basis: CC-pVTZ (5D, 7F)
 Ernie: Thresh=  0.10000D-02 Tol=  0.10000D-05 Strict=F.
 Ernie:  3 primitive shells out of 42 were deleted.
    58 basis functions,    86 primitive gaussians,    65 cartesian basis functions
     5 alpha electrons        3 beta electrons
       nuclear repulsion energy         6.0160289431 Hartrees.
 IExCor= 4336 DFT=T Ex+Corr=M062X ExCW=0 ScaHFX=  0.540000
 ScaDFX=  1.000000  1.000000  1.000000  1.000000 ScalE2=  1.000000  1.000000
 IRadAn=      5 IRanWt=     -1 IRanGd=            0 ICorTp=0 IEmpDi=  4
 NAtoms=    3 NActive=    3 NUniq=    3 SFac= 1.00D+00 NAtFMM=   60 NAOKFM=F Big=F
 Integral buffers will be    131072 words long.
 Raffenetti 2 integral format.
 Two-electron integral symmetry is turned off.
 Leave Link  301 at Fri Oct  2 21:26:55 2020, MaxMem=   268435456 cpu:               0.8 elap:               0.2
 (Enter /applis/site/cecic/gaussian16/B.01/nehalem/g16/l302.exe)
 NPDir=0 NMtPBC=     1 NCelOv=     1 NCel=       1 NClECP=     1 NCelD=      1
         NCelK=      1 NCelE2=     1 NClLst=     1 CellRange=     0.0.
 One-electron integrals computed using PRISM.
 NBasis=    58 RedAO= T EigKep=  2.52D-03  NBF=    58
 NBsUse=    58 1.00D-06 EigRej= -1.00D+00 NBFU=    58
 Precomputing XC quadrature grid using
 IXCGrd= 4 IRadAn=           5 IRanWt=          -1 IRanGd=           0 AccXCQ= 0.00D+00.
 Generated NRdTot=       0 NPtTot=           0 NUsed=           0 NTot=          32
 NSgBfM=    65    65    65    65    65 MxSgAt=     3 MxSgA2=     3.
 Leave Link  302 at Fri Oct  2 21:26:55 2020, MaxMem=   268435456 cpu:               1.9 elap:               0.3
 (Enter /applis/site/cecic/gaussian16/B.01/nehalem/g16/l303.exe)
 DipDrv:  MaxL=1.
 Leave Link  303 at Fri Oct  2 21:26:55 2020, MaxMem=   268435456 cpu:               0.6 elap:               0.2
 (Enter /applis/site/cecic/gaussian16/B.01/nehalem/g16/l401.exe)
 ExpMin= 1.03D-01 ExpMax= 8.24D+03 ExpMxC= 2.81D+02 IAcc=3 IRadAn=         5 AccDes= 0.00D+00
 Harris functional with IExCor= 1009 and IRadAn=       5 diagonalized for initial guess.
 HarFok:  IExCor= 1009 AccDes= 0.00D+00 IRadAn=         5 IDoV= 1 UseB2=F ITyADJ=14
 ICtDFT=  3500011 ScaDFX=  1.000000  1.000000  1.000000  1.000000
 FoFCou: FMM=F IPFlag=           0 FMFlag=      100000 FMFlg1=           0
         NFxFlg=           0 DoJE=T BraDBF=F KetDBF=T FulRan=T
         wScrn=  0.000000 ICntrl=       500 IOpCl=  0 I1Cent=   200000004 NGrid=           0
         NMat0=    1 NMatS0=      1 NMatT0=    0 NMatD0=    1 NMtDS0=    0 NMtDT0=    0
 Symmetry not used in FoFCou.
 Harris En= -39.0473090207604    
 JPrj=0 DoOrth=F DoCkMO=F.
 Initial guess <Sx>= 0.0000 <Sy>= 0.0000 <Sz>= 1.0000 <S**2>= 2.0000 S= 1.0000
 Leave Link  401 at Fri Oct  2 21:26:56 2020, MaxMem=   268435456 cpu:               2.6 elap:               0.4
 (Enter /applis/site/cecic/gaussian16/B.01/nehalem/g16/l502.exe)
 Keep R1 and R2 ints in memory in canonical form, NReq=10049148.
 FoFCou: FMM=F IPFlag=           0 FMFlag=           0 FMFlg1=           0
         NFxFlg=           0 DoJE=F BraDBF=F KetDBF=F FulRan=T
         wScrn=  0.000000 ICntrl=       600 IOpCl=  0 I1Cent=           0 NGrid=           0
         NMat0=    1 NMatS0=   1711 NMatT0=    0 NMatD0=    1 NMtDS0=    0 NMtDT0=    0
 Symmetry not used in FoFCou.
 Two-electron integral symmetry not used.
 UHF open shell SCF:
 Using DIIS extrapolation, IDIIS=  1040.
 NGot=   268435456 LenX=   265496682 LenY=   265492016
 Requested convergence on RMS density matrix=1.00D-08 within 128 cycles.
 Requested convergence on MAX density matrix=1.00D-06.
 Requested convergence on             energy=1.00D-06.
 No special actions if energy rises.
 Integral accuracy reduced to 1.0D-05 until final iterations.

 Cycle   1  Pass 0  IDiag  1:
 E= -39.1178294981617    
 DIIS: error= 3.05D-02 at cycle   1 NSaved=   1.
 NSaved= 1 IEnMin= 1 EnMin= -39.1178294981617     IErMin= 1 ErrMin= 3.05D-02
 ErrMax= 3.05D-02  0.00D+00 EMaxC= 1.00D-01 BMatC= 6.58D-02 BMatP= 6.58D-02
 IDIUse=3 WtCom= 6.95D-01 WtEn= 3.05D-01
 Coeff-Com:  0.100D+01
 Coeff-En:   0.100D+01
 Coeff:      0.100D+01
 Gap=     0.382 Goal=   None    Shift=    0.000
 Gap=     0.420 Goal=   None    Shift=    0.000
 GapD=    0.382 DampG=1.000 DampE=0.500 DampFc=0.5000 IDamp=-1.
 Damping current iteration by 5.00D-01
 RMSDP=2.11D-03 MaxDP=4.71D-02              OVMax= 8.10D-02

 Cycle   2  Pass 0  IDiag  1:
 E= -39.1263040761179     Delta-E=       -0.008474577956 Rises=F Damp=T
 DIIS: error= 1.31D-02 at cycle   2 NSaved=   2.
 NSaved= 2 IEnMin= 2 EnMin= -39.1263040761179     IErMin= 2 ErrMin= 1.31D-02
 ErrMax= 1.31D-02  0.00D+00 EMaxC= 1.00D-01 BMatC= 1.11D-02 BMatP= 6.58D-02
 IDIUse=3 WtCom= 8.69D-01 WtEn= 1.31D-01
 Coeff-Com: -0.439D+00 0.144D+01
 Coeff-En:   0.000D+00 0.100D+01
 Coeff:     -0.381D+00 0.138D+01
 Gap=     0.408 Goal=   None    Shift=    0.000
 Gap=     0.372 Goal=   None    Shift=    0.000
 RMSDP=8.44D-04 MaxDP=1.80D-02 DE=-8.47D-03 OVMax= 2.90D-02

 Cycle   3  Pass 0  IDiag  1:
 E= -39.1345236111996     Delta-E=       -0.008219535082 Rises=F Damp=F
 DIIS: error= 3.90D-03 at cycle   3 NSaved=   3.
 NSaved= 3 IEnMin= 3 EnMin= -39.1345236111996     IErMin= 3 ErrMin= 3.90D-03
 ErrMax= 3.90D-03  0.00D+00 EMaxC= 1.00D-01 BMatC= 5.68D-04 BMatP= 1.11D-02
 IDIUse=3 WtCom= 9.61D-01 WtEn= 3.90D-02
 Coeff-Com: -0.115D+00 0.197D+00 0.918D+00
 Coeff-En:   0.000D+00 0.000D+00 0.100D+01
 Coeff:     -0.111D+00 0.189D+00 0.921D+00
 Gap=     0.405 Goal=   None    Shift=    0.000
 Gap=     0.371 Goal=   None    Shift=    0.000
 RMSDP=1.78D-04 MaxDP=5.38D-03 DE=-8.22D-03 OVMax= 1.07D-02

 Cycle   4  Pass 0  IDiag  1:
 E= -39.1347454242624     Delta-E=       -0.000221813063 Rises=F Damp=F
 DIIS: error= 7.81D-04 at cycle   4 NSaved=   4.
 NSaved= 4 IEnMin= 4 EnMin= -39.1347454242624     IErMin= 4 ErrMin= 7.81D-04
 ErrMax= 7.81D-04  0.00D+00 EMaxC= 1.00D-01 BMatC= 4.90D-05 BMatP= 5.68D-04
 IDIUse=3 WtCom= 9.92D-01 WtEn= 7.81D-03
 Coeff-Com:  0.286D-01-0.759D-01-0.146D+00 0.119D+01
 Coeff-En:   0.000D+00 0.000D+00 0.000D+00 0.100D+01
 Coeff:      0.284D-01-0.754D-01-0.145D+00 0.119D+01
 Gap=     0.406 Goal=   None    Shift=    0.000
 Gap=     0.366 Goal=   None    Shift=    0.000
 RMSDP=9.60D-05 MaxDP=1.85D-03 DE=-2.22D-04 OVMax= 3.11D-03

 Cycle   5  Pass 0  IDiag  1:
 E= -39.1347747900938     Delta-E=       -0.000029365831 Rises=F Damp=F
 DIIS: error= 2.94D-04 at cycle   5 NSaved=   5.
 NSaved= 5 IEnMin= 5 EnMin= -39.1347747900938     IErMin= 5 ErrMin= 2.94D-04
 ErrMax= 2.94D-04  0.00D+00 EMaxC= 1.00D-01 BMatC= 4.98D-06 BMatP= 4.90D-05
 IDIUse=3 WtCom= 9.97D-01 WtEn= 2.94D-03
 Coeff-Com:  0.662D-02-0.101D-01-0.863D-01 0.575D-01 0.103D+01
 Coeff-En:   0.000D+00 0.000D+00 0.000D+00 0.000D+00 0.100D+01
 Coeff:      0.660D-02-0.100D-01-0.860D-01 0.573D-01 0.103D+01
 Gap=     0.406 Goal=   None    Shift=    0.000
 Gap=     0.367 Goal=   None    Shift=    0.000
 RMSDP=2.37D-05 MaxDP=5.63D-04 DE=-2.94D-05 OVMax= 1.28D-03

 Cycle   6  Pass 0  IDiag  1:
 E= -39.1347775836524     Delta-E=       -0.000002793559 Rises=F Damp=F
 DIIS: error= 8.05D-05 at cycle   6 NSaved=   6.
 NSaved= 6 IEnMin= 6 EnMin= -39.1347775836524     IErMin= 6 ErrMin= 8.05D-05
 ErrMax= 8.05D-05  0.00D+00 EMaxC= 1.00D-01 BMatC= 4.36D-07 BMatP= 4.98D-06
 IDIUse=1 WtCom= 1.00D+00 WtEn= 0.00D+00
 Coeff-Com: -0.353D-02 0.807D-02 0.301D-01-0.114D+00-0.186D+00 0.127D+01
 Coeff:     -0.353D-02 0.807D-02 0.301D-01-0.114D+00-0.186D+00 0.127D+01
 Gap=     0.406 Goal=   None    Shift=    0.000
 Gap=     0.366 Goal=   None    Shift=    0.000
 RMSDP=8.48D-06 MaxDP=1.38D-04 DE=-2.79D-06 OVMax= 3.54D-04

 Initial convergence to 1.0D-05 achieved.  Increase integral accuracy.
 Cycle   7  Pass 1  IDiag  1:
 E= -39.1347618392544     Delta-E=        0.000015744398 Rises=F Damp=F
 DIIS: error= 2.12D-04 at cycle   1 NSaved=   1.
 NSaved= 1 IEnMin= 1 EnMin= -39.1347618392544     IErMin= 1 ErrMin= 2.12D-04
 ErrMax= 2.12D-04  0.00D+00 EMaxC= 1.00D-01 BMatC= 3.96D-06 BMatP= 3.96D-06
 IDIUse=3 WtCom= 9.98D-01 WtEn= 2.12D-03
 Coeff-Com:  0.100D+01
 Coeff-En:   0.100D+01
 Coeff:      0.100D+01
 Gap=     0.406 Goal=   None    Shift=    0.000
 Gap=     0.367 Goal=   None    Shift=    0.000
 RMSDP=8.48D-06 MaxDP=1.38D-04 DE= 1.57D-05 OVMax= 3.09D-04

 Cycle   8  Pass 1  IDiag  1:
 E= -39.1347622720674     Delta-E=       -0.000000432813 Rises=F Damp=F
 DIIS: error= 3.80D-05 at cycle   2 NSaved=   2.
 NSaved= 2 IEnMin= 2 EnMin= -39.1347622720674     IErMin= 2 ErrMin= 3.80D-05
 ErrMax= 3.80D-05  0.00D+00 EMaxC= 1.00D-01 BMatC= 7.74D-08 BMatP= 3.96D-06
 IDIUse=1 WtCom= 1.00D+00 WtEn= 0.00D+00
 Coeff-Com:  0.701D-02 0.993D+00
 Coeff:      0.701D-02 0.993D+00
 Gap=     0.406 Goal=   None    Shift=    0.000
 Gap=     0.366 Goal=   None    Shift=    0.000
 RMSDP=1.78D-06 MaxDP=3.68D-05 DE=-4.33D-07 OVMax= 1.07D-04

 Cycle   9  Pass 1  IDiag  1:
 E= -39.1347622873189     Delta-E=       -0.000000015252 Rises=F Damp=F
 DIIS: error= 1.24D-05 at cycle   3 NSaved=   3.
 NSaved= 3 IEnMin= 3 EnMin= -39.1347622873189     IErMin= 3 ErrMin= 1.24D-05
 ErrMax= 1.24D-05  0.00D+00 EMaxC= 1.00D-01 BMatC= 9.06D-09 BMatP= 7.74D-08
 IDIUse=1 WtCom= 1.00D+00 WtEn= 0.00D+00
 Coeff-Com: -0.192D-01 0.199D+00 0.820D+00
 Coeff:     -0.192D-01 0.199D+00 0.820D+00
 Gap=     0.406 Goal=   None    Shift=    0.000
 Gap=     0.366 Goal=   None    Shift=    0.000
 RMSDP=5.54D-07 MaxDP=1.19D-05 DE=-1.53D-08 OVMax= 4.01D-05

 Cycle  10  Pass 1  IDiag  1:
 E= -39.1347622896892     Delta-E=       -0.000000002370 Rises=F Damp=F
 DIIS: error= 2.50D-06 at cycle   4 NSaved=   4.
 NSaved= 4 IEnMin= 4 EnMin= -39.1347622896892     IErMin= 4 ErrMin= 2.50D-06
 ErrMax= 2.50D-06  0.00D+00 EMaxC= 1.00D-01 BMatC= 3.96D-10 BMatP= 9.06D-09
 IDIUse=1 WtCom= 1.00D+00 WtEn= 0.00D+00
 Coeff-Com:  0.238D-02-0.726D-01-0.926D-01 0.116D+01
 Coeff:      0.238D-02-0.726D-01-0.926D-01 0.116D+01
 Gap=     0.406 Goal=   None    Shift=    0.000
 Gap=     0.366 Goal=   None    Shift=    0.000
 RMSDP=1.84D-07 MaxDP=2.90D-06 DE=-2.37D-09 OVMax= 1.12D-05

 Cycle  11  Pass 1  IDiag  1:
 E= -39.1347622898956     Delta-E=       -0.000000000206 Rises=F Damp=F
 DIIS: error= 6.02D-07 at cycle   5 NSaved=   5.
 NSaved= 5 IEnMin= 5 EnMin= -39.1347622898956     IErMin= 5 ErrMin= 6.02D-07
 ErrMax= 6.02D-07  0.00D+00 EMaxC= 1.00D-01 BMatC= 2.86D-11 BMatP= 3.96D-10
 IDIUse=1 WtCom= 1.00D+00 WtEn= 0.00D+00
 Coeff-Com:  0.813D-03 0.236D-02-0.276D-01-0.224D+00 0.125D+01
 Coeff:      0.813D-03 0.236D-02-0.276D-01-0.224D+00 0.125D+01
 Gap=     0.406 Goal=   None    Shift=    0.000
 Gap=     0.366 Goal=   None    Shift=    0.000
 RMSDP=6.93D-08 MaxDP=1.26D-06 DE=-2.06D-10 OVMax= 5.03D-06

 Cycle  12  Pass 1  IDiag  1:
 E= -39.1347622899188     Delta-E=       -0.000000000023 Rises=F Damp=F
 DIIS: error= 1.76D-07 at cycle   6 NSaved=   6.
 NSaved= 6 IEnMin= 6 EnMin= -39.1347622899188     IErMin= 6 ErrMin= 1.76D-07
 ErrMax= 1.76D-07  0.00D+00 EMaxC= 1.00D-01 BMatC= 2.48D-12 BMatP= 2.86D-11
 IDIUse=1 WtCom= 1.00D+00 WtEn= 0.00D+00
 Coeff-Com: -0.251D-03 0.604D-02 0.101D-01-0.844D-01-0.831D-01 0.115D+01
 Coeff:     -0.251D-03 0.604D-02 0.101D-01-0.844D-01-0.831D-01 0.115D+01
 Gap=     0.406 Goal=   None    Shift=    0.000
 Gap=     0.366 Goal=   None    Shift=    0.000
 RMSDP=2.30D-08 MaxDP=4.34D-07 DE=-2.32D-11 OVMax= 1.60D-06

 Cycle  13  Pass 1  IDiag  1:
 E= -39.1347622899207     Delta-E=       -0.000000000002 Rises=F Damp=F
 DIIS: error= 6.43D-08 at cycle   7 NSaved=   7.
 NSaved= 7 IEnMin= 7 EnMin= -39.1347622899207     IErMin= 7 ErrMin= 6.43D-08
 ErrMax= 6.43D-08  0.00D+00 EMaxC= 1.00D-01 BMatC= 3.47D-13 BMatP= 2.48D-12
 IDIUse=1 WtCom= 1.00D+00 WtEn= 0.00D+00
 Coeff-Com: -0.117D-03 0.130D-02 0.456D-02-0.308D-03-0.120D+00 0.265D+00
 Coeff-Com:  0.850D+00
 Coeff:     -0.117D-03 0.130D-02 0.456D-02-0.308D-03-0.120D+00 0.265D+00
 Coeff:      0.850D+00
 Gap=     0.406 Goal=   None    Shift=    0.000
 Gap=     0.366 Goal=   None    Shift=    0.000
 RMSDP=5.18D-09 MaxDP=1.06D-07 DE=-1.96D-12 OVMax= 4.62D-07

 SCF Done:  E(UM062X) =  -39.1347622899     A.U. after   13 cycles
            NFock= 13  Conv=0.52D-08     -V/T= 2.0073
 <Sx>= 0.0000 <Sy>= 0.0000 <Sz>= 1.0000 <S**2>= 2.0052 S= 1.0017
 <L.S>= 0.000000000000E+00
 KE= 3.885284064368D+01 PE=-1.025318433960D+02 EE= 1.852821151935D+01
 Annihilation of the first spin contaminant:
 S**2 before annihilation     2.0052,   after     2.0000
 Leave Link  502 at Fri Oct  2 21:26:58 2020, MaxMem=   268435456 cpu:              14.6 elap:               2.1
 (Enter /applis/site/cecic/gaussian16/B.01/nehalem/g16/l601.exe)
 Copying SCF densities to generalized density rwf, IOpCl= 1 IROHF=0.

 **********************************************************************

            Population analysis using the SCF Density.

 **********************************************************************

 Alpha  occ. eigenvalues --  -10.58466  -0.76625  -0.48510  -0.38042  -0.30716
 Alpha virt. eigenvalues --    0.09871   0.14833   0.30646   0.34440   0.35948
 Alpha virt. eigenvalues --    0.39482   0.50079   0.50108   0.60000   0.60372
 Alpha virt. eigenvalues --    0.64158   0.92827   0.93662   1.02329   1.06940
 Alpha virt. eigenvalues --    1.08239   1.25450   1.33008   1.50539   2.03738
 Alpha virt. eigenvalues --    2.07280   2.14763   2.17693   2.49261   2.55928
 Alpha virt. eigenvalues --    2.57381   2.62196   2.70409   2.79222   2.83815
 Alpha virt. eigenvalues --    2.89140   2.92203   2.98139   3.02724   3.28112
 Alpha virt. eigenvalues --    3.28662   3.30240   3.51710   3.60460   3.70947
 Alpha virt. eigenvalues --    3.79342   3.80125   3.88880   3.93698   4.36667
 Alpha virt. eigenvalues --    4.60260   4.60445   4.73831   4.77794   4.93912
 Alpha virt. eigenvalues --    5.02513   5.54516  10.19263
  Beta  occ. eigenvalues --  -10.56450  -0.68017  -0.45891
  Beta virt. eigenvalues --   -0.09265  -0.03369   0.08386   0.14952   0.26449
  Beta virt. eigenvalues --    0.30129   0.34727   0.37330   0.51422   0.53097
  Beta virt. eigenvalues --    0.60450   0.62656   0.63513   0.90132   0.93014
  Beta virt. eigenvalues --    0.99212   1.02768   1.05896   1.17337   1.34828
  Beta virt. eigenvalues --    1.56293   2.08689   2.09192   2.16560   2.19533
  Beta virt. eigenvalues --    2.50771   2.59813   2.60481   2.82368   2.88447
  Beta virt. eigenvalues --    2.92846   2.94802   2.99159   2.99953   3.02106
  Beta virt. eigenvalues --    3.05017   3.30855   3.32529   3.32579   3.53100
  Beta virt. eigenvalues --    3.64169   3.72106   3.81244   3.81939   3.90368
  Beta virt. eigenvalues --    3.95782   4.61542   4.74184   4.75909   4.88380
  Beta virt. eigenvalues --    4.88644   5.04026   5.31481   5.93732  10.31243
          Condensed to atoms (all electrons):
               1          2          3
     1  C    5.611731   0.360747   0.360716
     2  H    0.360747   0.527146  -0.054517
     3  H    0.360716  -0.054517   0.527231
          Atomic-Atomic Spin Densities.
               1          2          3
     1  C    2.025625  -0.016940  -0.016929
     2  H   -0.016940   0.005815   0.015324
     3  H   -0.016929   0.015324   0.005650
 Mulliken charges and spin densities:
               1          2
     1  C   -0.333194   1.991756
     2  H    0.166625   0.004199
     3  H    0.166570   0.004046
 Sum of Mulliken charges =  -0.00000   2.00000
 Mulliken charges and spin densities with hydrogens summed into heavy atoms:
               1          2
     1  C   -0.000000   2.000000
 Electronic spatial extent (au):  <R**2>=             25.1017
 Charge=             -0.0000 electrons
 Dipole moment (field-independent basis, Debye):
    X=              0.5880    Y=              0.0000    Z=              0.4160  Tot=              0.7203
 Quadrupole moment (field-independent basis, Debye-Ang):
   XX=             -6.8796   YY=             -8.2631   ZZ=             -6.7967
   XY=             -0.0000   XZ=             -0.1158   YZ=              0.0000
 Traceless Quadrupole moment (field-independent basis, Debye-Ang):
   XX=              0.4335   YY=             -0.9500   ZZ=              0.5164
   XY=             -0.0000   XZ=             -0.1158   YZ=              0.0000
 Octapole moment (field-independent basis, Debye-Ang**2):
  XXX=             -1.0419  YYY=              0.0000  ZZZ=             -0.2438  XYY=             -0.7712
  XXY=             -0.0000  XXZ=             -0.9017  XZZ=             -0.5792  YZZ=             -0.0000
  YYZ=             -0.5453  XYZ=              0.0000
 Hexadecapole moment (field-independent basis, Debye-Ang**3):
 XXXX=            -11.8873 YYYY=            -10.0650 ZZZZ=            -12.8971 XXXY=             -0.0000
 XXXZ=              0.4299 YYYX=             -0.0000 YYYZ=              0.0000 ZZZX=              1.0018
 ZZZY=              0.0000 XXYY=             -3.9766 XXZZ=             -4.6026 YYZZ=             -4.2247
 XXYZ=              0.0000 YYXZ=              0.3513 ZZXY=             -0.0000
 N-N= 6.016028943084D+00 E-N=-1.025318422325D+02  KE= 3.885284064368D+01
                          Isotropic Fermi Contact Couplings
        Atom                 a.u.       MegaHertz       Gauss      10(-4) cm-1
     1  C(13)              0.81547     458.37066     163.55805     152.89599
     2  H(1)               0.00599      13.39286       4.77891       4.46738
     3  H(1)               0.00592      13.22350       4.71847       4.41088
 --------------------------------------------------------
       Center         ----  Spin Dipole Couplings  ----
                      3XX-RR        3YY-RR        3ZZ-RR
 --------------------------------------------------------
     1   Atom       -0.156099      0.744462     -0.588363
     2   Atom       -0.088889     -0.056624      0.145513
     3   Atom        0.114185     -0.056637     -0.057549
 --------------------------------------------------------
                        XY            XZ            YZ
 --------------------------------------------------------
     1   Atom       -0.000000      0.612550      0.000000
     2   Atom       -0.000000     -0.008456      0.000000
     3   Atom        0.000000     -0.080205     -0.000000
 --------------------------------------------------------


 ---------------------------------------------------------------------------------
              Anisotropic Spin Dipole Couplings in Principal Axis System
 ---------------------------------------------------------------------------------

       Atom             a.u.   MegaHertz   Gauss  10(-4) cm-1        Axes

              Baa    -1.0218  -137.115   -48.926   -45.737 -0.5776 -0.0000  0.8163
     1 C(13)  Bbb     0.2773    37.215    13.279    12.414  0.8163 -0.0000  0.5776
              Bcc     0.7445    99.900    35.647    33.323  0.0000  1.0000  0.0000
 
              Baa    -0.0892   -47.589   -16.981   -15.874  0.9994  0.0000  0.0360
     2 H(1)   Bbb    -0.0566   -30.212   -10.780   -10.078 -0.0000  1.0000 -0.0000
              Bcc     0.1458    77.802    27.762    25.952 -0.0360  0.0000  0.9994
 
              Baa    -0.0892   -47.583   -16.979   -15.872  0.3669 -0.0000  0.9303
     3 H(1)   Bbb    -0.0566   -30.219   -10.783   -10.080 -0.0000  1.0000  0.0000
              Bcc     0.1458    77.801    27.761    25.952  0.9303  0.0000 -0.3669
 

 ---------------------------------------------------------------------------------

 No NMR shielding tensors so no spin-rotation constants.
 Leave Link  601 at Fri Oct  2 21:26:59 2020, MaxMem=   268435456 cpu:               1.8 elap:               0.3
 (Enter /applis/site/cecic/gaussian16/B.01/nehalem/g16/l701.exe)
 ... and contract with generalized density number  0.
 Compute integral first derivatives.
 Leave Link  701 at Fri Oct  2 21:26:59 2020, MaxMem=   268435456 cpu:               1.3 elap:               0.3
 (Enter /applis/site/cecic/gaussian16/B.01/nehalem/g16/l702.exe)
 L702 exits ... SP integral derivatives will be done elsewhere.
 Leave Link  702 at Fri Oct  2 21:26:59 2020, MaxMem=   268435456 cpu:               0.6 elap:               0.1
 (Enter /applis/site/cecic/gaussian16/B.01/nehalem/g16/l703.exe)
 Integral derivatives from FoFJK, PRISM(SPDF).
 Compute integral first derivatives, UseDBF=F ICtDFT=           0.
 Calling FoFJK, ICntrl=      2127 FMM=F ISym2X=0 I1Cent= 0 IOpClX= 1 NMat=1 NMatS=1 NMatT=0.
 FoFJK:  IHMeth= 1 ICntrl=    2127 DoSepK=F KAlg= 0 I1Cent=           0 FoldK=F
 IRaf=         0 NMat=       1 IRICut=       1 DoRegI=T DoRafI=F ISym2E= 0 IDoP0=0 IntGTp=1.
 FoFCou: FMM=F IPFlag=           0 FMFlag=      100000 FMFlg1=         800
         NFxFlg=           0 DoJE=F BraDBF=F KetDBF=F FulRan=T
         wScrn=  0.000000 ICntrl=      2127 IOpCl=  1 I1Cent=           0 NGrid=           0
         NMat0=    1 NMatS0=      1 NMatT0=    0 NMatD0=    1 NMtDS0=    0 NMtDT0=    0
 Symmetry not used in FoFCou.
 Leave Link  703 at Fri Oct  2 21:27:00 2020, MaxMem=   268435456 cpu:               4.6 elap:               0.7
 (Enter /applis/site/cecic/gaussian16/B.01/nehalem/g16/l716.exe)
 Dipole        = 2.31343907D-01 1.69569804D-16 1.63665034D-01
 -------------------------------------------------------------------
 Center     Atomic                   Forces (Hartrees/Bohr)
 Number     Number              X              Y              Z
 -------------------------------------------------------------------
      1        6           0.044383698    0.000000000    0.031365740
      2        1          -0.022422862   -0.000000000   -0.015373551
      3        1          -0.021960837   -0.000000000   -0.015992188
 -------------------------------------------------------------------
 Cartesian Forces:  Max     0.044383698 RMS     0.022188289
 Leave Link  716 at Fri Oct  2 21:27:00 2020, MaxMem=   268435456 cpu:               0.7 elap:               0.2
 (Enter /applis/site/cecic/gaussian16/B.01/nehalem/g16/l103.exe)

 GradGradGradGradGradGradGradGradGradGradGradGradGradGradGradGradGradGrad
 Berny optimization.
 FormGI is forming the generalized inverse of G from B-inverse, IUseBI=4.
 Internal  Forces:  Max     0.046982129 RMS     0.029888937
 Search for a local minimum.
 Step number   1 out of a maximum of  100
 All quantities printed in internal units (Hartrees-Bohrs-Radians)
 RMS Force = .29889D-01 SwitMx=.10000D-02 MixMth= 1
 Mixed Optimization -- RFO/linear search
 Second derivative matrix not updated -- first step.
 The second derivative matrix:
                          R1        R2        A1
           R1           0.32664
           R2           0.00000   0.32664
           A1           0.00000   0.00000   0.16000
 ITU=  0
     Eigenvalues ---    0.16000   0.32664   0.32664
 RFO step:  Lambda=-1.40682642D-02 EMin= 1.60000000D-01
 Linear search not attempted -- first point.
 Iteration  1 RMS(Cart)=  0.11558736 RMS(Int)=  0.03925591
 Iteration  2 RMS(Cart)=  0.03640416 RMS(Int)=  0.00094767
 Iteration  3 RMS(Cart)=  0.00095485 RMS(Int)=  0.00000011
 Iteration  4 RMS(Cart)=  0.00000010 RMS(Int)=  0.00000000
 ITry= 1 IFail=0 DXMaxC= 1.43D-01 DCOld= 1.00D+10 DXMaxT= 3.00D-01 DXLimC= 3.00D+00 Rises=F
 Variable       Old X    -DE/DX   Delta X   Delta X   Delta X     New X
                                 (Linear)    (Quad)   (Total)
    R1        2.09646  -0.01537   0.00000  -0.04511  -0.04511   2.05135
    R2        2.09646  -0.01538   0.00000  -0.04514  -0.04514   2.05132
    A1        1.91061   0.04698   0.00000   0.26991   0.26991   2.18052
         Item               Value     Threshold  Converged?
 Maximum Force            0.046982     0.000450     NO 
 RMS     Force            0.029889     0.000300     NO 
 Maximum Displacement     0.142712     0.001800     NO 
 RMS     Displacement     0.151479     0.001200     NO 
 Predicted change in Energy=-7.575212D-03
 Lowest energy point so far.  Saving SCF results.
 GradGradGradGradGradGradGradGradGradGradGradGradGradGradGradGradGradGrad

 Leave Link  103 at Fri Oct  2 21:27:00 2020, MaxMem=   268435456 cpu:               0.9 elap:               0.2
 (Enter /applis/site/cecic/gaussian16/B.01/nehalem/g16/l202.exe)
                          Input orientation:                          
 ---------------------------------------------------------------------
 Center     Atomic      Atomic             Coordinates (Angstroms)
 Number     Number       Type             X           Y           Z
 ---------------------------------------------------------------------
      1          6           0        0.075520    0.000000    0.053395
      2          1           0       -0.070534    0.000000    1.129054
      3          1           0        1.040974    0.000000   -0.442827
 ---------------------------------------------------------------------
                    Distance matrix (angstroms):
                    1          2          3
     1  C    0.000000
     2  H    1.085530   0.000000
     3  H    1.085512   1.925165   0.000000
 Symmetry turned off by external request.
 Stoichiometry    CH2(3)
 Framework group  CS[SG(CH2)]
 Deg. of freedom     3
 Full point group                 CS      NOp   2
 Rotational constants (GHZ):        1163.0358321         270.5990390         219.5233841
 Leave Link  202 at Fri Oct  2 21:27:00 2020, MaxMem=   268435456 cpu:               0.4 elap:               0.1
 (Enter /applis/site/cecic/gaussian16/B.01/nehalem/g16/l301.exe)
 Standard basis: CC-pVTZ (5D, 7F)
 Ernie: Thresh=  0.10000D-02 Tol=  0.10000D-05 Strict=F.
 Ernie:  3 primitive shells out of 42 were deleted.
    58 basis functions,    86 primitive gaussians,    65 cartesian basis functions
     5 alpha electrons        3 beta electrons
       nuclear repulsion energy         6.1247148400 Hartrees.
 IExCor= 4336 DFT=T Ex+Corr=M062X ExCW=0 ScaHFX=  0.540000
 ScaDFX=  1.000000  1.000000  1.000000  1.000000 ScalE2=  1.000000  1.000000
 IRadAn=      5 IRanWt=     -1 IRanGd=            0 ICorTp=0 IEmpDi=  4
 NAtoms=    3 NActive=    3 NUniq=    3 SFac= 1.00D+00 NAtFMM=   60 NAOKFM=F Big=F
 Integral buffers will be    131072 words long.
 Raffenetti 2 integral format.
 Two-electron integral symmetry is turned off.
 Leave Link  301 at Fri Oct  2 21:27:00 2020, MaxMem=   268435456 cpu:               0.5 elap:               0.1
 (Enter /applis/site/cecic/gaussian16/B.01/nehalem/g16/l302.exe)
 NPDir=0 NMtPBC=     1 NCelOv=     1 NCel=       1 NClECP=     1 NCelD=      1
         NCelK=      1 NCelE2=     1 NClLst=     1 CellRange=     0.0.
 One-electron integrals computed using PRISM.
 NBasis=    58 RedAO= T EigKep=  2.27D-03  NBF=    58
 NBsUse=    58 1.00D-06 EigRej= -1.00D+00 NBFU=    58
 Precomputing XC quadrature grid using
 IXCGrd= 4 IRadAn=           5 IRanWt=          -1 IRanGd=           0 AccXCQ= 0.00D+00.
 Generated NRdTot=       0 NPtTot=           0 NUsed=           0 NTot=          32
 NSgBfM=    65    65    65    65    65 MxSgAt=     3 MxSgA2=     3.
 Leave Link  302 at Fri Oct  2 21:27:01 2020, MaxMem=   268435456 cpu:               1.1 elap:               0.2
 (Enter /applis/site/cecic/gaussian16/B.01/nehalem/g16/l303.exe)
 DipDrv:  MaxL=1.
 Leave Link  303 at Fri Oct  2 21:27:01 2020, MaxMem=   268435456 cpu:               0.4 elap:               0.1
 (Enter /applis/site/cecic/gaussian16/B.01/nehalem/g16/l401.exe)
 Initial guess from the checkpoint file:  "input.chk"
 B after Tr=     0.089195    0.000000    0.063063
         Rot=    1.000000    0.000000    0.000001    0.000000 Ang=   0.00 deg.
 Guess basis will be translated and rotated to current coordinates.
 JPrj=2 DoOrth=T DoCkMO=T.
 Initial guess <Sx>= 0.0000 <Sy>= 0.0000 <Sz>= 1.0000 <S**2>= 2.0054 S= 1.0018
 Generating alternative initial guess.
 ExpMin= 1.03D-01 ExpMax= 8.24D+03 ExpMxC= 2.81D+02 IAcc=3 IRadAn=         5 AccDes= 0.00D+00
 Harris functional with IExCor= 1009 and IRadAn=       5 diagonalized for initial guess.
 HarFok:  IExCor= 1009 AccDes= 0.00D+00 IRadAn=         5 IDoV= 1 UseB2=F ITyADJ=14
 ICtDFT=  3500011 ScaDFX=  1.000000  1.000000  1.000000  1.000000
 FoFCou: FMM=F IPFlag=           0 FMFlag=      100000 FMFlg1=           0
         NFxFlg=           0 DoJE=T BraDBF=F KetDBF=T FulRan=T
         wScrn=  0.000000 ICntrl=       500 IOpCl=  0 I1Cent=   200000004 NGrid=           0
         NMat0=    1 NMatS0=      1 NMatT0=    0 NMatD0=    1 NMtDS0=    0 NMtDT0=    0
 Symmetry not used in FoFCou.
 Harris En= -39.0583183216803    
 Leave Link  401 at Fri Oct  2 21:27:01 2020, MaxMem=   268435456 cpu:               2.4 elap:               0.4
 (Enter /applis/site/cecic/gaussian16/B.01/nehalem/g16/l502.exe)
 Keep R1 and R2 ints in memory in canonical form, NReq=10049148.
 FoFCou: FMM=F IPFlag=           0 FMFlag=           0 FMFlg1=           0
         NFxFlg=           0 DoJE=F BraDBF=F KetDBF=F FulRan=T
         wScrn=  0.000000 ICntrl=       600 IOpCl=  0 I1Cent=           0 NGrid=           0
         NMat0=    1 NMatS0=   1711 NMatT0=    0 NMatD0=    1 NMtDS0=    0 NMtDT0=    0
 Symmetry not used in FoFCou.
 Two-electron integral symmetry not used.
 UHF open shell SCF:
 Using DIIS extrapolation, IDIIS=  1040.
 NGot=   268435456 LenX=   265496682 LenY=   265492016
 Requested convergence on RMS density matrix=1.00D-08 within 128 cycles.
 Requested convergence on MAX density matrix=1.00D-06.
 Requested convergence on             energy=1.00D-06.
 No special actions if energy rises.
 Integral accuracy reduced to 1.0D-05 until final iterations.

 Cycle   1  Pass 0  IDiag  1:
 E= -39.1413711012192    
 DIIS: error= 1.15D-02 at cycle   1 NSaved=   1.
 NSaved= 1 IEnMin= 1 EnMin= -39.1413711012192     IErMin= 1 ErrMin= 1.15D-02
 ErrMax= 1.15D-02  0.00D+00 EMaxC= 1.00D-01 BMatC= 1.09D-02 BMatP= 1.09D-02
 IDIUse=3 WtCom= 8.85D-01 WtEn= 1.15D-01
 Coeff-Com:  0.100D+01
 Coeff-En:   0.100D+01
 Coeff:      0.100D+01
 Recover alternate guess density for next cycle.
 RMSDP=2.29D-03 MaxDP=5.06D-02              OVMax= 0.00D+00

 Cycle   2  Pass 0  IDiag  1:
 E= -39.1254173029807     Delta-E=        0.015953798238 Rises=F Damp=F
 Switch densities from cycles 1 and 2 for lowest energy.
 DIIS: error= 3.22D-02 at cycle   2 NSaved=   2.
 NSaved= 2 IEnMin= 1 EnMin= -39.1413711012192     IErMin= 1 ErrMin= 1.15D-02
 ErrMax= 3.22D-02  0.00D+00 EMaxC= 1.00D+00 BMatC= 7.14D-02 BMatP= 1.09D-02
 IDIUse=1 WtCom= 1.00D+00 WtEn= 0.00D+00
 Coeff-Com:  0.818D+00 0.182D+00
 Coeff:      0.818D+00 0.182D+00
 Gap=     0.409 Goal=   None    Shift=    0.000
 Gap=     0.464 Goal=   None    Shift=    0.000
 RMSDP=6.14D-04 MaxDP=7.78D-03 DE= 1.60D-02 OVMax= 8.48D-02

 Cycle   3  Pass 0  IDiag  1:
 E= -39.1437270046740     Delta-E=       -0.018309701693 Rises=F Damp=F
 DIIS: error= 2.38D-03 at cycle   3 NSaved=   3.
 NSaved= 3 IEnMin= 3 EnMin= -39.1437270046740     IErMin= 3 ErrMin= 2.38D-03
 ErrMax= 2.38D-03  0.00D+00 EMaxC= 1.00D+00 BMatC= 3.30D-04 BMatP= 1.09D-02
 IDIUse=1 WtCom= 1.00D+00 WtEn= 0.00D+00
 Coeff-Com: -0.361D-01 0.306D-01 0.101D+01
 Coeff:     -0.361D-01 0.306D-01 0.101D+01
 Gap=     0.407 Goal=   None    Shift=    0.000
 Gap=     0.420 Goal=   None    Shift=    0.000
 RMSDP=1.60D-04 MaxDP=2.54D-03 DE=-1.83D-02 OVMax= 6.62D-03

 Cycle   4  Pass 0  IDiag  1:
 E= -39.1438295183587     Delta-E=       -0.000102513685 Rises=F Damp=F
 DIIS: error= 8.55D-04 at cycle   4 NSaved=   4.
 NSaved= 4 IEnMin= 4 EnMin= -39.1438295183587     IErMin= 4 ErrMin= 8.55D-04
 ErrMax= 8.55D-04  0.00D+00 EMaxC= 1.00D+00 BMatC= 2.98D-05 BMatP= 3.30D-04
 IDIUse=1 WtCom= 1.00D+00 WtEn= 0.00D+00
 Coeff-Com: -0.119D-01-0.110D-01 0.977D-01 0.925D+00
 Coeff:     -0.119D-01-0.110D-01 0.977D-01 0.925D+00
 Gap=     0.406 Goal=   None    Shift=    0.000
 Gap=     0.419 Goal=   None    Shift=    0.000
 RMSDP=4.29D-05 MaxDP=9.85D-04 DE=-1.03D-04 OVMax= 1.92D-03

 Cycle   5  Pass 0  IDiag  1:
 E= -39.1438392878929     Delta-E=       -0.000009769534 Rises=F Damp=F
 DIIS: error= 1.40D-04 at cycle   5 NSaved=   5.
 NSaved= 5 IEnMin= 5 EnMin= -39.1438392878929     IErMin= 5 ErrMin= 1.40D-04
 ErrMax= 1.40D-04  0.00D+00 EMaxC= 1.00D+00 BMatC= 1.42D-06 BMatP= 2.98D-05
 IDIUse=1 WtCom= 1.00D+00 WtEn= 0.00D+00
 Coeff-Com:  0.144D-02 0.563D-03-0.548D-01-0.117D+00 0.117D+01
 Coeff:      0.144D-02 0.563D-03-0.548D-01-0.117D+00 0.117D+01
 Gap=     0.406 Goal=   None    Shift=    0.000
 Gap=     0.419 Goal=   None    Shift=    0.000
 RMSDP=2.09D-05 MaxDP=3.66D-04 DE=-9.77D-06 OVMax= 7.69D-04

 Cycle   6  Pass 0  IDiag  1:
 E= -39.1438401984638     Delta-E=       -0.000000910571 Rises=F Damp=F
 DIIS: error= 3.68D-05 at cycle   6 NSaved=   6.
 NSaved= 6 IEnMin= 6 EnMin= -39.1438401984638     IErMin= 6 ErrMin= 3.68D-05
 ErrMax= 3.68D-05  0.00D+00 EMaxC= 1.00D+00 BMatC= 1.00D-07 BMatP= 1.42D-06
 IDIUse=1 WtCom= 1.00D+00 WtEn= 0.00D+00
 Coeff-Com:  0.321D-03 0.350D-03-0.374D-02-0.446D-01-0.497D-01 0.110D+01
 Coeff:      0.321D-03 0.350D-03-0.374D-02-0.446D-01-0.497D-01 0.110D+01
 Gap=     0.406 Goal=   None    Shift=    0.000
 Gap=     0.420 Goal=   None    Shift=    0.000
 RMSDP=5.03D-06 MaxDP=8.12D-05 DE=-9.11D-07 OVMax= 1.90D-04

 Initial convergence to 1.0D-05 achieved.  Increase integral accuracy.
 Cycle   7  Pass 1  IDiag  1:
 E= -39.1438474178953     Delta-E=       -0.000007219432 Rises=F Damp=F
 DIIS: error= 2.18D-04 at cycle   1 NSaved=   1.
 NSaved= 1 IEnMin= 1 EnMin= -39.1438474178953     IErMin= 1 ErrMin= 2.18D-04
 ErrMax= 2.18D-04  0.00D+00 EMaxC= 1.00D+00 BMatC= 5.00D-06 BMatP= 5.00D-06
 IDIUse=1 WtCom= 1.00D+00 WtEn= 0.00D+00
 Coeff-Com:  0.100D+01
 Coeff:      0.100D+01
 Gap=     0.406 Goal=   None    Shift=    0.000
 Gap=     0.420 Goal=   None    Shift=    0.000
 RMSDP=5.03D-06 MaxDP=8.12D-05 DE=-7.22D-06 OVMax= 2.39D-04

 Cycle   8  Pass 1  IDiag  1:
 E= -39.1438478745823     Delta-E=       -0.000000456687 Rises=F Damp=F
 DIIS: error= 2.50D-05 at cycle   2 NSaved=   2.
 NSaved= 2 IEnMin= 2 EnMin= -39.1438478745823     IErMin= 2 ErrMin= 2.50D-05
 ErrMax= 2.50D-05  0.00D+00 EMaxC= 1.00D+00 BMatC= 5.48D-08 BMatP= 5.00D-06
 IDIUse=1 WtCom= 1.00D+00 WtEn= 0.00D+00
 Coeff-Com: -0.441D-01 0.104D+01
 Coeff:     -0.441D-01 0.104D+01
 Gap=     0.406 Goal=   None    Shift=    0.000
 Gap=     0.420 Goal=   None    Shift=    0.000
 RMSDP=2.05D-06 MaxDP=4.66D-05 DE=-4.57D-07 OVMax= 7.48D-05

 Cycle   9  Pass 1  IDiag  1:
 E= -39.1438478905920     Delta-E=       -0.000000016010 Rises=F Damp=F
 DIIS: error= 8.43D-06 at cycle   3 NSaved=   3.
 NSaved= 3 IEnMin= 3 EnMin= -39.1438478905920     IErMin= 3 ErrMin= 8.43D-06
 ErrMax= 8.43D-06  0.00D+00 EMaxC= 1.00D+00 BMatC= 4.67D-09 BMatP= 5.48D-08
 IDIUse=1 WtCom= 1.00D+00 WtEn= 0.00D+00
 Coeff-Com: -0.825D-02-0.746D-01 0.108D+01
 Coeff:     -0.825D-02-0.746D-01 0.108D+01
 Gap=     0.406 Goal=   None    Shift=    0.000
 Gap=     0.420 Goal=   None    Shift=    0.000
 RMSDP=5.14D-07 MaxDP=8.18D-06 DE=-1.60D-08 OVMax= 3.46D-05

 Cycle  10  Pass 1  IDiag  1:
 E= -39.1438478927713     Delta-E=       -0.000000002179 Rises=F Damp=F
 DIIS: error= 2.18D-06 at cycle   4 NSaved=   4.
 NSaved= 4 IEnMin= 4 EnMin= -39.1438478927713     IErMin= 4 ErrMin= 2.18D-06
 ErrMax= 2.18D-06  0.00D+00 EMaxC= 1.00D+00 BMatC= 5.39D-10 BMatP= 4.67D-09
 IDIUse=1 WtCom= 1.00D+00 WtEn= 0.00D+00
 Coeff-Com:  0.359D-02-0.767D-01-0.824D-01 0.116D+01
 Coeff:      0.359D-02-0.767D-01-0.824D-01 0.116D+01
 Gap=     0.406 Goal=   None    Shift=    0.000
 Gap=     0.420 Goal=   None    Shift=    0.000
 RMSDP=3.06D-07 MaxDP=5.18D-06 DE=-2.18D-09 OVMax= 1.81D-05

 Cycle  11  Pass 1  IDiag  1:
 E= -39.1438478931504     Delta-E=       -0.000000000379 Rises=F Damp=F
 DIIS: error= 8.10D-07 at cycle   5 NSaved=   5.
 NSaved= 5 IEnMin= 5 EnMin= -39.1438478931504     IErMin= 5 ErrMin= 8.10D-07
 ErrMax= 8.10D-07  0.00D+00 EMaxC= 1.00D+00 BMatC= 4.34D-11 BMatP= 5.39D-10
 IDIUse=1 WtCom= 1.00D+00 WtEn= 0.00D+00
 Coeff-Com: -0.402D-04 0.159D-01-0.775D-01-0.125D+00 0.119D+01
 Coeff:     -0.402D-04 0.159D-01-0.775D-01-0.125D+00 0.119D+01
 Gap=     0.406 Goal=   None    Shift=    0.000
 Gap=     0.420 Goal=   None    Shift=    0.000
 RMSDP=8.64D-08 MaxDP=1.50D-06 DE=-3.79D-10 OVMax= 7.12D-06

 Cycle  12  Pass 1  IDiag  1:
 E= -39.1438478931860     Delta-E=       -0.000000000036 Rises=F Damp=F
 DIIS: error= 2.53D-07 at cycle   6 NSaved=   6.
 NSaved= 6 IEnMin= 6 EnMin= -39.1438478931860     IErMin= 6 ErrMin= 2.53D-07
 ErrMax= 2.53D-07  0.00D+00 EMaxC= 1.00D+00 BMatC= 4.35D-12 BMatP= 4.34D-11
 IDIUse=1 WtCom= 1.00D+00 WtEn= 0.00D+00
 Coeff-Com: -0.383D-03 0.903D-02-0.290D-02-0.113D+00 0.156D+00 0.952D+00
 Coeff:     -0.383D-03 0.903D-02-0.290D-02-0.113D+00 0.156D+00 0.952D+00
 Gap=     0.406 Goal=   None    Shift=    0.000
 Gap=     0.420 Goal=   None    Shift=    0.000
 RMSDP=2.27D-08 MaxDP=4.05D-07 DE=-3.57D-11 OVMax= 1.86D-06

 Cycle  13  Pass 1  IDiag  1:
 E= -39.1438478931887     Delta-E=       -0.000000000003 Rises=F Damp=F
 DIIS: error= 9.21D-08 at cycle   7 NSaved=   7.
 NSaved= 7 IEnMin= 7 EnMin= -39.1438478931887     IErMin= 7 ErrMin= 9.21D-08
 ErrMax= 9.21D-08  0.00D+00 EMaxC= 1.00D+00 BMatC= 5.43D-13 BMatP= 4.35D-12
 IDIUse=1 WtCom= 1.00D+00 WtEn= 0.00D+00
 Coeff-Com: -0.504D-04-0.598D-03 0.922D-02-0.530D-02-0.113D+00 0.131D+00
 Coeff-Com:  0.979D+00
 Coeff:     -0.504D-04-0.598D-03 0.922D-02-0.530D-02-0.113D+00 0.131D+00
 Coeff:      0.979D+00
 Gap=     0.406 Goal=   None    Shift=    0.000
 Gap=     0.420 Goal=   None    Shift=    0.000
 RMSDP=7.29D-09 MaxDP=9.92D-08 DE=-2.68D-12 OVMax= 7.48D-07

 SCF Done:  E(UM062X) =  -39.1438478932     A.U. after   13 cycles
            NFock= 13  Conv=0.73D-08     -V/T= 2.0061
 <Sx>= 0.0000 <Sy>= 0.0000 <Sz>= 1.0000 <S**2>= 2.0056 S= 1.0019
 <L.S>= 0.000000000000E+00
 KE= 3.890826878413D+01 PE=-1.028050362847D+02 EE= 1.862820476744D+01
 Annihilation of the first spin contaminant:
 S**2 before annihilation     2.0056,   after     2.0000
 Leave Link  502 at Fri Oct  2 21:27:03 2020, MaxMem=   268435456 cpu:              12.4 elap:               1.7
 (Enter /applis/site/cecic/gaussian16/B.01/nehalem/g16/l701.exe)
 ... and contract with generalized density number  0.
 Compute integral first derivatives.
 Leave Link  701 at Fri Oct  2 21:27:03 2020, MaxMem=   268435456 cpu:               1.2 elap:               0.2
 (Enter /applis/site/cecic/gaussian16/B.01/nehalem/g16/l702.exe)
 L702 exits ... SP integral derivatives will be done elsewhere.
 Leave Link  702 at Fri Oct  2 21:27:03 2020, MaxMem=   268435456 cpu:               0.5 elap:               0.1
 (Enter /applis/site/cecic/gaussian16/B.01/nehalem/g16/l703.exe)
 Integral derivatives from FoFJK, PRISM(SPDF).
 Compute integral first derivatives, UseDBF=F ICtDFT=           0.
 Calling FoFJK, ICntrl=      2127 FMM=F ISym2X=0 I1Cent= 0 IOpClX= 1 NMat=1 NMatS=1 NMatT=0.
 FoFJK:  IHMeth= 1 ICntrl=    2127 DoSepK=F KAlg= 0 I1Cent=           0 FoldK=F
 IRaf=         0 NMat=       1 IRICut=       1 DoRegI=T DoRafI=F ISym2E= 0 IDoP0=0 IntGTp=1.
 FoFCou: FMM=F IPFlag=           0 FMFlag=      100000 FMFlg1=         800
         NFxFlg=           0 DoJE=F BraDBF=F KetDBF=F FulRan=T
         wScrn=  0.000000 ICntrl=      2127 IOpCl=  1 I1Cent=           0 NGrid=           0
         NMat0=    1 NMatS0=      1 NMatT0=    0 NMatD0=    1 NMtDS0=    0 NMtDT0=    0
 Symmetry not used in FoFCou.
 Leave Link  703 at Fri Oct  2 21:27:04 2020, MaxMem=   268435456 cpu:               3.7 elap:               0.5
 (Enter /applis/site/cecic/gaussian16/B.01/nehalem/g16/l716.exe)
 Dipole        = 2.10427541D-01 4.06467128D-16 1.48839907D-01
 -------------------------------------------------------------------
 Center     Atomic                   Forces (Hartrees/Bohr)
 Number     Number              X              Y              Z
 -------------------------------------------------------------------
      1        6           0.014036026    0.000000000    0.009921813
      2        1          -0.006551306    0.000000000   -0.005633691
      3        1          -0.007484720   -0.000000000   -0.004288121
 -------------------------------------------------------------------
 Cartesian Forces:  Max     0.014036026 RMS     0.007027877
 Leave Link  716 at Fri Oct  2 21:27:04 2020, MaxMem=   268435456 cpu:               0.5 elap:               0.1
 (Enter /applis/site/cecic/gaussian16/B.01/nehalem/g16/l103.exe)

 GradGradGradGradGradGradGradGradGradGradGradGradGradGradGradGradGradGrad
 Berny optimization.
 Using GEDIIS/GDIIS optimizer.
 FormGI is forming the generalized inverse of G from B-inverse, IUseBI=4.
 Internal  Forces:  Max     0.014856893 RMS     0.009396551
 Search for a local minimum.
 Step number   2 out of a maximum of  100
 All quantities printed in internal units (Hartrees-Bohrs-Radians)
 RMS Force = .93966D-02 SwitMx=.10000D-02 MixMth= 1
 Mixed Optimization -- RFO/linear search
 Update second derivatives using D2CorX and points    1    2
 DE= -9.09D-03 DEPred=-7.58D-03 R= 1.20D+00
 TightC=F SS=  1.41D+00  RLast= 2.77D-01 DXNew= 5.0454D-01 8.3204D-01
 Trust test= 1.20D+00 RLast= 2.77D-01 DXMaxT set to 5.05D-01
 The second derivative matrix:
                          R1        R2        A1
           R1           0.32174
           R2          -0.00490   0.32174
           A1           0.01342   0.01342   0.12351
 ITU=  1  0
 Use linear search instead of GDIIS.
     Eigenvalues ---    0.12167   0.31868   0.32664
 RFO step:  Lambda=-2.73650019D-06 EMin= 1.21665282D-01
 Quartic linear search produced a step of  0.54365.
 Iteration  1 RMS(Cart)=  0.07966716 RMS(Int)=  0.00469638
 Iteration  2 RMS(Cart)=  0.00470793 RMS(Int)=  0.00000211
 Iteration  3 RMS(Cart)=  0.00000187 RMS(Int)=  0.00000000
 Iteration  4 RMS(Cart)=  0.00000000 RMS(Int)=  0.00000000
 ITry= 1 IFail=0 DXMaxC= 7.95D-02 DCOld= 1.00D+10 DXMaxT= 5.05D-01 DXLimC= 3.00D+00 Rises=F
 Variable       Old X    -DE/DX   Delta X   Delta X   Delta X     New X
                                 (Linear)    (Quad)   (Total)
    R1        2.05135  -0.00470  -0.02452   0.00194  -0.02259   2.02877
    R2        2.05132  -0.00470  -0.02454   0.00195  -0.02259   2.02873
    A1        2.18052   0.01486   0.14674   0.00129   0.14803   2.32855
         Item               Value     Threshold  Converged?
 Maximum Force            0.014857     0.000450     NO 
 RMS     Force            0.009397     0.000300     NO 
 Maximum Displacement     0.079492     0.001800     NO 
 RMS     Displacement     0.077802     0.001200     NO 
 Predicted change in Energy=-9.863930D-04
 Lowest energy point so far.  Saving SCF results.
 GradGradGradGradGradGradGradGradGradGradGradGradGradGradGradGradGradGrad

 Leave Link  103 at Fri Oct  2 21:27:04 2020, MaxMem=   268435456 cpu:               0.4 elap:               0.1
 (Enter /applis/site/cecic/gaussian16/B.01/nehalem/g16/l202.exe)
                          Input orientation:                          
 ---------------------------------------------------------------------
 Center     Atomic      Atomic             Coordinates (Angstroms)
 Number     Number       Type             X           Y           Z
 ---------------------------------------------------------------------
      1          6           0        0.117585   -0.000000    0.083140
      2          1           0       -0.105129   -0.000000    1.133362
      3          1           0        1.033504    0.000000   -0.476880
 ---------------------------------------------------------------------
                    Distance matrix (angstroms):
                    1          2          3
     1  C    0.000000
     2  H    1.073577   0.000000
     3  H    1.073559   1.972147   0.000000
 Symmetry turned off by external request.
 Stoichiometry    CH2(3)
 Framework group  CS[SG(CH2)]
 Deg. of freedom     3
 Full point group                 CS      NOp   2
 Rotational constants (GHZ):        1625.0290847         257.8596295         222.5460244
 Leave Link  202 at Fri Oct  2 21:27:04 2020, MaxMem=   268435456 cpu:               0.1 elap:               0.0
 (Enter /applis/site/cecic/gaussian16/B.01/nehalem/g16/l301.exe)
 Standard basis: CC-pVTZ (5D, 7F)
 Ernie: Thresh=  0.10000D-02 Tol=  0.10000D-05 Strict=F.
 Ernie:  3 primitive shells out of 42 were deleted.
    58 basis functions,    86 primitive gaussians,    65 cartesian basis functions
     5 alpha electrons        3 beta electrons
       nuclear repulsion energy         6.1832978187 Hartrees.
 IExCor= 4336 DFT=T Ex+Corr=M062X ExCW=0 ScaHFX=  0.540000
 ScaDFX=  1.000000  1.000000  1.000000  1.000000 ScalE2=  1.000000  1.000000
 IRadAn=      5 IRanWt=     -1 IRanGd=            0 ICorTp=0 IEmpDi=  4
 NAtoms=    3 NActive=    3 NUniq=    3 SFac= 1.00D+00 NAtFMM=   60 NAOKFM=F Big=F
 Integral buffers will be    131072 words long.
 Raffenetti 2 integral format.
 Two-electron integral symmetry is turned off.
 Leave Link  301 at Fri Oct  2 21:27:04 2020, MaxMem=   268435456 cpu:               0.4 elap:               0.1
 (Enter /applis/site/cecic/gaussian16/B.01/nehalem/g16/l302.exe)
 NPDir=0 NMtPBC=     1 NCelOv=     1 NCel=       1 NClECP=     1 NCelD=      1
         NCelK=      1 NCelE2=     1 NClLst=     1 CellRange=     0.0.
 One-electron integrals computed using PRISM.
 NBasis=    58 RedAO= T EigKep=  2.01D-03  NBF=    58
 NBsUse=    58 1.00D-06 EigRej= -1.00D+00 NBFU=    58
 Precomputing XC quadrature grid using
 IXCGrd= 4 IRadAn=           5 IRanWt=          -1 IRanGd=           0 AccXCQ= 0.00D+00.
 Generated NRdTot=       0 NPtTot=           0 NUsed=           0 NTot=          32
 NSgBfM=    65    65    65    65    65 MxSgAt=     3 MxSgA2=     3.
 Leave Link  302 at Fri Oct  2 21:27:04 2020, MaxMem=   268435456 cpu:               1.0 elap:               0.1
 (Enter /applis/site/cecic/gaussian16/B.01/nehalem/g16/l303.exe)
 DipDrv:  MaxL=1.
 Leave Link  303 at Fri Oct  2 21:27:04 2020, MaxMem=   268435456 cpu:               0.3 elap:               0.1
 (Enter /applis/site/cecic/gaussian16/B.01/nehalem/g16/l401.exe)
 Initial guess from the checkpoint file:  "input.chk"
 B after Tr=     0.049683    0.000000    0.035131
         Rot=    1.000000   -0.000000    0.000000    0.000000 Ang=   0.00 deg.
 Guess basis will be translated and rotated to current coordinates.
 JPrj=2 DoOrth=T DoCkMO=T.
 Initial guess <Sx>= 0.0000 <Sy>= 0.0000 <Sz>= 1.0000 <S**2>= 2.0058 S= 1.0019
 Generating alternative initial guess.
 ExpMin= 1.03D-01 ExpMax= 8.24D+03 ExpMxC= 2.81D+02 IAcc=3 IRadAn=         5 AccDes= 0.00D+00
 Harris functional with IExCor= 1009 and IRadAn=       5 diagonalized for initial guess.
 HarFok:  IExCor= 1009 AccDes= 0.00D+00 IRadAn=         5 IDoV= 1 UseB2=F ITyADJ=14
 ICtDFT=  3500011 ScaDFX=  1.000000  1.000000  1.000000  1.000000
 FoFCou: FMM=F IPFlag=           0 FMFlag=      100000 FMFlg1=           0
         NFxFlg=           0 DoJE=T BraDBF=F KetDBF=T FulRan=T
         wScrn=  0.000000 ICntrl=       500 IOpCl=  0 I1Cent=   200000004 NGrid=           0
         NMat0=    1 NMatS0=      1 NMatT0=    0 NMatD0=    1 NMtDS0=    0 NMtDT0=    0
 Symmetry not used in FoFCou.
 Harris En= -39.0610765273141    
 Leave Link  401 at Fri Oct  2 21:27:05 2020, MaxMem=   268435456 cpu:               2.0 elap:               0.3
 (Enter /applis/site/cecic/gaussian16/B.01/nehalem/g16/l502.exe)
 Keep R1 and R2 ints in memory in canonical form, NReq=10049148.
 FoFCou: FMM=F IPFlag=           0 FMFlag=           0 FMFlg1=           0
         NFxFlg=           0 DoJE=F BraDBF=F KetDBF=F FulRan=T
         wScrn=  0.000000 ICntrl=       600 IOpCl=  0 I1Cent=           0 NGrid=           0
         NMat0=    1 NMatS0=   1711 NMatT0=    0 NMatD0=    1 NMtDS0=    0 NMtDT0=    0
 Symmetry not used in FoFCou.
 Two-electron integral symmetry not used.
 UHF open shell SCF:
 Using DIIS extrapolation, IDIIS=  1040.
 NGot=   268435456 LenX=   265496682 LenY=   265492016
 Requested convergence on RMS density matrix=1.00D-08 within 128 cycles.
 Requested convergence on MAX density matrix=1.00D-06.
 Requested convergence on             energy=1.00D-06.
 No special actions if energy rises.
 Integral accuracy reduced to 1.0D-05 until final iterations.

 Cycle   1  Pass 0  IDiag  1:
 E= -39.1443507110596    
 DIIS: error= 5.87D-03 at cycle   1 NSaved=   1.
 NSaved= 1 IEnMin= 1 EnMin= -39.1443507110596     IErMin= 1 ErrMin= 5.87D-03
 ErrMax= 5.87D-03  0.00D+00 EMaxC= 1.00D-01 BMatC= 3.09D-03 BMatP= 3.09D-03
 IDIUse=3 WtCom= 9.41D-01 WtEn= 5.87D-02
 Coeff-Com:  0.100D+01
 Coeff-En:   0.100D+01
 Coeff:      0.100D+01
 Gap=     1.845 Goal=   None    Shift=    0.000
 Gap=     1.948 Goal=   None    Shift=    0.000
 GapD=    1.845 DampG=2.000 DampE=1.000 DampFc=2.0000 IDamp=-1.
 RMSDP=3.16D-04 MaxDP=3.76D-03              OVMax= 1.46D-02

 Cycle   2  Pass 0  IDiag  1:
 E= -39.1450716708674     Delta-E=       -0.000720959808 Rises=F Damp=F
 DIIS: error= 1.20D-03 at cycle   2 NSaved=   2.
 NSaved= 2 IEnMin= 2 EnMin= -39.1450716708674     IErMin= 2 ErrMin= 1.20D-03
 ErrMax= 1.20D-03  0.00D+00 EMaxC= 1.00D-01 BMatC= 9.55D-05 BMatP= 3.09D-03
 IDIUse=3 WtCom= 9.88D-01 WtEn= 1.20D-02
 Coeff-Com: -0.552D-01 0.106D+01
 Coeff-En:   0.000D+00 0.100D+01
 Coeff:     -0.545D-01 0.105D+01
 Gap=     0.404 Goal=   None    Shift=    0.000
 Gap=     0.444 Goal=   None    Shift=    0.000
 RMSDP=1.15D-04 MaxDP=2.10D-03 DE=-7.21D-04 OVMax= 6.06D-03

 Cycle   3  Pass 0  IDiag  1:
 E= -39.1451225949947     Delta-E=       -0.000050924127 Rises=F Damp=F
 DIIS: error= 5.31D-04 at cycle   3 NSaved=   3.
 NSaved= 3 IEnMin= 3 EnMin= -39.1451225949947     IErMin= 3 ErrMin= 5.31D-04
 ErrMax= 5.31D-04  0.00D+00 EMaxC= 1.00D-01 BMatC= 1.98D-05 BMatP= 9.55D-05
 IDIUse=3 WtCom= 9.95D-01 WtEn= 5.31D-03
 Coeff-Com: -0.343D-01 0.226D+00 0.808D+00
 Coeff-En:   0.000D+00 0.000D+00 0.100D+01
 Coeff:     -0.341D-01 0.225D+00 0.809D+00
 Gap=     0.405 Goal=   None    Shift=    0.000
 Gap=     0.445 Goal=   None    Shift=    0.000
 RMSDP=4.30D-05 MaxDP=7.59D-04 DE=-5.09D-05 OVMax= 1.58D-03

 Cycle   4  Pass 0  IDiag  1:
 E= -39.1451303019797     Delta-E=       -0.000007706985 Rises=F Damp=F
 DIIS: error= 2.32D-04 at cycle   4 NSaved=   4.
 NSaved= 4 IEnMin= 4 EnMin= -39.1451303019797     IErMin= 4 ErrMin= 2.32D-04
 ErrMax= 2.32D-04  0.00D+00 EMaxC= 1.00D-01 BMatC= 2.29D-06 BMatP= 1.98D-05
 IDIUse=3 WtCom= 9.98D-01 WtEn= 2.32D-03
 Coeff-Com:  0.752D-02-0.166D+00 0.281D-01 0.113D+01
 Coeff-En:   0.000D+00 0.000D+00 0.000D+00 0.100D+01
 Coeff:      0.750D-02-0.166D+00 0.281D-01 0.113D+01
 Gap=     0.405 Goal=   None    Shift=    0.000
 Gap=     0.445 Goal=   None    Shift=    0.000
 RMSDP=2.65D-05 MaxDP=4.54D-04 DE=-7.71D-06 OVMax= 1.11D-03

 Cycle   5  Pass 0  IDiag  1:
 E= -39.1451318095495     Delta-E=       -0.000001507570 Rises=F Damp=F
 DIIS: error= 3.06D-05 at cycle   5 NSaved=   5.
 NSaved= 5 IEnMin= 5 EnMin= -39.1451318095495     IErMin= 5 ErrMin= 3.06D-05
 ErrMax= 3.06D-05  0.00D+00 EMaxC= 1.00D-01 BMatC= 5.11D-08 BMatP= 2.29D-06
 IDIUse=1 WtCom= 1.00D+00 WtEn= 0.00D+00
 Coeff-Com:  0.111D-02-0.591D-02-0.330D-01-0.413D-01 0.108D+01
 Coeff:      0.111D-02-0.591D-02-0.330D-01-0.413D-01 0.108D+01
 Gap=     0.405 Goal=   None    Shift=    0.000
 Gap=     0.446 Goal=   None    Shift=    0.000
 RMSDP=4.32D-06 MaxDP=8.34D-05 DE=-1.51D-06 OVMax= 1.72D-04

 Initial convergence to 1.0D-05 achieved.  Increase integral accuracy.
 Cycle   6  Pass 1  IDiag  1:
 E= -39.1450685783728     Delta-E=        0.000063231177 Rises=F Damp=F
 DIIS: error= 3.53D-04 at cycle   1 NSaved=   1.
 NSaved= 1 IEnMin= 1 EnMin= -39.1450685783728     IErMin= 1 ErrMin= 3.53D-04
 ErrMax= 3.53D-04  0.00D+00 EMaxC= 1.00D-01 BMatC= 5.40D-06 BMatP= 5.40D-06
 IDIUse=3 WtCom= 9.96D-01 WtEn= 3.53D-03
 Coeff-Com:  0.100D+01
 Coeff-En:   0.100D+01
 Coeff:      0.100D+01
 Gap=     0.405 Goal=   None    Shift=    0.000
 Gap=     0.445 Goal=   None    Shift=    0.000
 RMSDP=4.32D-06 MaxDP=8.34D-05 DE= 6.32D-05 OVMax= 3.36D-04

 Cycle   7  Pass 1  IDiag  1:
 E= -39.1450692001741     Delta-E=       -0.000000621801 Rises=F Damp=F
 DIIS: error= 1.90D-05 at cycle   2 NSaved=   2.
 NSaved= 2 IEnMin= 2 EnMin= -39.1450692001741     IErMin= 2 ErrMin= 1.90D-05
 ErrMax= 1.90D-05  0.00D+00 EMaxC= 1.00D-01 BMatC= 5.73D-08 BMatP= 5.40D-06
 IDIUse=1 WtCom= 1.00D+00 WtEn= 0.00D+00
 Coeff-Com: -0.163D-01 0.102D+01
 Coeff:     -0.163D-01 0.102D+01
 Gap=     0.405 Goal=   None    Shift=    0.000
 Gap=     0.445 Goal=   None    Shift=    0.000
 RMSDP=2.28D-06 MaxDP=3.51D-05 DE=-6.22D-07 OVMax= 6.59D-05

 Cycle   8  Pass 1  IDiag  1:
 E= -39.1450692157594     Delta-E=       -0.000000015585 Rises=F Damp=F
 DIIS: error= 1.64D-05 at cycle   3 NSaved=   3.
 NSaved= 3 IEnMin= 3 EnMin= -39.1450692157594     IErMin= 3 ErrMin= 1.64D-05
 ErrMax= 1.64D-05  0.00D+00 EMaxC= 1.00D-01 BMatC= 8.18D-09 BMatP= 5.73D-08
 IDIUse=1 WtCom= 1.00D+00 WtEn= 0.00D+00
 Coeff-Com: -0.140D-01 0.119D+00 0.895D+00
 Coeff:     -0.140D-01 0.119D+00 0.895D+00
 Gap=     0.405 Goal=   None    Shift=    0.000
 Gap=     0.445 Goal=   None    Shift=    0.000
 RMSDP=5.47D-07 MaxDP=6.67D-06 DE=-1.56D-08 OVMax= 3.28D-05

 Cycle   9  Pass 1  IDiag  1:
 E= -39.1450692178755     Delta-E=       -0.000000002116 Rises=F Damp=F
 DIIS: error= 4.41D-06 at cycle   4 NSaved=   4.
 NSaved= 4 IEnMin= 4 EnMin= -39.1450692178755     IErMin= 4 ErrMin= 4.41D-06
 ErrMax= 4.41D-06  0.00D+00 EMaxC= 1.00D-01 BMatC= 1.20D-09 BMatP= 8.18D-09
 IDIUse=1 WtCom= 1.00D+00 WtEn= 0.00D+00
 Coeff-Com:  0.105D-02-0.955D-01 0.890D-01 0.101D+01
 Coeff:      0.105D-02-0.955D-01 0.890D-01 0.101D+01
 Gap=     0.405 Goal=   None    Shift=    0.000
 Gap=     0.445 Goal=   None    Shift=    0.000
 RMSDP=3.19D-07 MaxDP=7.15D-06 DE=-2.12D-09 OVMax= 1.09D-05

 Cycle  10  Pass 1  IDiag  1:
 E= -39.1450692183048     Delta-E=       -0.000000000429 Rises=F Damp=F
 DIIS: error= 1.77D-06 at cycle   5 NSaved=   5.
 NSaved= 5 IEnMin= 5 EnMin= -39.1450692183048     IErMin= 5 ErrMin= 1.77D-06
 ErrMax= 1.77D-06  0.00D+00 EMaxC= 1.00D-01 BMatC= 1.19D-10 BMatP= 1.20D-09
 IDIUse=1 WtCom= 1.00D+00 WtEn= 0.00D+00
 Coeff-Com:  0.184D-02-0.242D-01-0.864D-01 0.141D+00 0.968D+00
 Coeff:      0.184D-02-0.242D-01-0.864D-01 0.141D+00 0.968D+00
 Gap=     0.405 Goal=   None    Shift=    0.000
 Gap=     0.445 Goal=   None    Shift=    0.000
 RMSDP=1.12D-07 MaxDP=2.60D-06 DE=-4.29D-10 OVMax= 4.71D-06

 Cycle  11  Pass 1  IDiag  1:
 E= -39.1450692183507     Delta-E=       -0.000000000046 Rises=F Damp=F
 DIIS: error= 2.42D-07 at cycle   6 NSaved=   6.
 NSaved= 6 IEnMin= 6 EnMin= -39.1450692183507     IErMin= 6 ErrMin= 2.42D-07
 ErrMax= 2.42D-07  0.00D+00 EMaxC= 1.00D-01 BMatC= 4.86D-12 BMatP= 1.19D-10
 IDIUse=1 WtCom= 1.00D+00 WtEn= 0.00D+00
 Coeff-Com: -0.272D-03 0.897D-02 0.334D-02-0.825D-01-0.137D+00 0.121D+01
 Coeff:     -0.272D-03 0.897D-02 0.334D-02-0.825D-01-0.137D+00 0.121D+01
 Gap=     0.405 Goal=   None    Shift=    0.000
 Gap=     0.445 Goal=   None    Shift=    0.000
 RMSDP=3.20D-08 MaxDP=6.50D-07 DE=-4.60D-11 OVMax= 1.15D-06

 Cycle  12  Pass 1  IDiag  1:
 E= -39.1450692183537     Delta-E=       -0.000000000003 Rises=F Damp=F
 DIIS: error= 4.42D-08 at cycle   7 NSaved=   7.
 NSaved= 7 IEnMin= 7 EnMin= -39.1450692183537     IErMin= 7 ErrMin= 4.42D-08
 ErrMax= 4.42D-08  0.00D+00 EMaxC= 1.00D-01 BMatC= 1.79D-13 BMatP= 4.86D-12
 IDIUse=1 WtCom= 1.00D+00 WtEn= 0.00D+00
 Coeff-Com: -0.772D-04 0.850D-03 0.365D-02-0.497D-02-0.402D-01-0.351D-01
 Coeff-Com:  0.108D+01
 Coeff:     -0.772D-04 0.850D-03 0.365D-02-0.497D-02-0.402D-01-0.351D-01
 Coeff:      0.108D+01
 Gap=     0.405 Goal=   None    Shift=    0.000
 Gap=     0.445 Goal=   None    Shift=    0.000
 RMSDP=5.54D-09 MaxDP=1.09D-07 DE=-3.01D-12 OVMax= 2.51D-07

 SCF Done:  E(UM062X) =  -39.1450692184     A.U. after   12 cycles
            NFock= 12  Conv=0.55D-08     -V/T= 2.0054
 <Sx>= 0.0000 <Sy>= 0.0000 <Sz>= 1.0000 <S**2>= 2.0061 S= 1.0020
 <L.S>= 0.000000000000E+00
 KE= 3.893500589357D+01 PE=-1.029436111245D+02 EE= 1.868023819389D+01
 Annihilation of the first spin contaminant:
 S**2 before annihilation     2.0061,   after     2.0000
 Leave Link  502 at Fri Oct  2 21:27:06 2020, MaxMem=   268435456 cpu:              12.2 elap:               1.7
 (Enter /applis/site/cecic/gaussian16/B.01/nehalem/g16/l701.exe)
 ... and contract with generalized density number  0.
 Compute integral first derivatives.
 Leave Link  701 at Fri Oct  2 21:27:07 2020, MaxMem=   268435456 cpu:               1.0 elap:               0.7
 (Enter /applis/site/cecic/gaussian16/B.01/nehalem/g16/l702.exe)
 L702 exits ... SP integral derivatives will be done elsewhere.
 Leave Link  702 at Fri Oct  2 21:27:07 2020, MaxMem=   268435456 cpu:               0.3 elap:               0.1
 (Enter /applis/site/cecic/gaussian16/B.01/nehalem/g16/l703.exe)
 Integral derivatives from FoFJK, PRISM(SPDF).
 Compute integral first derivatives, UseDBF=F ICtDFT=           0.
 Calling FoFJK, ICntrl=      2127 FMM=F ISym2X=0 I1Cent= 0 IOpClX= 1 NMat=1 NMatS=1 NMatT=0.
 FoFJK:  IHMeth= 1 ICntrl=    2127 DoSepK=F KAlg= 0 I1Cent=           0 FoldK=F
 IRaf=         0 NMat=       1 IRICut=       1 DoRegI=T DoRafI=F ISym2E= 0 IDoP0=0 IntGTp=1.
 FoFCou: FMM=F IPFlag=           0 FMFlag=      100000 FMFlg1=         800
         NFxFlg=           0 DoJE=F BraDBF=F KetDBF=F FulRan=T
         wScrn=  0.000000 ICntrl=      2127 IOpCl=  1 I1Cent=           0 NGrid=           0
         NMat0=    1 NMatS0=      1 NMatT0=    0 NMatD0=    1 NMtDS0=    0 NMtDT0=    0
 Symmetry not used in FoFCou.
 Leave Link  703 at Fri Oct  2 21:27:08 2020, MaxMem=   268435456 cpu:               3.5 elap:               0.5
 (Enter /applis/site/cecic/gaussian16/B.01/nehalem/g16/l716.exe)
 Dipole        = 1.94653771D-01-2.85106479D-16 1.37703408D-01
 -------------------------------------------------------------------
 Center     Atomic                   Forces (Hartrees/Bohr)
 Number     Number              X              Y              Z
 -------------------------------------------------------------------
      1        6          -0.000156785    0.000000000   -0.000131522
      2        1          -0.000923540   -0.000000000    0.001450069
      3        1           0.001080325    0.000000000   -0.001318547
 -------------------------------------------------------------------
 Cartesian Forces:  Max     0.001450069 RMS     0.000809882
 Leave Link  716 at Fri Oct  2 21:27:08 2020, MaxMem=   268435456 cpu:               0.5 elap:               0.1
 (Enter /applis/site/cecic/gaussian16/B.01/nehalem/g16/l103.exe)

 GradGradGradGradGradGradGradGradGradGradGradGradGradGradGradGradGradGrad
 Berny optimization.
 Using GEDIIS/GDIIS optimizer.
 FormGI is forming the generalized inverse of G from B-inverse, IUseBI=4.
 Internal  Forces:  Max     0.001615688 RMS     0.001480677
 Search for a local minimum.
 Step number   3 out of a maximum of  100
 All quantities printed in internal units (Hartrees-Bohrs-Radians)
 RMS Force = .14807D-02 SwitMx=.10000D-02 MixMth= 1
 Mixed Optimization -- RFO/linear search
 Update second derivatives using D2CorX and points    1    2    3
 DE= -1.22D-03 DEPred=-9.86D-04 R= 1.24D+00
 TightC=F SS=  1.41D+00  RLast= 1.51D-01 DXNew= 8.4853D-01 4.5431D-01
 Trust test= 1.24D+00 RLast= 1.51D-01 DXMaxT set to 5.05D-01
 The second derivative matrix:
                          R1        R2        A1
           R1           0.32986
           R2           0.00319   0.32979
           A1           0.00816   0.00823   0.09489
 ITU=  1  1  0
 Use linear search instead of GDIIS.
     Eigenvalues ---    0.09433   0.32664   0.33358
 RFO step:  Lambda=-2.43702304D-05 EMin= 9.43277016D-02
 Quartic linear search produced a step of  0.04883.
 Iteration  1 RMS(Cart)=  0.00874202 RMS(Int)=  0.00003550
 Iteration  2 RMS(Cart)=  0.00002789 RMS(Int)=  0.00000000
 Iteration  3 RMS(Cart)=  0.00000000 RMS(Int)=  0.00000000
 ITry= 1 IFail=0 DXMaxC= 9.30D-03 DCOld= 1.00D+10 DXMaxT= 5.05D-01 DXLimC= 3.00D+00 Rises=F
 Variable       Old X    -DE/DX   Delta X   Delta X   Delta X     New X
                                 (Linear)    (Quad)   (Total)
    R1        2.02877   0.00162  -0.00110   0.00562   0.00452   2.03328
    R2        2.02873   0.00160  -0.00110   0.00558   0.00448   2.03321
    A1        2.32855   0.00118   0.00723   0.00517   0.01239   2.34094
         Item               Value     Threshold  Converged?
 Maximum Force            0.001616     0.000450     NO 
 RMS     Force            0.001481     0.000300     NO 
 Maximum Displacement     0.009295     0.001800     NO 
 RMS     Displacement     0.008735     0.001200     NO 
 Predicted change in Energy=-1.417638D-05
 Lowest energy point so far.  Saving SCF results.
 GradGradGradGradGradGradGradGradGradGradGradGradGradGradGradGradGradGrad

 Leave Link  103 at Fri Oct  2 21:27:08 2020, MaxMem=   268435456 cpu:               0.9 elap:               0.2
 (Enter /applis/site/cecic/gaussian16/B.01/nehalem/g16/l202.exe)
                          Input orientation:                          
 ---------------------------------------------------------------------
 Center     Atomic      Atomic             Coordinates (Angstroms)
 Number     Number       Type             X           Y           Z
 ---------------------------------------------------------------------
      1          6           0        0.120415   -0.000000    0.085133
      2          1           0       -0.109316   -0.000000    1.136289
      3          1           0        1.034861    0.000000   -0.481799
 ---------------------------------------------------------------------
                    Distance matrix (angstroms):
                    1          2          3
     1  C    0.000000
     2  H    1.075967   0.000000
     3  H    1.075929   1.981754   0.000000
 Symmetry turned off by external request.
 Stoichiometry    CH2(3)
 Framework group  CS[SG(CH2)]
 Deg. of freedom     3
 Full point group                 CS      NOp   2
 Rotational constants (GHZ):        1665.5145758         255.3658183         221.4169575
 Leave Link  202 at Fri Oct  2 21:27:08 2020, MaxMem=   268435456 cpu:               0.8 elap:               0.2
 (Enter /applis/site/cecic/gaussian16/B.01/nehalem/g16/l301.exe)
 Standard basis: CC-pVTZ (5D, 7F)
 Ernie: Thresh=  0.10000D-02 Tol=  0.10000D-05 Strict=F.
 Ernie:  3 primitive shells out of 42 were deleted.
    58 basis functions,    86 primitive gaussians,    65 cartesian basis functions
     5 alpha electrons        3 beta electrons
       nuclear repulsion energy         6.1689152988 Hartrees.
 IExCor= 4336 DFT=T Ex+Corr=M062X ExCW=0 ScaHFX=  0.540000
 ScaDFX=  1.000000  1.000000  1.000000  1.000000 ScalE2=  1.000000  1.000000
 IRadAn=      5 IRanWt=     -1 IRanGd=            0 ICorTp=0 IEmpDi=  4
 NAtoms=    3 NActive=    3 NUniq=    3 SFac= 1.00D+00 NAtFMM=   60 NAOKFM=F Big=F
 Integral buffers will be    131072 words long.
 Raffenetti 2 integral format.
 Two-electron integral symmetry is turned off.
 Leave Link  301 at Fri Oct  2 21:27:08 2020, MaxMem=   268435456 cpu:               0.7 elap:               0.1
 (Enter /applis/site/cecic/gaussian16/B.01/nehalem/g16/l302.exe)
 NPDir=0 NMtPBC=     1 NCelOv=     1 NCel=       1 NClECP=     1 NCelD=      1
         NCelK=      1 NCelE2=     1 NClLst=     1 CellRange=     0.0.
 One-electron integrals computed using PRISM.
 NBasis=    58 RedAO= T EigKep=  2.02D-03  NBF=    58
 NBsUse=    58 1.00D-06 EigRej= -1.00D+00 NBFU=    58
 Precomputing XC quadrature grid using
 IXCGrd= 4 IRadAn=           5 IRanWt=          -1 IRanGd=           0 AccXCQ= 0.00D+00.
 Generated NRdTot=       0 NPtTot=           0 NUsed=           0 NTot=          32
 NSgBfM=    65    65    65    65    65 MxSgAt=     3 MxSgA2=     3.
 Leave Link  302 at Fri Oct  2 21:27:08 2020, MaxMem=   268435456 cpu:               1.0 elap:               0.2
 (Enter /applis/site/cecic/gaussian16/B.01/nehalem/g16/l303.exe)
 DipDrv:  MaxL=1.
 Leave Link  303 at Fri Oct  2 21:27:09 2020, MaxMem=   268435456 cpu:               0.7 elap:               0.1
 (Enter /applis/site/cecic/gaussian16/B.01/nehalem/g16/l401.exe)
 Initial guess from the checkpoint file:  "input.chk"
 B after Tr=     0.003343    0.000000    0.002353
         Rot=    1.000000   -0.000000    0.000001   -0.000000 Ang=   0.00 deg.
 Guess basis will be translated and rotated to current coordinates.
 JPrj=2 DoOrth=T DoCkMO=T.
 Initial guess <Sx>= 0.0000 <Sy>= 0.0000 <Sz>= 1.0000 <S**2>= 2.0062 S= 1.0020
 Leave Link  401 at Fri Oct  2 21:27:09 2020, MaxMem=   268435456 cpu:               0.9 elap:               0.2
 (Enter /applis/site/cecic/gaussian16/B.01/nehalem/g16/l502.exe)
 Keep R1 and R2 ints in memory in canonical form, NReq=10049148.
 FoFCou: FMM=F IPFlag=           0 FMFlag=           0 FMFlg1=           0
         NFxFlg=           0 DoJE=F BraDBF=F KetDBF=F FulRan=T
         wScrn=  0.000000 ICntrl=       600 IOpCl=  0 I1Cent=           0 NGrid=           0
         NMat0=    1 NMatS0=   1711 NMatT0=    0 NMatD0=    1 NMtDS0=    0 NMtDT0=    0
 Symmetry not used in FoFCou.
 Two-electron integral symmetry not used.
 UHF open shell SCF:
 Using DIIS extrapolation, IDIIS=  1040.
 NGot=   268435456 LenX=   265496682 LenY=   265492016
 Requested convergence on RMS density matrix=1.00D-08 within 128 cycles.
 Requested convergence on MAX density matrix=1.00D-06.
 Requested convergence on             energy=1.00D-06.
 No special actions if energy rises.

 Cycle   1  Pass 1  IDiag  1:
 E= -39.1450758634590    
 DIIS: error= 5.24D-04 at cycle   1 NSaved=   1.
 NSaved= 1 IEnMin= 1 EnMin= -39.1450758634590     IErMin= 1 ErrMin= 5.24D-04
 ErrMax= 5.24D-04  0.00D+00 EMaxC= 1.00D-01 BMatC= 2.95D-05 BMatP= 2.95D-05
 IDIUse=3 WtCom= 9.95D-01 WtEn= 5.24D-03
 Coeff-Com:  0.100D+01
 Coeff-En:   0.100D+01
 Coeff:      0.100D+01
 Gap=     1.841 Goal=   None    Shift=    0.000
 Gap=     1.893 Goal=   None    Shift=    0.000
 RMSDP=2.94D-05 MaxDP=4.34D-04              OVMax= 1.58D-03

 Cycle   2  Pass 1  IDiag  1:
 E= -39.1450820935845     Delta-E=       -0.000006230125 Rises=F Damp=F
 DIIS: error= 1.32D-04 at cycle   2 NSaved=   2.
 NSaved= 2 IEnMin= 2 EnMin= -39.1450820935845     IErMin= 2 ErrMin= 1.32D-04
 ErrMax= 1.32D-04  0.00D+00 EMaxC= 1.00D-01 BMatC= 1.56D-06 BMatP= 2.95D-05
 IDIUse=3 WtCom= 9.99D-01 WtEn= 1.32D-03
 Coeff-Com:  0.366D-01 0.963D+00
 Coeff-En:   0.000D+00 0.100D+01
 Coeff:      0.365D-01 0.963D+00
 Gap=     0.404 Goal=   None    Shift=    0.000
 Gap=     0.446 Goal=   None    Shift=    0.000
 RMSDP=1.17D-05 MaxDP=2.45D-04 DE=-6.23D-06 OVMax= 4.75D-04

 Cycle   3  Pass 1  IDiag  1:
 E= -39.1450825984785     Delta-E=       -0.000000504894 Rises=F Damp=F
 DIIS: error= 6.26D-05 at cycle   3 NSaved=   3.
 NSaved= 3 IEnMin= 3 EnMin= -39.1450825984785     IErMin= 3 ErrMin= 6.26D-05
 ErrMax= 6.26D-05  0.00D+00 EMaxC= 1.00D-01 BMatC= 3.00D-07 BMatP= 1.56D-06
 IDIUse=1 WtCom= 1.00D+00 WtEn= 0.00D+00
 Coeff-Com: -0.309D-01 0.226D+00 0.805D+00
 Coeff:     -0.309D-01 0.226D+00 0.805D+00
 Gap=     0.404 Goal=   None    Shift=    0.000
 Gap=     0.446 Goal=   None    Shift=    0.000
 RMSDP=4.10D-06 MaxDP=6.96D-05 DE=-5.05D-07 OVMax= 1.94D-04

 Cycle   4  Pass 1  IDiag  1:
 E= -39.1450827048299     Delta-E=       -0.000000106351 Rises=F Damp=F
 DIIS: error= 2.81D-05 at cycle   4 NSaved=   4.
 NSaved= 4 IEnMin= 4 EnMin= -39.1450827048299     IErMin= 4 ErrMin= 2.81D-05
 ErrMax= 2.81D-05  0.00D+00 EMaxC= 1.00D-01 BMatC= 2.44D-08 BMatP= 3.00D-07
 IDIUse=1 WtCom= 1.00D+00 WtEn= 0.00D+00
 Coeff-Com: -0.169D-02-0.104D+00 0.168D-03 0.111D+01
 Coeff:     -0.169D-02-0.104D+00 0.168D-03 0.111D+01
 Gap=     0.404 Goal=   None    Shift=    0.000
 Gap=     0.446 Goal=   None    Shift=    0.000
 RMSDP=2.43D-06 MaxDP=4.73D-05 DE=-1.06D-07 OVMax= 1.12D-04

 Cycle   5  Pass 1  IDiag  1:
 E= -39.1450827204472     Delta-E=       -0.000000015617 Rises=F Damp=F
 DIIS: error= 4.67D-06 at cycle   5 NSaved=   5.
 NSaved= 5 IEnMin= 5 EnMin= -39.1450827204472     IErMin= 5 ErrMin= 4.67D-06
 ErrMax= 4.67D-06  0.00D+00 EMaxC= 1.00D-01 BMatC= 1.55D-09 BMatP= 2.44D-08
 IDIUse=1 WtCom= 1.00D+00 WtEn= 0.00D+00
 Coeff-Com:  0.245D-02-0.292D-01-0.721D-01 0.633D-01 0.104D+01
 Coeff:      0.245D-02-0.292D-01-0.721D-01 0.633D-01 0.104D+01
 Gap=     0.404 Goal=   None    Shift=    0.000
 Gap=     0.446 Goal=   None    Shift=    0.000
 RMSDP=6.36D-07 MaxDP=1.19D-05 DE=-1.56D-08 OVMax= 2.60D-05

 Cycle   6  Pass 1  IDiag  1:
 E= -39.1450827213392     Delta-E=       -0.000000000892 Rises=F Damp=F
 DIIS: error= 6.18D-07 at cycle   6 NSaved=   6.
 NSaved= 6 IEnMin= 6 EnMin= -39.1450827213392     IErMin= 6 ErrMin= 6.18D-07
 ErrMax= 6.18D-07  0.00D+00 EMaxC= 1.00D-01 BMatC= 3.04D-11 BMatP= 1.55D-09
 IDIUse=1 WtCom= 1.00D+00 WtEn= 0.00D+00
 Coeff-Com: -0.227D-03 0.748D-02 0.873D-02-0.469D-01-0.914D-01 0.112D+01
 Coeff:     -0.227D-03 0.748D-02 0.873D-02-0.469D-01-0.914D-01 0.112D+01
 Gap=     0.404 Goal=   None    Shift=    0.000
 Gap=     0.446 Goal=   None    Shift=    0.000
 RMSDP=8.51D-08 MaxDP=1.19D-06 DE=-8.92D-10 OVMax= 3.90D-06

 Cycle   7  Pass 1  IDiag  1:
 E= -39.1450827213565     Delta-E=       -0.000000000017 Rises=F Damp=F
 DIIS: error= 1.62D-07 at cycle   7 NSaved=   7.
 NSaved= 7 IEnMin= 7 EnMin= -39.1450827213565     IErMin= 7 ErrMin= 1.62D-07
 ErrMax= 1.62D-07  0.00D+00 EMaxC= 1.00D-01 BMatC= 1.37D-12 BMatP= 3.04D-11
 IDIUse=1 WtCom= 1.00D+00 WtEn= 0.00D+00
 Coeff-Com: -0.866D-04 0.946D-03 0.218D-02-0.138D-02-0.357D-01-0.504D-01
 Coeff-Com:  0.108D+01
 Coeff:     -0.866D-04 0.946D-03 0.218D-02-0.138D-02-0.357D-01-0.504D-01
 Coeff:      0.108D+01
 Gap=     0.404 Goal=   None    Shift=    0.000
 Gap=     0.446 Goal=   None    Shift=    0.000
 RMSDP=1.92D-08 MaxDP=3.16D-07 DE=-1.73D-11 OVMax= 8.47D-07

 Cycle   8  Pass 1  IDiag  1:
 E= -39.1450827213573     Delta-E=       -0.000000000001 Rises=F Damp=F
 DIIS: error= 3.82D-08 at cycle   8 NSaved=   8.
 NSaved= 8 IEnMin= 8 EnMin= -39.1450827213573     IErMin= 8 ErrMin= 3.82D-08
 ErrMax= 3.82D-08  0.00D+00 EMaxC= 1.00D-01 BMatC= 8.67D-14 BMatP= 1.37D-12
 IDIUse=1 WtCom= 1.00D+00 WtEn= 0.00D+00
 Coeff-Com:  0.220D-04-0.447D-03-0.765D-03 0.223D-02 0.103D-01-0.449D-01
 Coeff-Com: -0.159D+00 0.119D+01
 Coeff:      0.220D-04-0.447D-03-0.765D-03 0.223D-02 0.103D-01-0.449D-01
 Coeff:     -0.159D+00 0.119D+01
 Gap=     0.404 Goal=   None    Shift=    0.000
 Gap=     0.446 Goal=   None    Shift=    0.000
 RMSDP=4.47D-09 MaxDP=8.91D-08 DE=-8.24D-13 OVMax= 1.59D-07

 SCF Done:  E(UM062X) =  -39.1450827214     A.U. after    8 cycles
            NFock=  8  Conv=0.45D-08     -V/T= 2.0056
 <Sx>= 0.0000 <Sy>= 0.0000 <Sz>= 1.0000 <S**2>= 2.0062 S= 1.0021
 <L.S>= 0.000000000000E+00
 KE= 3.892723329536D+01 PE=-1.029101006938D+02 EE= 1.866886937821D+01
 Annihilation of the first spin contaminant:
 S**2 before annihilation     2.0062,   after     2.0000
 Leave Link  502 at Fri Oct  2 21:27:10 2020, MaxMem=   268435456 cpu:              10.6 elap:               1.4
 (Enter /applis/site/cecic/gaussian16/B.01/nehalem/g16/l701.exe)
 ... and contract with generalized density number  0.
 Compute integral first derivatives.
 Leave Link  701 at Fri Oct  2 21:27:10 2020, MaxMem=   268435456 cpu:               1.0 elap:               0.2
 (Enter /applis/site/cecic/gaussian16/B.01/nehalem/g16/l702.exe)
 L702 exits ... SP integral derivatives will be done elsewhere.
 Leave Link  702 at Fri Oct  2 21:27:10 2020, MaxMem=   268435456 cpu:               0.5 elap:               0.1
 (Enter /applis/site/cecic/gaussian16/B.01/nehalem/g16/l703.exe)
 Integral derivatives from FoFJK, PRISM(SPDF).
 Compute integral first derivatives, UseDBF=F ICtDFT=           0.
 Calling FoFJK, ICntrl=      2127 FMM=F ISym2X=0 I1Cent= 0 IOpClX= 1 NMat=1 NMatS=1 NMatT=0.
 FoFJK:  IHMeth= 1 ICntrl=    2127 DoSepK=F KAlg= 0 I1Cent=           0 FoldK=F
 IRaf=         0 NMat=       1 IRICut=       1 DoRegI=T DoRafI=F ISym2E= 0 IDoP0=0 IntGTp=1.
 FoFCou: FMM=F IPFlag=           0 FMFlag=      100000 FMFlg1=         800
         NFxFlg=           0 DoJE=F BraDBF=F KetDBF=F FulRan=T
[...]
 Coeff-Com: -0.538D-07 0.190D-05 0.682D-08-0.507D-05-0.611D-04 0.377D-04
 Coeff-Com:  0.458D-03 0.763D-03 0.959D-03-0.150D-01-0.361D-01 0.690D-02
 Coeff-Com:  0.104D+01
 Coeff:     -0.538D-07 0.190D-05 0.682D-08-0.507D-05-0.611D-04 0.377D-04
 Coeff:      0.458D-03 0.763D-03 0.959D-03-0.150D-01-0.361D-01 0.690D-02
 Coeff:      0.104D+01
 Gap=     0.104 Goal=   None    Shift=    0.000
 RMSDP=1.11D-08 MaxDP=3.06D-07 DE=-6.75D-13 OVMax= 1.45D-07

 Cycle  14  Pass 1  IDiag  1:
 E= -38.9325357321583     Delta-E=        0.000000000000 Rises=F Damp=F
 DIIS: error= 7.45D-09 at cycle  14 NSaved=  14.
 NSaved=14 IEnMin=13 EnMin= -38.9325357321583     IErMin=14 ErrMin= 7.45D-09
 ErrMax= 7.45D-09  0.00D+00 EMaxC= 1.00D-01 BMatC= 1.37D-15 BMatP= 7.91D-15
 IDIUse=1 WtCom= 1.00D+00 WtEn= 0.00D+00
 Coeff-Com: -0.135D-06 0.126D-05 0.253D-05-0.271D-05-0.330D-04-0.195D-04
 Coeff-Com:  0.116D-03 0.312D-03 0.115D-02-0.237D-02-0.151D-01-0.428D-01
 Coeff-Com:  0.309D+00 0.749D+00
 Coeff:     -0.135D-06 0.126D-05 0.253D-05-0.271D-05-0.330D-04-0.195D-04
 Coeff:      0.116D-03 0.312D-03 0.115D-02-0.237D-02-0.151D-01-0.428D-01
 Coeff:      0.309D+00 0.749D+00
 Gap=     0.104 Goal=   None    Shift=    0.000
 RMSDP=1.23D-08 MaxDP=3.72D-07 DE= 2.13D-14 OVMax= 1.55D-07

 Cycle  15  Pass 1  IDiag  1:
 E= -38.9325357321584     Delta-E=       -0.000000000000 Rises=F Damp=F
 DIIS: error= 7.56D-09 at cycle  15 NSaved=  15.
 NSaved=15 IEnMin=15 EnMin= -38.9325357321584     IErMin=14 ErrMin= 7.45D-09
 ErrMax= 7.56D-09  0.00D+00 EMaxC= 1.00D-01 BMatC= 1.08D-15 BMatP= 1.37D-15
 IDIUse=1 WtCom= 1.00D+00 WtEn= 0.00D+00
 Coeff-Com: -0.843D-07 0.514D-06 0.174D-05-0.112D-05-0.110D-04-0.186D-04
 Coeff-Com: -0.524D-05 0.670D-04 0.576D-03 0.122D-02-0.307D-02-0.293D-01
 Coeff-Com:  0.872D-02 0.506D+00 0.516D+00
 Coeff:     -0.843D-07 0.514D-06 0.174D-05-0.112D-05-0.110D-04-0.186D-04
 Coeff:     -0.524D-05 0.670D-04 0.576D-03 0.122D-02-0.307D-02-0.293D-01
 Coeff:      0.872D-02 0.506D+00 0.516D+00
 Gap=     0.104 Goal=   None    Shift=    0.000
 RMSDP=6.55D-09 MaxDP=1.98D-07 DE=-7.11D-14 OVMax= 8.21D-08

 SCF Done:  E(ROHF) =  -38.9325357322     A.U. after   15 cycles
            NFock= 15  Conv=0.65D-08     -V/T= 2.0010
 <Sx>= 0.0000 <Sy>= 0.0000 <Sz>= 1.0000 <S**2>= 2.0000 S= 1.0000
 <L.S>= 0.000000000000E+00
 KE= 3.889323856315D+01 PE=-1.028187905457D+02 EE= 1.882410095161D+01
 Annihilation of the first spin contaminant:
 S**2 before annihilation     2.0000,   after     2.0000
 Leave Link  502 at Fri Oct  2 21:27:24 2020, MaxMem=   327680000 cpu:               9.0 elap:               1.3
 (Enter /applis/site/cecic/gaussian16/B.01/nehalem/g16/l801.exe)
 Windowed orbitals will be sorted by symmetry type.
 An orbital has undefined symmetry, so N**3 symmetry is turned off.
 GenMOA:  NOpAll=  2 NOp2=2 NOpUse=  2 JSym2X=1
 FoFJK:  IHMeth= 1 ICntrl=       0 DoSepK=F KAlg= 0 I1Cent=           0 FoldK=F
 IRaf=         0 NMat=       1 IRICut=       1 DoRegI=T DoRafI=F ISym2E= 1 IDoP0=0 IntGTp=1.
 FoFCou: FMM=F IPFlag=           0 FMFlag=      100000 FMFlg1=           0
         NFxFlg=           0 DoJE=F BraDBF=F KetDBF=F FulRan=T
         wScrn=  0.000000 ICntrl=         0 IOpCl=  1 I1Cent=           0 NGrid=           0
         NMat0=    1 NMatS0=      1 NMatT0=    0 NMatD0=    1 NMtDS0=    0 NMtDT0=    0
 Petite list used in FoFCou.
 <Sx>= 0.0000 <Sy>= 0.0000 <Sz>= 1.0000 <S**2>= 2.0000 S= 1.0000
 ExpMin= 2.53D-02 ExpMax= 8.24D+03 ExpMxC= 2.81D+02 IAcc=3 IRadAn=         5 AccDes= 0.00D+00
 HarFok:  IExCor=  205 AccDes= 0.00D+00 IRadAn=         5 IDoV=-2 UseB2=F ITyADJ=14
 ICtDFT= 12500011 ScaDFX=  1.000000  1.000000  1.000000  1.000000
 Largest valence mixing into a core orbital is  1.81D-04
 Largest core mixing into a valence orbital is  2.11D-05
 Largest valence mixing into a core orbital is  2.28D-04
 Largest core mixing into a valence orbital is  5.22D-05
 Range of M.O.s used for correlation:     2    92
 NBasis=    92 NAE=     5 NBE=     3 NFC=     1 NFV=     0
 NROrb=     91 NOA=     4 NOB=     2 NVA=    87 NVB=    89

 **** Warning!!: The largest alpha MO coefficient is  0.30659239D+02


 **** Warning!!: The largest beta MO coefficient is  0.23189925D+02

 Singles contribution to E2=   -0.2984741437D-02
 Leave Link  801 at Fri Oct  2 21:27:25 2020, MaxMem=   327680000 cpu:               3.4 elap:               0.5
 (Enter /applis/site/cecic/gaussian16/B.01/nehalem/g16/l804.exe)
 Open-shell transformation, MDV=   327680000 ITran=4 ISComp=1.
 Unit  1 TFree=        253547 TCopy=        387189.
 Semi-Direct transformation.
 ModeAB=           2 MOrb=             4 LenV=     327256015
 LASXX=      1447527 LTotXX=     1447527 LenRXX=     1447527
 LTotAB=     1498588 MaxLAS=     2025660 LenRXY=     2025660
 NonZer=     2895054 LenScr=     5046272 LnRSAI=           0
 LnScr1=           0 LExtra=           0 Total=      8519459
 MaxDsk=          -1 SrtSym=           F ITran=            4
 DoSDTr:  NPSUse=  8
 JobTyp=1 Pass  1:  I=   1 to   4.
 (rs|ai) integrals will be sorted in core.
 Complete sort for first half transformation.
 First half transformation complete.
 Complete sort for second half transformation.
 Second half transformation complete.
 ModeAB=           2 MOrb=             2 LenV=     327256015
 LASXX=       732827 LTotXX=      732827 LenRXX=     1012830
 LTotAB=      692868 MaxLAS=     1012830 LenRXY=      692868
 NonZer=     1465654 LenScr=     2883584 LnRSAI=           0
 LnScr1=           0 LExtra=           0 Total=      4589282
 MaxDsk=          -1 SrtSym=           F ITran=            4
 DoSDTr:  NPSUse=  8
 JobTyp=2 Pass  1:  I=   1 to   2.
 (rs|ai) integrals will be sorted in core.
 Complete sort for first half transformation.
 First half transformation complete.
 Complete sort for second half transformation.
 Second half transformation complete.
 SymMOI:  orbitals are not symmetric.
 Spin components of T(2) and E(2):
     alpha-alpha T2 =       0.8427843461D-02 E2=     -0.2445513656D-01
     alpha-beta  T2 =       0.2902402037D-01 E2=     -0.9523757107D-01
     beta-beta   T2 =       0.7579730920D-03 E2=     -0.2287088014D-02
 ANorm=    0.1019938426D+01
 E2 =    -0.1249645371D+00 EUMP2 =    -0.39057500269245D+02
 (S**2,0)=  0.20000D+01           (S**2,1)=  0.20000D+01
 E(PUHF)=      -0.38932535732D+02        E(PMP2)=      -0.39057500269D+02
 Leave Link  804 at Fri Oct  2 21:27:26 2020, MaxMem=   327680000 cpu:              10.9 elap:               1.5
 (Enter /applis/site/cecic/gaussian16/B.01/nehalem/g16/l913.exe)
 CIDS:  MDV=   327680000.
 Frozen-core window:  NFC=   1 NFV=   0.
 IFCWin=0 IBDFC=1 NFBD=     0     0 NFCmp=     0     0 NFFFC=     0     0
 Using original routines for 1st iteration.
 Using DD4UQ or CC4UQ for 2nd and later iterations.
 Keep R2 and R3 ints in memory in symmetry-blocked form, NReq=13980640.
 FoFCou: FMM=F IPFlag=           0 FMFlag=           0 FMFlg1=           0
         NFxFlg=           0 DoJE=F BraDBF=F KetDBF=F FulRan=T
         wScrn=  0.000000 ICntrl=       600 IOpCl=  0 I1Cent=           0 NGrid=           0
         NMat0=    1 NMatS0=   4278 NMatT0=    0 NMatD0=    1 NMtDS0=    0 NMtDT0=    0
 Petite list used in FoFCou.
 CIDS: In Core Option IDoMem=           1.
 CCSD(T)
 =======
 Iterations=  50 Convergence= 0.100D-06
 Produce multiple copies of IABC intergrals
 Iteration Nr.   1
 **********************
 DD1Dir will call FoFMem   1 times, MxPair=        24
 NAB=     8 NAA=     6 NBB=     1.
 DD1Dir will call FoFMem   1 times, MxPair=        24
 NAB=     8 NAA=     6 NBB=     1.
 MP4(R+Q)=  0.18857934D-01
 Maximum subspace dimension=  5
 A-vector RMS=  2.3096712D-04 Max=  7.7653502D-04 conv= 1.00D-05.
 RLE energy=       -0.1225787899
 E3=       -0.16428807D-01        EROMP3=      -0.39073929076D+02
 E4(SDQ)=  -0.18986414D-02        ROMP4(SDQ)=  -0.39075827718D+02
 VARIATIONAL ENERGIES WITH THE FIRST-ORDER WAVEFUNCTION:
 DE(Corr)= -0.12252935     E(Corr)=     -39.055065082    
 NORM(A)=   0.10189947D+01
 Iteration Nr.   2
 **********************
 DD1Dir will call FoFMem   1 times, MxPair=        24
 NAB=     8 NAA=     6 NBB=     1.
 A-vector RMS=  2.0298424D-03 Max=  6.9579734D-03 conv= 1.00D-05.
 RLE energy=       -0.1249480473
 DE(Corr)= -0.13863982     E(CORR)=     -39.071175549     Delta=-1.61D-02
 NORM(A)=   0.10198830D+01
 Iteration Nr.   3
 **********************
 DD1Dir will call FoFMem   1 times, MxPair=        24
 NAB=     8 NAA=     6 NBB=     1.
 A-vector RMS=  1.8566480D-03 Max=  6.5054631D-03 conv= 1.00D-05.
 RLE energy=       -0.1342498632
 DE(Corr)= -0.13915945     E(CORR)=     -39.071695184     Delta=-5.20D-04
 NORM(A)=   0.10240184D+01
 Iteration Nr.   4
 **********************
 DD1Dir will call FoFMem   1 times, MxPair=        24
 NAB=     8 NAA=     6 NBB=     1.
 A-vector RMS=  1.0566515D-03 Max=  4.1042506D-03 conv= 1.00D-05.
 RLE energy=       -0.1459746127
 DE(Corr)= -0.14138635     E(CORR)=     -39.073922077     Delta=-2.23D-03
 NORM(A)=   0.10307942D+01
 Iteration Nr.   5
 **********************
 DD1Dir will call FoFMem   1 times, MxPair=        24
 NAB=     8 NAA=     6 NBB=     1.
 A-vector RMS=  1.9100354D-04 Max=  5.9920397D-04 conv= 1.00D-05.
 RLE energy=       -0.1458624367
 DE(Corr)= -0.14431483     E(CORR)=     -39.076850559     Delta=-2.93D-03
 NORM(A)=   0.10308491D+01
 Iteration Nr.   6
 **********************
 DD1Dir will call FoFMem   1 times, MxPair=        24
 NAB=     8 NAA=     6 NBB=     1.
 A-vector RMS=  1.9612414D-04 Max=  4.9690024D-04 conv= 1.00D-05.
 RLE energy=       -0.1438116299
 DE(Corr)= -0.14430792     E(CORR)=     -39.076843651     Delta= 6.91D-06
 NORM(A)=   0.10296004D+01
 Iteration Nr.   7
 **********************
 DD1Dir will call FoFMem   1 times, MxPair=        24
 NAB=     8 NAA=     6 NBB=     1.
 A-vector RMS=  9.1034350D-06 Max=  4.5807962D-05 conv= 1.00D-05.
 RLE energy=       -0.1438327598
 DE(Corr)= -0.14382226     E(CORR)=     -39.076357991     Delta= 4.86D-04
 NORM(A)=   0.10296183D+01
 Iteration Nr.   8
 **********************
 DD1Dir will call FoFMem   1 times, MxPair=        24
 NAB=     8 NAA=     6 NBB=     1.
 A-vector RMS=  4.0692812D-06 Max=  1.4120132D-05 conv= 1.00D-05.
 RLE energy=       -0.1438273174
 DE(Corr)= -0.14382809     E(CORR)=     -39.076363823     Delta=-5.83D-06
 NORM(A)=   0.10296140D+01
 Iteration Nr.   9
 **********************
 DD1Dir will call FoFMem   1 times, MxPair=        24
 NAB=     8 NAA=     6 NBB=     1.
 A-vector RMS=  1.3413701D-06 Max=  5.7312005D-06 conv= 1.00D-05.
 RLE energy=       -0.1438267049
 DE(Corr)= -0.14382677     E(CORR)=     -39.076362507     Delta= 1.32D-06
 NORM(A)=   0.10296135D+01
 Iteration Nr.  10
 **********************
 DD1Dir will call FoFMem   1 times, MxPair=        24
 NAB=     8 NAA=     6 NBB=     1.
 A-vector RMS=  5.6799795D-07 Max=  2.8273724D-06 conv= 1.00D-05.
 RLE energy=       -0.1438266435
 DE(Corr)= -0.14382667     E(CORR)=     -39.076362400     Delta= 1.07D-07
 NORM(A)=   0.10296133D+01
 Iteration Nr.  11
 **********************
 DD1Dir will call FoFMem   1 times, MxPair=        24
 NAB=     8 NAA=     6 NBB=     1.
 A-vector RMS=  1.6626910D-07 Max=  6.0685913D-07 conv= 1.00D-05.
 RLE energy=       -0.1438266864
 DE(Corr)= -0.14382662     E(CORR)=     -39.076362357     Delta= 4.34D-08
 NORM(A)=   0.10296134D+01
 CI/CC converged in   11 iterations to DelEn= 4.34D-08 Conv= 1.00D-07 ErrA1= 1.66D-07 Conv= 1.00D-05
 Wavefunction amplitudes converged. E(Corr)=     -39.076362357    
 Largest amplitude= 2.19D-02
 Time for triples=       54.89 seconds.
 T4(CCSD)= -0.37127651D-02
 T5(CCSD)=  0.29392715D-04
 CCSD(T)= -0.39080045729D+02
 Discarding MO integrals.
 Leave Link  913 at Fri Oct  2 21:27:44 2020, MaxMem=   327680000 cpu:             131.7 elap:              17.6
 (Enter /applis/site/cecic/gaussian16/B.01/nehalem/g16/l601.exe)
 Copying SCF densities to generalized density rwf, IOpCl= 0 IROHF=1.

 **********************************************************************

            Population analysis using the SCF Density.

 **********************************************************************

 Orbital symmetries:
       Occupied  (A') (A') (A') (A') (A")
       Virtual   (A') (A') (A') (A") (A') (A') (A') (A') (A") (A')
                 (A") (A') (A') (A") (A') (A') (A') (A") (A') (A')
                 (A") (A') (A') (A') (A") (A") (A') (A') (A') (A")
                 (A') (A') (A") (A') (A') (A") (A") (A') (A") (A')
                 (A') (A") (A') (A') (A') (A") (A') (A") (A') (A')
                 (A") (A') (A') (A') (A") (A') (A') (A") (A") (A')
                 (A') (A") (A') (A") (A') (A") (A') (A') (A') (A')
                 (A") (A') (A") (A') (A') (A") (A") (A') (A') (A")
                 (A') (A") (A') (A') (A') (A') (A')
 The electronic state is 3-A".
 Alpha  occ. eigenvalues --  -11.26692  -0.94299  -0.62765  -0.44786  -0.40193
 Alpha virt. eigenvalues --    0.03056   0.04504   0.08893   0.09430   0.13731
 Alpha virt. eigenvalues --    0.14021   0.19981   0.22696   0.25844   0.28430
 Alpha virt. eigenvalues --    0.28862   0.33494   0.33505   0.34170   0.37198
 Alpha virt. eigenvalues --    0.39591   0.40981   0.41729   0.43406   0.53937
 Alpha virt. eigenvalues --    0.57927   0.69877   0.73826   0.79638   0.84408
 Alpha virt. eigenvalues --    0.87806   0.88330   0.91602   0.94291   0.95764
 Alpha virt. eigenvalues --    0.97833   0.99221   1.01753   1.03013   1.07178
 Alpha virt. eigenvalues --    1.07380   1.09571   1.09850   1.25394   1.25728
 Alpha virt. eigenvalues --    1.36923   1.38791   1.44326   1.44810   1.53890
 Alpha virt. eigenvalues --    1.55124   1.63043   1.63648   1.92518   1.93097
 Alpha virt. eigenvalues --    2.05523   2.09435   2.25978   2.85250   2.86648
 Alpha virt. eigenvalues --    2.95419   2.97051   3.20377   3.34619   3.40006
 Alpha virt. eigenvalues --    3.42319   3.42809   3.42989   3.50879   3.56040
 Alpha virt. eigenvalues --    3.56684   3.61284   3.76456   3.83867   4.02052
 Alpha virt. eigenvalues --    4.20702   4.22762   4.24514   4.24592   4.62733
 Alpha virt. eigenvalues --    4.65165   4.71832   4.92216   4.92714   5.23891
 Alpha virt. eigenvalues --    5.28075   5.31818   5.68633   5.90896   6.08320
 Alpha virt. eigenvalues --    6.34964  14.91064
          Condensed to atoms (all electrons):
               1          2          3
     1  C    6.307813   0.298461   0.298442
     2  H    0.298461   0.235688   0.013515
     3  H    0.298442   0.013515   0.235663
          Atomic-Atomic Spin Densities.
               1          2          3
     1  C    1.892453   0.010512   0.010517
     2  H    0.010512   0.029061   0.003686
     3  H    0.010517   0.003686   0.029055
 Mulliken charges and spin densities:
               1          2
     1  C   -0.904716   1.913482
     2  H    0.452336   0.043259
     3  H    0.452380   0.043258
 Sum of Mulliken charges =  -0.00000   2.00000
 Mulliken charges and spin densities with hydrogens summed into heavy atoms:
               1          2
     1  C   -0.000000   2.000000
 Electronic spatial extent (au):  <R**2>=             24.1792
 Charge=             -0.0000 electrons
 Dipole moment (field-independent basis, Debye):
    X=             -0.0000    Y=             -0.5768    Z=             -0.0000  Tot=              0.5768
 Quadrupole moment (field-independent basis, Debye-Ang):
   XX=             -5.8673   YY=             -7.7057   ZZ=             -8.2502
   XY=             -0.0001   XZ=              0.0000   YZ=              0.0000
 Traceless Quadrupole moment (field-independent basis, Debye-Ang):
   XX=              1.4071   YY=             -0.4313   ZZ=             -0.9758
   XY=             -0.0001   XZ=              0.0000   YZ=              0.0000
 Octapole moment (field-independent basis, Debye-Ang**2):
  XXX=             -0.0001  YYY=             -0.9652  ZZZ=             -0.0000  XYY=              0.0000
  XXY=             -0.9248  XXZ=             -0.0000  XZZ=             -0.0001  YZZ=             -0.3475
  YYZ=             -0.0000  XYZ=             -0.0000
 Hexadecapole moment (field-independent basis, Debye-Ang**3):
 XXXX=            -13.1945 YYYY=            -10.5519 ZZZZ=            -10.4170 XXXY=              0.0001
 XXXZ=              0.0000 YYYX=              0.0002 YYYZ=             -0.0000 ZZZX=             -0.0000
 ZZZY=             -0.0000 XXYY=             -4.1397 XXZZ=             -4.5361 YYZZ=             -3.5138
 XXYZ=              0.0000 YYXZ=             -0.0000 ZZXY=              0.0001
 N-N= 6.168915298830D+00 E-N=-1.028187905514D+02  KE= 3.889323856315D+01
                          Isotropic Fermi Contact Couplings
        Atom                 a.u.       MegaHertz       Gauss      10(-4) cm-1
     1  C(13)              0.39512     222.09353      79.24849      74.08243
     2  H(1)               0.01258      28.11973      10.03382       9.37973
     3  H(1)               0.01258      28.12001      10.03392       9.37982
 --------------------------------------------------------
       Center         ----  Spin Dipole Couplings  ----
                      3XX-RR        3YY-RR        3ZZ-RR
 --------------------------------------------------------
     1   Atom       -1.078160      0.393414      0.684746
     2   Atom        0.094607     -0.042468     -0.052139
     3   Atom        0.094624     -0.042484     -0.052140
 --------------------------------------------------------
                        XY            XZ            YZ
 --------------------------------------------------------
     1   Atom        0.000073      0.000000      0.000000
     2   Atom       -0.079507      0.000000     -0.000000
     3   Atom        0.079499      0.000000      0.000000
 --------------------------------------------------------


 ---------------------------------------------------------------------------------
              Anisotropic Spin Dipole Couplings in Principal Axis System
 ---------------------------------------------------------------------------------

       Atom             a.u.   MegaHertz   Gauss  10(-4) cm-1        Axes

              Baa    -1.0782  -144.679   -51.625   -48.260  1.0000 -0.0000 -0.0000
     1 C(13)  Bbb     0.3934    52.792    18.838    17.610  0.0000  1.0000 -0.0000
              Bcc     0.6847    91.886    32.787    30.650  0.0000  0.0000  1.0000
 
              Baa    -0.0789   -42.098   -15.021   -14.042  0.4166  0.9091  0.0000
     2 H(1)   Bbb    -0.0521   -27.819    -9.926    -9.279  0.0000  0.0000  1.0000
              Bcc     0.1310    69.916    24.948    23.322  0.9091 -0.4166  0.0000
 
              Baa    -0.0789   -42.100   -15.022   -14.043 -0.4165  0.9091  0.0000
     3 H(1)   Bbb    -0.0521   -27.819    -9.927    -9.280  0.0000  0.0000  1.0000
              Bcc     0.1310    69.919    24.949    23.323  0.9091  0.4165 -0.0000
 

 ---------------------------------------------------------------------------------

 No NMR shielding tensors so no spin-rotation constants.
 Leave Link  601 at Fri Oct  2 21:27:44 2020, MaxMem=   327680000 cpu:               2.1 elap:               0.3
 (Enter /applis/site/cecic/gaussian16/B.01/nehalem/g16/l9999.exe)
 1\1\GINC-DAHU78\SP\ROCCSD(T)-FC\Aug-CC-pVTZ\C1H2(3)\TINACCIL\02-Oct-20
 20\0\\#P ROCCSD(T)/aug-cc-pvtz geom=allcheck guess=read\\Title\\0,3\C,
 0,0.1204150527,0.,0.0851325945\H,0,-0.1093157073,0.,1.136288576\H,0,1.
 0348608833,0.,-0.4817988874\\Version=ES64L-G16RevB.01\State=3-A"\HF=-3
 8.9325357\MP2=-39.0575003\MP3=-39.0739291\PUHF=-38.9325357\PMP2-0=-39.
 0575003\MP4SDQ=-39.0758277\CCSD=-39.0763624\CCSD(T)=-39.0800457\RMSD=6
 .548e-09\PG=CS [SG(C1H2)]\\@


  DISAPPOINTMENT IS THE NURSE OF WISDOM.               
                              SIR BOYLE ROCHE                 
 Job cpu time:       0 days  0 hours  2 minutes 46.2 seconds.
 Elapsed time:       0 days  0 hours  0 minutes 22.7 seconds.
 File lengths (MBytes):  RWF=    244 Int=      0 D2E=      0 Chk=      2 Scr=      1
 Normal termination of Gaussian 16 at Fri Oct  2 21:27:44 2020.
