$hessian                                                                        
        0.2305080842   0.0008564622  -0.0000008061  -0.1159240012  -0.1721392932
        0.0000007051  -0.1145840830   0.1712828310   0.0000001010
        0.0008564622   0.6821651630  -0.0000011936  -0.1793840460  -0.3404073582
        0.0000012203   0.1785275838  -0.3417578048  -0.0000000267
       -0.0000008061  -0.0000011936   0.0000000000   0.0000007177   0.0000011950
       -0.0000000000   0.0000000884  -0.0000000014  -0.0000000000
       -0.1159240012  -0.1793840460   0.0000007177   0.4717302898   0.1750016233
       -0.0000019521  -0.3558062887   0.0043824227   0.0000012344
       -0.1721392932  -0.3404073582   0.0000011950   0.1750016233   0.2977816688
       -0.0000011306  -0.0028623301   0.0426256894  -0.0000000644
        0.0000007051   0.0000012203  -0.0000000000  -0.0000019521  -0.0000011306
        0.0000000000   0.0000012470  -0.0000000897  -0.0000000000
       -0.1145840830   0.1785275838   0.0000000884  -0.3558062887  -0.0028623301
        0.0000012470   0.4703903717  -0.1756652537  -0.0000013354
        0.1712828310  -0.3417578048  -0.0000000014   0.0043824227   0.0426256894
       -0.0000000897  -0.1756652537   0.2991321155   0.0000000911
        0.0000001010  -0.0000000267  -0.0000000000   0.0000012344  -0.0000000644
       -0.0000000000  -0.0000013354   0.0000000911   0.0000000000
