      -----------------------------------------------------------      
     |                   =====================                   |     
     |                           x T B                           |     
     |                   =====================                   |     
     |                         S. Grimme                         |     
     |          Mulliken Center for Theoretical Chemistry        |     
     |                    University of Bonn                     |     
      -----------------------------------------------------------      

   * xtb version 6.2.2 (9d81278992624c895f80dd42a50cac0aa55982e2) compiled by '@Darwin' on 04/03/2020

   xtb is free software: you can redistribute it and/or modify it under
   the terms of the GNU Lesser General Public License as published by
   the Free Software Foundation, either version 3 of the License, or
   (at your option) any later version.
   
   xtb is distributed in the hope that it will be useful,
   but WITHOUT ANY WARRANTY; without even the implied warranty of
   MERCHANTABILITY or FITNESS FOR A PARTICULAR PURPOSE.  See the
   GNU Lesser General Public License for more details.
   
   Cite this work as:
   * S. Grimme, C. Bannwarth, P. Shushkov, J. Chem. Theory Comput., 2017,
     13, 1989-2009. DOI: 10.1021/acs.jctc.7b00118
   * C. Bannwarth, S. Ehlert and S. Grimme., J. Chem. Theory Comput., 2019,
     15, 1652-1671. DOI: 10.1021/acs.jctc.8b01176
   * P. Pracht, E. Caldeweyher, S. Ehlert, S. Grimme, ChemRxiv, 2019, preprint.
     DOI: 10.26434/chemrxiv.8326202.v1
   
   for DFT-D4:
   * E. Caldeweyher, C. Bannwarth and S. Grimme, J. Chem. Phys., 2017,
     147, 034112. DOI: 10.1063/1.4993215
   * E. Caldeweyher, S. Ehlert, A. Hansen, H. Neugebauer, S. Spicher,
     C. Bannwarth and S. Grimme, J. Chem. Phys., 2019, 150, 154122.
     DOI: 10.1063/1.5090222
   
   for sTDA-xTB:
   * S. Grimme and C. Bannwarth, J. Chem. Phys., 2016, 145, 054103.
     DOI: 10.1063/1.4959605
   
   in the mass-spec context:
   * V. Asgeirsson, C. Bauer and S. Grimme, Chem. Sci., 2017, 8, 4879.
     DOI: 10.1039/c7sc00601b
   
   for metadynamics refer to:
   * S. Grimme, J. Chem. Theory Comput., 2019, 155, 2847-2862
     DOI: 10.1021/acs.jctc.9b00143
   
   with help from (in alphabetical order)
   C. Bannwarth, F. Bohle, G. Brandenburg, E. Caldeweyher, M. Checinski,
   S. Dohm, S. Ehlert, S. Ehrlich, F. März, H. Neugebauer, J. Pisarek,
   P. Pracht, P. Shushkov, and S. Spicher.
   
 * started run on 2020/05/12 at 11:43:50.708     

           -------------------------------------------------
          |                Calculation Setup                |
           -------------------------------------------------

          program call               : xtb --input C2O1_1_S_0.input C2O1_1_S_0.xyz --ohess --molden --namespace C2O1_1_S_0 output.out
          calculation namespace      : C2O1_1_S_0
          coordinate file            : C2O1_1_S_0.xyz
          number of atoms            :                     3
          number of electrons        :                    14
          charge                     :                     0
          spin                       :                   0.0
          first test random number   :      0.51193321708020

   ID    Z sym.   atoms
    1    8 O      1
    2    6 C      2, 3

           -------------------------------------------------
          |                 G F N 2 - x T B                 |
           -------------------------------------------------

        Reference                      10.1021/acs.jctc.8b01176
      * Hamiltonian:
        H0-scaling (s, p, d)           1.850000    2.230000    2.230000
        zeta-weighting                 0.500000
      * Dispersion:
        s8                             2.700000
        a1                             0.520000
        a2                             5.000000
        s9                             5.000000
      * Repulsion:
        kExp                           1.500000    1.000000
        rExp                           1.000000
      * Coulomb:
        alpha                          2.000000
        third order                    shell-resolved
        anisotropic                    true
        a3                             3.000000
        a5                             4.000000
        cn-shift                       1.200000
        cn-exp                         4.000000
        max-rad                        5.000000


          ...................................................
          :                      SETUP                      :
          :.................................................:
          :  # basis functions                  12          :
          :  # atomic orbitals                  12          :
          :  # shells                            6          :
          :  # electrons                        14          :
          :  max. iterations                   250          :
          :  Hamiltonian                  GFN2-xTB          :
          :  restarted?                      false          :
          :  GBSA solvation                  false          :
          :  PC potential                    false          :
          :  electronic temp.          300.0000000     K    :
          :  accuracy                    1.0000000          :
          :  -> integral cutoff          0.2500000E+02      :
          :  -> integral neglect         0.1000000E-07      :
          :  -> SCF convergence          0.1000000E-05 Eh   :
          :  -> wf. convergence          0.1000000E-03 e    :
          :  Broyden damping             0.4000000          :
          ...................................................

 iter      E             dE          RMSdq      gap      omega  full diag
   1     -7.9768774 -0.797688E+01  0.121E+01    0.09       0.0  T
   2     -7.9802493 -0.337191E-02  0.598E+00    0.02       1.0  T
   3     -7.9809496 -0.700214E-03  0.320E+00    0.04       1.0  T
   4     -7.9803228  0.626794E-03  0.253E+00    0.00       1.0  T
   5     -7.9814897 -0.116695E-02  0.144E+00    0.01       1.0  T
   6     -7.9817077 -0.217940E-03  0.389E-01    0.03       1.0  T
   7     -7.9813204  0.387229E-03  0.421E-01    0.03       1.0  T
   8     -7.9822029 -0.882459E-03  0.203E-01    0.03       1.0  T
   9     -7.9822002  0.263236E-05  0.188E-01    0.03       1.0  T
  10     -7.9822085 -0.828643E-05  0.891E-02    0.03       1.0  T
  11     -7.9822110 -0.250025E-05  0.512E-03    0.03      11.3  T
  12     -7.9822110 -0.312555E-08  0.264E-03    0.03      21.9  T
  13     -7.9822110 -0.252087E-08  0.138E-04    0.03     418.0  T
  14     -7.9822110 -0.173372E-11  0.131E-04    0.03     442.4  T

   *** convergence criteria satisfied after 14 iterations ***

         #    Occupation            Energy/Eh            Energy/eV
      -------------------------------------------------------------
         1        2.0000           -0.8083556             -21.9965
         2        2.0000           -0.7322263             -19.9249
         3        2.0000           -0.6734856             -18.3265
         4        2.0000           -0.6253415             -17.0164
         5        2.0000           -0.5439326             -14.8012
         6        2.0000           -0.5392661             -14.6742
         7        1.2864           -0.4217884             -11.4774 (HOMO)
         8        0.7136           -0.4206688             -11.4470 (LUMO)
         9                         -0.3797629             -10.3339
        10                         -0.3578380              -9.7373
        11                          0.0021683               0.0590
        12                          0.0641413               1.7454
      -------------------------------------------------------------
                  HL-Gap            0.0011196 Eh            0.0305 eV
             Fermi-level           -0.4212286 Eh          -11.4622 eV

 SCC (total)                   0 d,  0 h,  0 min,  0.002 sec
 SCC setup                      ...        0 min,  0.000 sec (  3.023%)
 Dispersion                     ...        0 min,  0.000 sec (  0.458%)
 integral evaluation            ...        0 min,  0.001 sec ( 35.429%)
 zeroth order Hamiltonian       ...        0 min,  0.000 sec (  0.458%)
 iterations                     ...        0 min,  0.001 sec ( 32.045%)
 molecular gradient             ...        0 min,  0.001 sec ( 26.097%)
 printout                       ...        0 min,  0.000 sec (  2.008%)

         :::::::::::::::::::::::::::::::::::::::::::::::::::::
         ::                     SUMMARY                     ::
         :::::::::::::::::::::::::::::::::::::::::::::::::::::
         :: total energy              -7.965609555814 Eh    ::
         :: gradient norm              0.149892883264 Eh/a0 ::
         :: HOMO-LUMO gap              0.030464896943 eV    ::
         ::.................................................::
         :: SCC energy                -7.982211039558 Eh    ::
         :: -> isotropic ES           -0.024113155891 Eh    ::
         :: -> anisotropic ES          0.002263541421 Eh    ::
         :: -> anisotropic XC          0.000403921307 Eh    ::
         :: -> dispersion             -0.000876245419 Eh    ::
         :: repulsion energy           0.016601482780 Eh    ::
         :: add. restraining           0.000000000000 Eh    ::
         :::::::::::::::::::::::::::::::::::::::::::::::::::::

      ----------------------------------------------------------- 
     |                   =====================                   |
     |                        A N C O P T                        |
     |                   =====================                   |
     |               Approximate Normal Coordinate               |
     |                Rational Function Optimizer                |
      ----------------------------------------------------------- 

          ...................................................
          :                      SETUP                      :
          :.................................................:
          :   optimization level            normal          :
          :   max. optcycles                   200          :
          :   ANC micro-cycles                  20          :
          :   degrees of freedom                 3          :
          :.................................................:
          :   RF solver                   davidson          :
          :   write xtbopt.log                true          :
          :   linear?                        false          :
          :   energy convergence         0.5000000E-05 Eh   :
          :   grad. convergence          0.1000000E-02 Eh/α :
          :   maximium RF displ.         1.0000000          :
          :   Hlow (freq-cutoff)         0.1000000E-01      :
          :   Hmax (freq-cutoff)         5.0000000          :
          :   S6 in model hess.         20.0000000          :
          ...................................................

generating ANC from model Hessian ...
Using Lindh-Hessian (1995)
 Shifting diagonal of input Hessian by    0.0000000000000000     
 Lowest  eigenvalues of input Hessian
   -0.000000   -0.000000   -0.000000    0.000000    0.000000    0.000000
    0.176131    1.075026    1.298090
 Highest eigenvalues
    0.000000    0.000000    0.000000    0.176131    1.075026    1.298090


........................................................................
.............................. CYCLE    1 ..............................
........................................................................
   1     -7.9822110 -0.798221E+01  0.141E-05    0.03       0.0  T
   2     -7.9822110 -0.186517E-13  0.177E-05    0.03    3257.0  T
   3     -7.9822110 -0.346390E-13  0.251E-06    0.03   22981.7  T
     SCC iter.                  ...        0 min,  0.000 sec
     gradient                   ...        0 min,  0.000 sec
 * total energy  :    -7.9656096 Eh     change        0.1548415E-09 Eh
   gradient norm :     0.1498939 Eh/α   predicted     0.0000000E+00 (-100.00%)
   displ. norm   :     0.2975275 α      lambda       -0.3261660E-01
   maximum displ.:     0.2698050 α      in ANC's #1, #2, #3, ...

........................................................................
.............................. CYCLE    2 ..............................
........................................................................
   1     -8.0321906 -0.803219E+01  0.586E+00    0.53       0.0  T
   2     -8.0325743 -0.383670E-03  0.358E+00    0.51       1.0  T
   3     -8.0325620  0.122261E-04  0.188E-01    0.43       1.0  T
   4     -8.0326207 -0.586248E-04  0.581E-02    0.44       1.0  T
   5     -8.0326207 -0.686752E-07  0.626E-03    0.45       9.2  T
   6     -8.0326202  0.531579E-06  0.122E-02    0.45       4.7  T
   7     -8.0326208 -0.593208E-06  0.254E-03    0.45      22.8  T
   8     -8.0326208 -0.455019E-08  0.186E-04    0.45     310.3  T
   9     -8.0326208 -0.139089E-11  0.225E-05    0.45    2571.3  T
     SCC iter.                  ...        0 min,  0.000 sec
     gradient                   ...        0 min,  0.001 sec
 * total energy  :    -8.0038058 Eh     change       -0.3819624E-01 Eh
   gradient norm :     0.1375981 Eh/α   predicted    -0.1775196E-01 ( -53.52%)
   displ. norm   :     0.5408658 α      lambda       -0.7353612E-01
   maximum displ.:     0.5403519 α      in ANC's #1, #2, #3, ...

........................................................................
.............................. CYCLE    3 ..............................
........................................................................
   1     -8.1015466 -0.810155E+01  0.458E+00    2.52       0.0  T
   2     -8.1015828 -0.361657E-04  0.273E+00    2.50       1.0  T
   3     -8.1015933 -0.104704E-04  0.772E-02    2.48       1.0  T
   4     -8.1015995 -0.627595E-05  0.421E-02    2.48       1.4  T
   5     -8.1015998 -0.267636E-06  0.650E-03    2.48       8.9  T
   6     -8.1015998 -0.108788E-07  0.346E-03    2.48      16.7  T
   7     -8.1015998 -0.229424E-08  0.208E-04    2.48     277.2  T
   8     -8.1015998 -0.877041E-10  0.121E-04    2.48     475.7  T
     SCC iter.                  ...        0 min,  0.000 sec
     gradient                   ...        0 min,  0.000 sec
 * total energy  :    -8.0702892 Eh     change       -0.6648339E-01 Eh
   gradient norm :     0.1269417 Eh/α   predicted    -0.4752405E-01 ( -28.52%)
   displ. norm   :     0.6657639 α      lambda       -0.6898922E-01
   maximum displ.:     0.6453926 α      in ANC's #1, #2, #3, ...

........................................................................
.............................. CYCLE    4 ..............................
........................................................................
   1     -8.0996856 -0.809969E+01  0.130E+01    0.10       0.0  T
   2     -8.0022094  0.974761E-01  0.928E+00    0.89       1.0  T
   3     -8.0777047 -0.754953E-01  0.104E+01    0.33       1.0  T
   4     -8.1191441 -0.414393E-01  0.471E+00    0.13       1.0  T
   5     -8.1432433 -0.240993E-01  0.464E+00    0.05       1.0  T
   6     -8.1449101 -0.166674E-02  0.209E+00    0.04       1.0  T
   7     -8.1526400 -0.772990E-02  0.489E-01    0.01       1.0  T
   8     -8.1522375  0.402448E-03  0.129E+00    0.01       1.0  T
   9     -8.1527983 -0.560777E-03  0.720E-01    0.00       1.0  T
  10     -8.1530605 -0.262240E-03  0.165E-01    0.00       1.0  T
  11     -8.1530714 -0.108376E-04  0.539E-02    0.00       1.1  T
  12     -8.1530722 -0.834928E-06  0.281E-02    0.00       2.1  T
  13     -8.1530724 -0.217777E-06  0.170E-02    0.00       3.4  T
  14     -8.1530726 -0.134076E-06  0.491E-03    0.00      11.8  T
  15     -8.1530726 -0.151375E-07  0.246E-03    0.00      23.5  T
  16     -8.1530726 -0.507574E-08  0.282E-04    0.00     204.7  T
  17     -8.1530726 -0.297824E-10  0.197E-04    0.00     293.1  T
     SCC iter.                  ...        0 min,  0.001 sec
     gradient                   ...        0 min,  0.000 sec
 * total energy  :    -7.9937143 Eh     change        0.7657492E-01 Eh
   gradient norm :     0.4490212 Eh/α   predicted    -0.4978406E-01 (-165.01%)
   displ. norm   :     0.4153725 α      lambda       -0.1657047E+00
   maximum displ.:     0.3953621 α      in ANC's #1, #2, #3, ...

........................................................................
.............................. CYCLE    5 ..............................
........................................................................
   1     -8.1119962 -0.811200E+01  0.649E+00    1.96       0.0  T
   2     -8.1238614 -0.118652E-01  0.412E+00    1.63       1.0  T
   3     -8.1252575 -0.139608E-02  0.200E+00    1.89       1.0  T
   4     -8.1269165 -0.165903E-02  0.252E-01    1.87       1.0  T
   5     -8.1268903  0.262461E-04  0.150E-01    1.85       1.0  T
   6     -8.1269396 -0.493151E-04  0.330E-03    1.87      17.5  T
   7     -8.1269396  0.720714E-08  0.271E-03    1.87      21.3  T
   8     -8.1269396 -0.144484E-07  0.271E-04    1.87     213.3  T
   9     -8.1269396 -0.874305E-10  0.202E-05    1.87    2861.3  T
     SCC iter.                  ...        0 min,  0.001 sec
     gradient                   ...        0 min,  0.000 sec
 * total energy  :    -8.0835696 Eh     change       -0.8985538E-01 Eh
   gradient norm :     0.0742640 Eh/α   predicted    -0.9714724E-01 (   8.12%)
   displ. norm   :     0.0762776 α      lambda       -0.4612845E-02
   maximum displ.:     0.0564639 α      in ANC's #1, #2, #3, ...

........................................................................
.............................. CYCLE    6 ..............................
........................................................................
   1     -8.1351456 -0.813515E+01  0.918E-01    2.30       0.0  T
   2     -8.1355553 -0.409723E-03  0.503E-01    2.23       1.0  T
   3     -8.1355908 -0.354528E-04  0.262E-01    2.25       1.0  T
   4     -8.1356029 -0.121257E-04  0.130E-02    2.24       4.5  T
   5     -8.1356029  0.301546E-08  0.241E-03    2.24      24.0  T
   6     -8.1356029 -0.986251E-08  0.445E-04    2.24     129.8  T
   7     -8.1356029 -0.512923E-10  0.630E-05    2.24     916.8  T
     SCC iter.                  ...        0 min,  0.000 sec
     gradient                   ...        0 min,  0.000 sec
 * total energy  :    -8.0860384 Eh     change       -0.2468729E-02 Eh
   gradient norm :     0.0233686 Eh/α   predicted    -0.2319840E-02 (  -6.03%)
   displ. norm   :     0.0176631 α      lambda       -0.3986328E-03
   maximum displ.:     0.0137968 α      in ANC's #1, #2, #3, ...

........................................................................
.............................. CYCLE    7 ..............................
........................................................................
   1     -8.1386910 -0.813869E+01  0.168E-01    2.22       0.0  T
   2     -8.1386988 -0.788206E-05  0.993E-02    2.21       1.0  T
   3     -8.1386992 -0.328077E-06  0.474E-02    2.21       1.2  T
   4     -8.1386998 -0.639408E-06  0.307E-03    2.21      18.8  T
   5     -8.1386998 -0.175400E-08  0.468E-04    2.21     123.3  T
   6     -8.1386998 -0.460663E-10  0.266E-04    2.21     217.4  T
     SCC iter.                  ...        0 min,  0.000 sec
     gradient                   ...        0 min,  0.001 sec
 * total energy  :    -8.0863098 Eh     change       -0.2714586E-03 Eh
   gradient norm :     0.0080277 Eh/α   predicted    -0.1993801E-03 ( -26.55%)
   displ. norm   :     0.0115983 α      lambda       -0.8719170E-04
   maximum displ.:     0.0108107 α      in ANC's #1, #2, #3, ...

........................................................................
.............................. CYCLE    8 ..............................
........................................................................
   1     -8.1401558 -0.814016E+01  0.115E-01    2.18       0.0  T
   2     -8.1401563 -0.543379E-06  0.696E-02    2.18       1.0  T
   3     -8.1401562  0.104842E-06  0.129E-02    2.18       4.5  T
   4     -8.1401564 -0.196864E-06  0.196E-03    2.17      29.4  T
   5     -8.1401564 -0.573211E-09  0.279E-04    2.17     206.8  T
   6     -8.1401564 -0.578755E-10  0.175E-04    2.17     330.1  T
     SCC iter.                  ...        0 min,  0.000 sec
     gradient                   ...        0 min,  0.000 sec
 * total energy  :    -8.0863508 Eh     change       -0.4100267E-04 Eh
   gradient norm :     0.0005136 Eh/α   predicted    -0.4360026E-04 (   6.34%)
   displ. norm   :     0.0012944 α      lambda       -0.4422066E-06
   maximum displ.:     0.0012919 α      in ANC's #1, #2, #3, ...

........................................................................
.............................. CYCLE    9 ..............................
........................................................................
   1     -8.1400713 -0.814007E+01  0.138E-02    2.18       0.0  T
   2     -8.1400713 -0.334598E-08  0.826E-03    2.18       7.0  T
   3     -8.1400713  0.848454E-09  0.909E-04    2.18      63.5  T
   4     -8.1400713 -0.138146E-08  0.157E-04    2.18     368.2  T
     SCC iter.                  ...        0 min,  0.000 sec
     gradient                   ...        0 min,  0.000 sec
 * total energy  :    -8.0863510 Eh     change       -0.1476033E-06 Eh
   gradient norm :     0.0002800 Eh/α   predicted    -0.2192174E-06 (  48.52%)
   displ. norm   :     0.0004630 α      lambda       -0.8326494E-07
   maximum displ.:     0.0004630 α      in ANC's #1, #2, #3, ...

   *** GEOMETRY OPTIMIZATION CONVERGED AFTER 9 ITERATIONS ***

------------------------------------------------------------------------
 total energy gain   :        -0.1207414 Eh      -75.7664 kcal/mol
 total RMSD          :         0.6104781 a0        0.3231 Å
 total power (kW/mol):       -35.2229523 (step)********** (real)
------------------------------------------------------------------------

 ANCopt (total)                0 d,  0 h,  0 min,  0.015 sec
 optimizer setup                ...        0 min,  0.000 sec (  0.491%)
 model hessian                  ...        0 min,  0.000 sec (  0.225%)
 ANC generation                 ...        0 min,  0.000 sec (  0.199%)
 coordinate transformation      ...        0 min,  0.000 sec (  0.119%)
 single point calculation       ...        0 min,  0.014 sec ( 94.069%)
 optimization log               ...        0 min,  0.000 sec (  1.199%)
 hessian update                 ...        0 min,  0.000 sec (  0.104%)
 rational function              ...        0 min,  0.000 sec (  1.406%)

================
 final structure:
================
3
 xtb: 6.2.2 (9d81278992624c895f80dd42a50cac0aa55982e2)
O         0.00138293906899    0.72561078920220    0.00000000000000
C        -0.73123610949955   -0.36141336290818    0.00000000000000
C         0.72985317043056   -0.36419842629402    0.00000000000000

 Bond Distances (Angstroems)
 ---------------------------
O1-C2=1.3109         O1-C3=1.3109         C2-O1=1.3109         C2-C3=1.4611         C3-O1=1.3109         C3-C2=1.4611         
 C  C  Rav=1.4611 sigma=0.0000  Rmin=1.4611  Rmax=1.4611     1
 O  C  Rav=1.3109 sigma=0.0000  Rmin=1.3109  Rmax=1.3109     2

 selected bond angles (degree)
 --------------------
C3-O1-C2= 67.74                C3-C2-O1= 56.13                C2-C3-O1= 56.13                

 selected dihedral angles (degree)
 ---------------------------------

           -------------------------------------------------
          |                Final Singlepoint                |
           -------------------------------------------------

          ...................................................
          :                      SETUP                      :
          :.................................................:
          :  # basis functions                  12          :
          :  # atomic orbitals                  12          :
          :  # shells                            6          :
          :  # electrons                        14          :
          :  max. iterations                   250          :
          :  Hamiltonian                  GFN2-xTB          :
          :  restarted?                      false          :
          :  GBSA solvation                  false          :
          :  PC potential                    false          :
          :  electronic temp.          300.0000000     K    :
          :  accuracy                    1.0000000          :
          :  -> integral cutoff          0.2500000E+02      :
          :  -> integral neglect         0.1000000E-07      :
          :  -> SCF convergence          0.1000000E-05 Eh   :
          :  -> wf. convergence          0.1000000E-03 e    :
          :  Broyden damping             0.4000000          :
          ...................................................

 iter      E             dE          RMSdq      gap      omega  full diag
   1     -8.1400713 -0.814007E+01  0.495E-05    2.18       0.0  T
   2     -8.1400713 -0.380140E-11  0.329E-05    2.18    1755.8  T
   3     -8.1400713 -0.295586E-11  0.150E-05    2.18    3855.7  T

   *** convergence criteria satisfied after 3 iterations ***

         #    Occupation            Energy/Eh            Energy/eV
      -------------------------------------------------------------
         1        2.0000           -0.8267404             -22.4968
         2        2.0000           -0.6987359             -19.0136
         3        2.0000           -0.6962493             -18.9459
         4        2.0000           -0.6434168             -17.5083
         5        2.0000           -0.5216652             -14.1952
         6        2.0000           -0.4966803             -13.5154
         7        2.0000           -0.4487962             -12.2124 (HOMO)
         8                         -0.3687038             -10.0329 (LUMO)
         9                         -0.3318069              -9.0289
        10                         -0.0943665              -2.5678
        11                          0.2089818               5.6867
        12                          0.2847835               7.7494
      -------------------------------------------------------------
                  HL-Gap            0.0800923 Eh            2.1794 eV
             Fermi-level           -0.4087500 Eh          -11.1227 eV

 SCC (total)                   0 d,  0 h,  0 min,  0.002 sec
 SCC setup                      ...        0 min,  0.000 sec (  3.106%)
 Dispersion                     ...        0 min,  0.000 sec (  1.805%)
 integral evaluation            ...        0 min,  0.001 sec ( 41.351%)
 zeroth order Hamiltonian       ...        0 min,  0.000 sec (  1.080%)
 iterations                     ...        0 min,  0.000 sec ( 21.424%)
 molecular gradient             ...        0 min,  0.001 sec ( 27.796%)
 printout                       ...        0 min,  0.000 sec (  3.033%)

         :::::::::::::::::::::::::::::::::::::::::::::::::::::
         ::                     SUMMARY                     ::
         :::::::::::::::::::::::::::::::::::::::::::::::::::::
         :: total energy              -8.086350981974 Eh    ::
         :: gradient norm              0.000279535615 Eh/a0 ::
         :: HOMO-LUMO gap              2.179423264153 eV    ::
         ::.................................................::
         :: SCC energy                -8.140071258354 Eh    ::
         :: -> isotropic ES           -0.009539016837 Eh    ::
         :: -> anisotropic ES          0.005036801126 Eh    ::
         :: -> anisotropic XC          0.002286729530 Eh    ::
         :: -> dispersion             -0.000797886244 Eh    ::
         :: repulsion energy           0.053720275671 Eh    ::
         :: add. restraining           0.000000000000 Eh    ::
         :::::::::::::::::::::::::::::::::::::::::::::::::::::

           ------------------------------------------------- 
          |                Numerical Hessian                |
           ------------------------------------------------- 
step length          :   0.00500
SCC accuracy         :   0.30000
Hessian scale factor :   1.00000
frozen atoms in %    :   0.00000    0
RMS gradient         :   0.00028
estimated CPU  time      0.00 min
estimated wall time      0.00 min

writing file <hessian>.

 projected vibrational frequencies (cm-1)
eigval :       -0.00    -0.00     0.00     0.00     0.00     0.00
eigval :     1094.13  1106.69  1572.10
           -------------------------------------------------
          |                Property Printout                |
           -------------------------------------------------

    * Orbital Energies and Occupations

         #    Occupation            Energy/Eh            Energy/eV
      -------------------------------------------------------------
         1        2.0000           -0.8267403             -22.4967
         2        2.0000           -0.6987360             -19.0136
         3        2.0000           -0.6962493             -18.9459
         4        2.0000           -0.6434168             -17.5083
         5        2.0000           -0.5216652             -14.1952
         6        2.0000           -0.4966803             -13.5154
         7        2.0000           -0.4487962             -12.2124 (HOMO)
         8                         -0.3687039             -10.0329 (LUMO)
         9                         -0.3318069              -9.0289
        10                         -0.0943665              -2.5678
        11                          0.2089818               5.6867
        12                          0.2847835               7.7494
      -------------------------------------------------------------
                  HL-Gap            0.0800923 Eh            2.1794 eV
             Fermi-level           -0.4087500 Eh          -11.1227 eV

     #   Z        covCN         q      C6AA      α(0)
     1   8 O      1.709     0.005    14.411     5.126
     2   6 C      1.833    -0.003    31.238     9.030
     3   6 C      1.833    -0.003    31.238     9.030

 Mol. C6AA /au·bohr⁶  :        222.873329
 Mol. C8AA /au·bohr⁸  :       5922.174286
 Mol. α(0) /au        :         23.184526


Wiberg/Mayer (AO) data.
largest (>0.10) Wiberg bond orders for each atom
          total WBO             WBO to atom ...
     1  O   2.634        C    2 1.317    C    3 1.317
     2  C   2.382        O    1 1.317    C    3 1.065
     3  C   2.382        O    1 1.317    C    2 1.065

MOs/occ written to file <molden.input>


molecular dipole:
                 x           y           z       tot (Debye)
 q only:        0.000       0.011      -0.000
   full:        0.001       0.566      -0.000       1.439
molecular quadrupole (traceless):
                xx          xy          yy          xz          yz          zz
 q only:       -0.014       0.000       0.013       0.000      -0.000       0.001
  q+dip:       -1.608       0.003      -0.185       0.000       0.000       1.793
   full:       -2.962       0.004      -0.875       0.000       0.000       3.837

           -------------------------------------------------
          |                Geometry Summary                 |
           -------------------------------------------------

      molecular mass/u    :       40.0208767
   center of mass at/Å    :        0.0001382       0.0723175      -0.0000001
  moments of inertia/u·Å² :        0.1137650E+02   0.1282020E+02   0.2419670E+02
rotational constants/cm⁻¹ :        0.1481794E+01   0.1314928E+01   0.6966914E+00

 * 2 selected distances

     #   Z        #   Z                                     value/Å
     1   8 O      2   6 C                                 1.3108593 (min)
     1   8 O      3   6 C                                 1.3108596 (max)

 * 1 distinct bonds (by element types)

   Z      Z             #   av. dist./Å        max./Å        min./Å
   6 C    8 O           2     1.3108595     1.3108596     1.3108593

           -------------------------------------------------
          |               Frequency Printout                |
           -------------------------------------------------
 projected vibrational frequencies (cm-1)
eigval :       -0.00    -0.00     0.00     0.00     0.00     0.00
eigval :     1094.13  1106.69  1572.10
 reduced masses (amu)
   1: 13.89   2: 16.00   3: 14.03   4: 12.11   5: 12.32   6: 12.01   7: 13.28   8: 13.15
   9: 13.26
 IR intensities (amu)
   1:  0.18   2:  0.27   3:  0.09   4:  0.13   5:  0.12   6:  0.14   7:  0.14   8:  0.42
   9:  0.69
 Raman intensities (amu)
   1:  0.00   2:  0.00   3:  0.00   4:  0.00   5:  0.00   6:  0.00   7:  0.00   8:  0.00
   9:  0.00
 output can be read by thermo (or use thermo option).
 writing <g98.out> molden fake output.
 recommended (thermochemical) frequency scaling factor: 1.0
           -------------------------------------------------
          |             Thermodynamic Functions             |
           -------------------------------------------------
Molecule has the following symmetry elements: (C2) 2*(sigma) 
It seems to be the C2v point group

c2v symmetry found (for desy threshold:  0.10E+00) used in thermo

          ...................................................
          :                      SETUP                      :
          :.................................................:
          :  # frequencies                           3      :
          :  # imaginary freq.                       0      :
          :  linear?                             false      :
          :  only rotor calc.                    false      :
          :  symmetry                              c2v      :
          :  rotational number                       2      :
          :  scaling factor                  1.0000000      :
          :  rotor cutoff                   50.0000000 cm⁻¹ :
          :  imag. cutoff                  -20.0000000 cm⁻¹ :
          :.................................................:

    mode    ω/cm⁻¹     T·S(HO)/kcal·mol⁻¹    T·S(FR)/kcal·mol⁻¹   T·S(vib)
   ------------------------------------------------------------------------
   ------------------------------------------------------------------------

   temp. (K)  partition function   enthalpy   heat capacity  entropy
                                   cal/mol     cal/K/mol   cal/K/mol   J/K/mol
 298.15  VIB   1.01                   33.536      0.617      0.133
         ROT  0.227E+04              888.752      2.981     18.337
         INT  0.229E+04              922.288      3.598     18.470
         TR   0.245E+27             1481.254      4.968     36.972
         TOT                        2403.5420     8.5665    55.4414   231.9667

   temp. (K)  partition function   enthalpy   heat capacity  entropy
                                   cal/mol     cal/K/mol   cal/K/mol   J/K/mol
 120.00  VIB   1.00                    0.012      0.001      0.000
         ROT   579.                  357.707      2.981     15.624
         INT   579.                  357.719      2.982     15.624
         TR   0.625E+26              596.178      4.968     32.452
         TOT                         953.8966     7.9503    48.0760   201.1501

   temp. (K)  partition function   enthalpy   heat capacity  entropy
                                   cal/mol     cal/K/mol   cal/K/mol   J/K/mol
 100.00  VIB   1.00                    0.001      0.000      0.000
         ROT   441.                  298.089      2.981     15.080
         INT   441.                  298.090      2.981     15.080
         TR   0.476E+26              496.815      4.968     31.547
         TOT                         794.9048     7.9492    46.6271   195.0877

   temp. (K)  partition function   enthalpy   heat capacity  entropy
                                   cal/mol     cal/K/mol   cal/K/mol   J/K/mol
  80.00  VIB   1.00                    0.000      0.000     -0.000
         ROT   315.                  238.471      2.981     14.415
         INT   315.                  238.471      2.981     14.415
         TR   0.340E+26              397.452      4.968     30.439
         TOT                         635.9232     7.9490    44.8538   187.6685

   temp. (K)  partition function   enthalpy   heat capacity  entropy
                                   cal/mol     cal/K/mol   cal/K/mol   J/K/mol
  60.00  VIB   1.00                    0.000      0.000     -0.000
         ROT   205.                  178.853      2.981     13.558
         INT   205.                  178.853      2.981     13.558
         TR   0.221E+26              298.089      4.968     29.010
         TOT                         476.9424     7.9490    42.5677   178.1034

   temp. (K)  partition function   enthalpy   heat capacity  entropy
                                   cal/mol     cal/K/mol   cal/K/mol   J/K/mol
  40.00  VIB   1.00                    0.000      0.000     -0.000
         ROT   112.                  119.236      2.981     12.349
         INT   112.                  119.236      2.981     12.349
         TR   0.120E+26              198.726      4.968     26.997
         TOT                         317.9616     7.9490    39.3457   164.6223

   temp. (K)  partition function   enthalpy   heat capacity  entropy
                                   cal/mol     cal/K/mol   cal/K/mol   J/K/mol
  20.00  VIB   1.00                    0.000      0.000     -0.000
         ROT   39.4                   59.618      2.981     10.283
         INT   39.4                   59.618      2.981     10.283
         TR   0.426E+25               99.363      4.968     23.555
         TOT                         158.9808     7.9490    33.8375   141.5760

   temp. (K)  partition function   enthalpy   heat capacity  entropy
                                   cal/mol     cal/K/mol   cal/K/mol   J/K/mol
  10.00  VIB   1.00                    0.000      0.000     -0.000
         ROT   13.9                   29.809      2.981      8.217
         INT   13.9                   29.809      2.981      8.216
         TR   0.150E+25               49.681      4.968     20.113
         TOT                          79.4904     7.9490    28.3293   118.5298

       T/K    H(0)-H(T)+PV         H(T)/Eh          T*S/Eh         G(T)/Eh
   ------------------------------------------------------------------------
    298.15    0.383029E-02    0.124256E-01    0.263420E-01   -0.139164E-01
    120.00    0.152013E-02    0.101155E-01    0.919368E-02    0.921782E-03
    100.00    0.126676E-02    0.986210E-02    0.743050E-02    0.243160E-02
     80.00    0.101341E-02    0.960874E-02    0.571833E-02    0.389041E-02
     60.00    0.760056E-03    0.935539E-02    0.407016E-02    0.528523E-02
     40.00    0.506704E-03    0.910204E-02    0.250805E-02    0.659399E-02
     20.00    0.253352E-03    0.884869E-02    0.107847E-02    0.777022E-02
     10.00    0.126676E-03    0.872201E-02    0.451456E-03    0.827055E-02 (used)
   ------------------------------------------------------------------------

         :::::::::::::::::::::::::::::::::::::::::::::::::::::
         ::                  THERMODYNAMIC                  ::
         :::::::::::::::::::::::::::::::::::::::::::::::::::::
         :: total free energy          -8.078080427766 Eh   ::
         ::.................................................::
         :: total energy               -8.086350981972 Eh   ::
         :: zero point energy           0.008595334422 Eh   ::
         :: G(RRHO) w/o ZPVE           -0.000324780216 Eh   ::
         :: G(RRHO) contrib.            0.008270554206 Eh   ::
         :::::::::::::::::::::::::::::::::::::::::::::::::::::

optimized geometry written to: xtbopt.xyz


           -------------------------------------------------
          | TOTAL ENERGY               -8.086350981972 Eh   |
          | TOTAL ENTHALPY             -8.077628971534 Eh   |
          | TOTAL FREE ENERGY          -8.078080427766 Eh   |
          | GRADIENT NORM               0.000279505999 Eh/α |
          | HOMO-LUMO GAP               2.179422770035 eV   |
           -------------------------------------------------

------------------------------------------------------------------------
 * finished run on 2020/05/12 at 11:43:50.769     
------------------------------------------------------------------------
 total:
 * wall-time:     0 d,  0 h,  0 min,  0.060 sec
 *  cpu-time:     0 d,  0 h,  0 min,  0.058 sec
 * ratio c/w:     0.975 speedup
 SCF:
 * wall-time:     0 d,  0 h,  0 min,  0.002 sec
 *  cpu-time:     0 d,  0 h,  0 min,  0.002 sec
 * ratio c/w:     1.000 speedup
 ANC optimizer:
 * wall-time:     0 d,  0 h,  0 min,  0.017 sec
 *  cpu-time:     0 d,  0 h,  0 min,  0.017 sec
 * ratio c/w:     0.997 speedup
 numerical hessian:
 * wall-time:     0 d,  0 h,  0 min,  0.022 sec
 *  cpu-time:     0 d,  0 h,  0 min,  0.022 sec
 * ratio c/w:     0.998 speedup

