3
 energy: -8.086350981974 gnorm: 0.000279535615 xtb: 6.2.2 (9d81278992624c895f80dd42a50cac0aa55982e2)
O         0.00138673835375    0.72561078195009   -0.00000127125710
C        -0.73123800183881   -0.36140953415936    0.00000318328086
C         0.72985126347983   -0.36420224779073   -0.00000191202201
