[Molden Format]
[Title]
[Atoms] AU
O      1     8  0.26205554519663E-02  0.13712055237409E+01 -0.24023275375764E-05
C      2     6 -0.13818394271871E+01 -0.68296497502436E+00  0.60155284420126E-05
C      3     6  0.13792188717252E+01 -0.68824243844252E+00 -0.36131976061940E-05
[GTO]
           1 0
 s           4   1.0000000000000000     
   69.137961906196551      -0.20478756370077797     
   11.906129132707308      -0.24997023136827334     
  0.95670827744340703       0.40025880240639616     
  0.36462520496073686       0.15952206667693555     
 p           4   1.0000000000000000     
   8.2124193257781641        1.1321556799186829     
   2.1293576997098116        1.0476840782254817     
  0.75066448202360914       0.54956508217158984     
  0.29885246543283073        8.2908486592766617E-002

           2 0
 s           4   1.0000000000000000     
   51.049363095579913      -0.16312063210127389     
   8.7911227406887544      -0.19911024581000730     
  0.70640422258929825       0.31882047753655751     
  0.26922813413411617       0.12706504184240380     
 p           4   1.0000000000000000     
   5.8263656140800002       0.73716451545209605     
   1.5106896018720002       0.68216371614850257     
  0.53256483288000001       0.35783053929253711     
  0.21202323690600003        5.3983030275847881E-002

           3 0
 s           4   1.0000000000000000     
   51.049363095579913      -0.16312063210127389     
   8.7911227406887544      -0.19911024581000730     
  0.70640422258929825       0.31882047753655751     
  0.26922813413411617       0.12706504184240380     
 p           4   1.0000000000000000     
   5.8263656140800002       0.73716451545209605     
   1.5106896018720002       0.68216371614850257     
  0.53256483288000001       0.35783053929253711     
  0.21202323690600003        5.3983030275847881E-002

[MO]
Sym=     1a
Ene=  -0.82674034724999756     
Spin= Alpha
Occup=     2.00000000
           1 -0.62212601348805985     
           2   4.3092858706580007E-004
           3  0.22540564302349025     
           4  -4.0663731311966377E-007
           5 -0.22840663988319679     
           6 -0.10741981922033353     
           7 -0.10507407871348785     
           8   5.5703062619376106E-007
           9 -0.22840644769259019     
          10  0.10701733576185694     
          11 -0.10548380152541112     
          12  -1.9139364306267337E-007
Sym=     2a
Ene=  -0.69873598633152179     
Spin= Alpha
Occup=     2.00000000
           1 -0.63433997543392306     
           2  -1.0313699577154810E-003
           3 -0.54141600991114824     
           4   9.1953234515159800E-007
           5  0.27368623021365190     
           6  0.11193732243848083     
           7  -9.9135469268830240E-002
           8  -2.2648647399115595E-007
           9  0.27368926361206419     
          10 -0.11231463834974073     
          11  -9.8704905179389846E-002
          12   5.5605906639461149E-007
Sym=     3a
Ene=  -0.69624932962172192     
Spin= Alpha
Occup=     2.00000000
           1   3.3308870648126746E-006
           2  0.69017207259572921     
           3  -1.3163757235222905E-003
           4  -2.4033589930273261E-006
           5 -0.31476917245599811     
           6   8.2274440198036536E-002
           7 -0.18457004084512008     
           8   3.6583959542318624E-008
           9  0.31476652999346411     
          10   8.2980215106868427E-002
          11  0.18425514448040434     
          12  -6.0977635274704902E-007
Sym=     4a
Ene=  -0.64341677589194313     
Spin= Alpha
Occup=     2.00000000
           1  -2.7787335584883539E-008
           2   2.7107106494975833E-006
           3   1.3392538623930122E-006
           4  0.77752337627462209     
           5   6.7428307527590578E-009
           6   1.0870249930791494E-006
           7   5.3767102306848767E-007
           8  0.31091445330674933     
           9   4.2534145972311501E-009
          10   1.0825216077924912E-006
          11   5.3587245250664243E-007
          12  0.31091417378632102     
Sym=     5a
Ene=  -0.52166523262831599     
Spin= Alpha
Occup=     2.00000000
           1  0.16804575027697297     
           2   9.9736267346423263E-004
           3  0.52181735162963838     
           4  -9.0727303582236459E-007
           5  0.37159221720636326     
           6   1.7992208273136297E-003
           7 -0.43419482801162229     
           8   7.4607676613471163E-007
           9  0.37159173147981478     
          10  -3.4593288090455712E-003
          11 -0.43418440010240522     
          12   7.6536415662035995E-007
Sym=     6a
Ene=  -0.49668034240554138     
Spin= Alpha
Occup=     2.00000000
           1   3.1905873486184574E-008
           2  0.34910299530902811     
           3  -6.6745946721991501E-004
           4  -1.2162971094932441E-006
           5  0.50628068709138885     
           6 -0.31627950869830063     
           7 -0.31340186793455121     
           8   1.6505918904173038E-006
           9 -0.50628122188303015     
          10 -0.31507925169892109     
          11  0.31460892249424244     
          12   5.4947156965792012E-007
Sym=     7a
Ene=  -0.44879617904226993     
Spin= Alpha
Occup=     2.00000000
           1  -7.0526856490593551E-002
           2  -1.2407521975820314E-004
           3  -6.5005910042694667E-002
           4   1.1139928942535657E-007
           5  0.36019020927387585     
           6 -0.57827702687137583     
           7  0.16714742248328435     
           8   1.7280664878553323E-006
           9  0.36019030775432798     
          10  0.57891160654133578     
          11  0.16493595960528448     
          12  -2.3048999880897496E-006
Sym=     8a
Ene=  -0.36870386598909405     
Spin= Alpha
Occup=     0.00000000
           1  -4.3429996881335634E-009
           2   2.3446650822055194E-006
           3   1.1637882733266186E-006
           4  0.67179317650595682     
           5  -3.5838102458381085E-009
           6  -2.0847315963897325E-006
           7  -1.0370631530996844E-006
           8 -0.59646779921713744     
           9  -2.2961524768560822E-009
          10  -2.0779714461023400E-006
          11  -1.0379925821709156E-006
          12 -0.59646814778969104     
Sym=     9a
Ene=  -0.33180692504514914     
Spin= Alpha
Occup=     0.00000000
           1   9.5230930436185518E-011
           2  -7.8720580793731013E-009
           3  -1.1252590348272265E-010
           4  -3.8860345430552352E-007
           5  -6.5261277026201061E-010
           6   2.7062753642443832E-006
           7   1.3462183268356295E-006
           8  0.77467445587869732     
           9   2.5822043425857392E-009
          10  -2.7001702553685976E-006
          11  -1.3463008772752529E-006
          12 -0.77467427041299897     
Sym=    10a
Ene=   -9.4366517105584080E-002
Spin= Alpha
Occup=     0.00000000
           1  -1.9547866948386092E-007
           2 -0.58193613281396994     
           3   1.1125800346894145E-003
           4   2.0294047049987807E-006
           5   8.0136750940004831E-002
           6  0.47263210241522202     
           7 -0.66817436337350533     
           8  -4.9297594233655516E-007
           9  -8.0136602727336595E-002
          10  0.47518250108079862     
          11  0.66636325350207715     
          12  -2.8121998287448975E-006
Sym=    11a
Ene=   0.20898176496362988     
Spin= Alpha
Occup=     0.00000000
           1  0.80841052686706250     
           2  -1.6254152893054744E-003
           3 -0.85148681570147300     
           4   1.4881223667595423E-006
           5 -0.38221662407255413     
           6 -0.31460232127904791     
           7 -0.58296106772464984     
           8   2.1179070433319945E-006
           9 -0.38222203758405349     
          10  0.31237812996041681     
          11 -0.58416144226441447     
          12  -6.8447369306138174E-008
Sym=    12a
Ene=   0.28478346400466215     
Spin= Alpha
Occup=     0.00000000
           1  -3.5147854655828666E-006
           2  0.56619021309803041     
           3  -1.0785004406486816E-003
           4  -1.9745143172690046E-006
           5  0.69931941184835233     
           6  0.76203853332035998     
           7  0.34050115133458919     
           8  -3.2510248975263419E-006
           9 -0.69931609383245530     
          10  0.76072891643803542     
          11 -0.34340690973820187     
          12  -2.0589725042402252E-006
