3
 energy: -7.965609555659 gnorm: 0.149893870659 xtb: 6.2.2 (9d81278992624c895f80dd42a50cac0aa55982e2)
O         0.00108400000000    0.56882500000000    0.00000000000000
C        -1.10271300000000   -0.28231200000000    0.00000000000000
C         1.10162900000000   -0.28651400000000    0.00000000000000
3
 energy: -8.003805793686 gnorm: 0.137598054355 xtb: 6.2.2 (9d81278992624c895f80dd42a50cac0aa55982e2)
O         0.00112194734859    0.58871202356862    0.00000000000000
C        -0.99274214814183   -0.29246519751655    0.00000000000000
C         0.99162020079324   -0.29624782605207    0.00000000000000
3
 energy: -8.070289180022 gnorm: 0.126941719044 xtb: 6.2.2 (9d81278992624c895f80dd42a50cac0aa55982e2)
O         0.00135361760117    0.71022936336062    0.00000000000000
C        -0.81998754374187   -0.35355343707795    0.00000000000000
C         0.81863392614071   -0.35667692628267    0.00000000000000
3
 energy: -7.993714264780 gnorm: 0.449021183496 xtb: 6.2.2 (9d81278992624c895f80dd42a50cac0aa55982e2)
O         0.00153792197778    0.80681467936064    0.00000000000000
C        -0.58542380753842   -0.40229349925431    0.00000000000000
C         0.58388588556064   -0.40452218010634    0.00000000000000
3
 energy: -8.083569644244 gnorm: 0.074263993916 xtb: 6.2.2 (9d81278992624c895f80dd42a50cac0aa55982e2)
O         0.00144371360086    0.75742908648982    0.00000000000000
C        -0.73480221536951   -0.37731582542936    0.00000000000000
C         0.73335850176865   -0.38011426106046    0.00000000000000
3
 energy: -8.086038373174 gnorm: 0.023368640383 xtb: 6.2.2 (9d81278992624c895f80dd42a50cac0aa55982e2)
O         0.00138277198900    0.72544004945784    0.00000000000000
C        -0.74163930540606   -0.36130822318341    0.00000000000000
C         0.74025653341706   -0.36413282627443    0.00000000000000
3
 energy: -8.086309831726 gnorm: 0.008027687750 xtb: 6.2.2 (9d81278992624c895f80dd42a50cac0aa55982e2)
O         0.00138150659081    0.72480030328752    0.00000000000000
C        -0.73505268302607   -0.36100088666022    0.00000000000000
C         0.73367117643526   -0.36380041662730    0.00000000000000
3
 energy: -8.086350834392 gnorm: 0.000513618603 xtb: 6.2.2 (9d81278992624c895f80dd42a50cac0aa55982e2)
O         0.00138356377813    0.72589293089722    0.00000000000000
C        -0.73081823056307   -0.36155526461723    0.00000000000000
C         0.72943466678494   -0.36433866627999    0.00000000000000
3
 energy: -8.086350981995 gnorm: 0.000279969280 xtb: 6.2.2 (9d81278992624c895f80dd42a50cac0aa55982e2)
O         0.00138293906899    0.72561078920220    0.00000000000000
C        -0.73123610949955   -0.36141336290818    0.00000000000000
C         0.72985317043056   -0.36419842629402    0.00000000000000
