 Entering Gaussian System
 *********************************************
 Gaussian 98:
 frequency output generated by the xtb code
 *********************************************
                         Standard orientation:
 --------------------------------------------------------------------
  Center     Atomic     Atomic              Coordinates (Angstroms)
  Number     Number      Type              X           Y           Z
 --------------------------------------------------------------------
    1          8             0        0.001387    0.725611   -0.000001
    2          6             0       -0.731238   -0.361410    0.000003
    3          6             0        0.729851   -0.364202   -0.000002
 --------------------------------------------------------------------
     1 basis functions        1 primitive gaussians
     1 alpha electrons        1 beta electrons

 Harmonic frequencies (cm**-1), IR intensities (KM/Mole),
 Raman scattering activities (A**4/amu), Raman depolarization ratios,
 reduced masses (AMU), force constants (mDyne/A) and normal coordinates:
                      1                      2                      3
                        a                      a                      a 
 Frequencies --  1094.1280              1106.6867              1572.1010
 Red. masses --    13.2792                13.1522                13.2634
 Frc consts  --     0.0000                 0.0000                 0.0000
 IR Inten    --     0.1418                 0.4210                 0.6888
 Raman Activ --     0.0000                 0.0000                 0.0000
 Depolar     --     0.0000                 0.0000                 0.0000
 Atom AN      X      Y      Z        X      Y      Z        X      Y      Z
   1   8     0.56  -0.00  -0.00     0.00   0.53  -0.00    -0.00  -0.56   0.00
   2   6    -0.33  -0.48   0.00     0.51  -0.31  -0.00     0.49   0.32  -0.00
   3   6    -0.32   0.49   0.00    -0.51  -0.31   0.00    -0.49   0.32   0.00
