      -----------------------------------------------------------      
     |                   =====================                   |     
     |                           x T B                           |     
     |                   =====================                   |     
     |                         S. Grimme                         |     
     |          Mulliken Center for Theoretical Chemistry        |     
     |                    University of Bonn                     |     
      -----------------------------------------------------------      

   * xtb version 6.2.2 (9d81278992624c895f80dd42a50cac0aa55982e2) compiled by '@Darwin' on 04/03/2020

   xtb is free software: you can redistribute it and/or modify it under
   the terms of the GNU Lesser General Public License as published by
   the Free Software Foundation, either version 3 of the License, or
   (at your option) any later version.
   
   xtb is distributed in the hope that it will be useful,
   but WITHOUT ANY WARRANTY; without even the implied warranty of
   MERCHANTABILITY or FITNESS FOR A PARTICULAR PURPOSE.  See the
   GNU Lesser General Public License for more details.
   
   Cite this work as:
   * S. Grimme, C. Bannwarth, P. Shushkov, J. Chem. Theory Comput., 2017,
     13, 1989-2009. DOI: 10.1021/acs.jctc.7b00118
   * C. Bannwarth, S. Ehlert and S. Grimme., J. Chem. Theory Comput., 2019,
     15, 1652-1671. DOI: 10.1021/acs.jctc.8b01176
   * P. Pracht, E. Caldeweyher, S. Ehlert, S. Grimme, ChemRxiv, 2019, preprint.
     DOI: 10.26434/chemrxiv.8326202.v1
   
   for DFT-D4:
   * E. Caldeweyher, C. Bannwarth and S. Grimme, J. Chem. Phys., 2017,
     147, 034112. DOI: 10.1063/1.4993215
   * E. Caldeweyher, S. Ehlert, A. Hansen, H. Neugebauer, S. Spicher,
     C. Bannwarth and S. Grimme, J. Chem. Phys., 2019, 150, 154122.
     DOI: 10.1063/1.5090222
   
   for sTDA-xTB:
   * S. Grimme and C. Bannwarth, J. Chem. Phys., 2016, 145, 054103.
     DOI: 10.1063/1.4959605
   
   in the mass-spec context:
   * V. Asgeirsson, C. Bauer and S. Grimme, Chem. Sci., 2017, 8, 4879.
     DOI: 10.1039/c7sc00601b
   
   for metadynamics refer to:
   * S. Grimme, J. Chem. Theory Comput., 2019, 155, 2847-2862
     DOI: 10.1021/acs.jctc.9b00143
   
   with help from (in alphabetical order)
   C. Bannwarth, F. Bohle, G. Brandenburg, E. Caldeweyher, M. Checinski,
   S. Dohm, S. Ehlert, S. Ehrlich, F. März, H. Neugebauer, J. Pisarek,
   P. Pracht, P. Shushkov, and S. Spicher.
   
 * started run on 2020/05/12 at 11:44:51.778     

           -------------------------------------------------
          |                Calculation Setup                |
           -------------------------------------------------

          program call               : xtb --input H1C3N1_4_S_2.input H1C3N1_4_S_2.xyz --ohess --molden --namespace H1C3N1_4_S_2 output.out
          calculation namespace      : H1C3N1_4_S_2
          coordinate file            : H1C3N1_4_S_2.xyz
          number of atoms            :                     5
          number of electrons        :                    18
          charge                     :                     0
          spin                       :                   1.0
          first test random number   :      0.54011806988410

   ID    Z sym.   atoms
    1    6 C      1, 3, 4
    2    7 N      2
    3    1 H      5

           -------------------------------------------------
          |                 G F N 2 - x T B                 |
           -------------------------------------------------

        Reference                      10.1021/acs.jctc.8b01176
      * Hamiltonian:
        H0-scaling (s, p, d)           1.850000    2.230000    2.230000
        zeta-weighting                 0.500000
      * Dispersion:
        s8                             2.700000
        a1                             0.520000
        a2                             5.000000
        s9                             5.000000
      * Repulsion:
        kExp                           1.500000    1.000000
        rExp                           1.000000
      * Coulomb:
        alpha                          2.000000
        third order                    shell-resolved
        anisotropic                    true
        a3                             3.000000
        a5                             4.000000
        cn-shift                       1.200000
        cn-exp                         4.000000
        max-rad                        5.000000


          ...................................................
          :                      SETUP                      :
          :.................................................:
          :  # basis functions                  17          :
          :  # atomic orbitals                  17          :
          :  # shells                            9          :
          :  # electrons                        18          :
          :  max. iterations                   250          :
          :  Hamiltonian                  GFN2-xTB          :
          :  restarted?                      false          :
          :  GBSA solvation                  false          :
          :  PC potential                    false          :
          :  electronic temp.          300.0000000     K    :
          :  accuracy                    1.0000000          :
          :  -> integral cutoff          0.2500000E+02      :
          :  -> integral neglect         0.1000000E-07      :
          :  -> SCF convergence          0.1000000E-05 Eh   :
          :  -> wf. convergence          0.1000000E-03 e    :
          :  Broyden damping             0.4000000          :
          ...................................................

 iter      E             dE          RMSdq      gap      omega  full diag
   1     -9.2478125 -0.924781E+01  0.907E+00    0.33       0.0  T
   2     -9.2794019 -0.315893E-01  0.561E+00    0.45       1.0  T
   3     -9.2831338 -0.373197E-02  0.186E+00    0.42       1.0  T
   4     -9.2840003 -0.866498E-03  0.545E-01    0.41       1.0  T
   5     -9.2696018  0.143985E-01  0.135E+00    0.42       1.0  T
   6     -9.2786799 -0.907814E-02  0.894E-01    0.43       1.0  T
   7     -9.2841663 -0.548634E-02  0.516E-02    0.42       1.0  T
   8     -9.2839675  0.198780E-03  0.159E-01    0.42       1.0  T
   9     -9.2841739 -0.206385E-03  0.305E-02    0.42       1.5  T
  10     -9.2841757 -0.179791E-05  0.500E-03    0.42       8.9  T
  11     -9.2841758 -0.138612E-06  0.875E-04    0.42      51.1  T
  12     -9.2841758 -0.452900E-08  0.342E-04    0.42     130.7  T

   *** convergence criteria satisfied after 12 iterations ***

         #    Occupation            Energy/Eh            Energy/eV
      -------------------------------------------------------------
         1        2.0000           -0.7473020             -20.3351
       ...           ...                  ...                  ...
         4        2.0000           -0.6614634             -17.9993
         5        2.0000           -0.5337523             -14.5241
         6        2.0000           -0.5110499             -13.9064
         7        2.0000           -0.5110495             -13.9064
         8        1.5000           -0.4042497             -11.0002
         9        1.5000           -0.4042497             -11.0002
        10        0.9996           -0.3800909             -10.3428 (HOMO)
        11        0.0002           -0.3646676              -9.9231 (LUMO)
        12        0.0002           -0.3646675              -9.9231
        13                         -0.3537213              -9.6252
        14                         -0.0674860              -1.8364
        15                          0.0509885               1.3875
       ...                                ...                  ...
        17                          0.0691454               1.8815
      -------------------------------------------------------------
                  HL-Gap            0.0154233 Eh            0.4197 eV
             Fermi-level           -0.3884791 Eh          -10.5711 eV

 transition dipole moment (au) for excitation:           9          10
     X       Y       Z   
  -0.5992   0.9830  -0.0144  total (au/Debye):    1.151   2.926
 dE (eV)             :    0.657
 oscillator strength :  0.30193E-01

 SCC (total)                   0 d,  0 h,  0 min,  0.004 sec
 SCC setup                      ...        0 min,  0.000 sec (  2.036%)
 Dispersion                     ...        0 min,  0.000 sec (  0.382%)
 integral evaluation            ...        0 min,  0.001 sec ( 23.493%)
 zeroth order Hamiltonian       ...        0 min,  0.000 sec (  0.444%)
 iterations                     ...        0 min,  0.001 sec ( 29.674%)
 molecular gradient             ...        0 min,  0.001 sec ( 24.421%)
 printout                       ...        0 min,  0.001 sec ( 19.342%)

         :::::::::::::::::::::::::::::::::::::::::::::::::::::
         ::                     SUMMARY                     ::
         :::::::::::::::::::::::::::::::::::::::::::::::::::::
         :: total energy              -9.236443995001 Eh    ::
         :: gradient norm              0.099154431201 Eh/a0 ::
         :: HOMO-LUMO gap              0.419690521475 eV    ::
         ::.................................................::
         :: SCC energy                -9.284175802527 Eh    ::
         :: -> isotropic ES           -0.043193644512 Eh    ::
         :: -> anisotropic ES          0.002657344422 Eh    ::
         :: -> anisotropic XC          0.001825390477 Eh    ::
         :: -> dispersion             -0.002417926618 Eh    ::
         :: repulsion energy           0.047731713890 Eh    ::
         :: add. restraining           0.000000000000 Eh    ::
         :::::::::::::::::::::::::::::::::::::::::::::::::::::

      ----------------------------------------------------------- 
     |                   =====================                   |
     |                        A N C O P T                        |
     |                   =====================                   |
     |               Approximate Normal Coordinate               |
     |                Rational Function Optimizer                |
      ----------------------------------------------------------- 

          ...................................................
          :                      SETUP                      :
          :.................................................:
          :   optimization level            normal          :
          :   max. optcycles                   200          :
          :   ANC micro-cycles                  20          :
          :   degrees of freedom                 9          :
          :.................................................:
          :   RF solver                   davidson          :
          :   write xtbopt.log                true          :
          :   linear?                        false          :
          :   energy convergence         0.5000000E-05 Eh   :
          :   grad. convergence          0.1000000E-02 Eh/α :
          :   maximium RF displ.         1.0000000          :
          :   Hlow (freq-cutoff)         0.1000000E-01      :
          :   Hmax (freq-cutoff)         5.0000000          :
          :   S6 in model hess.         20.0000000          :
          ...................................................

generating ANC from model Hessian ...
Using Lindh-Hessian (1995)
 Shifting diagonal of input Hessian by    0.0000000000000000     
 Lowest  eigenvalues of input Hessian
   -0.000000   -0.000000   -0.000000    0.000000    0.000000    0.000000
    0.102431    0.102431    0.125786    0.164003    0.164004    0.537669
    1.254574    1.262560    1.262562
 Highest eigenvalues
    0.164003    0.164004    0.537669    1.254574    1.262560    1.262562


........................................................................
.............................. CYCLE    1 ..............................
........................................................................
   1     -9.2841758 -0.928418E+01  0.908E-05    0.42       0.0  T
   2     -9.2841758  0.173136E-08  0.454E-04    0.42      98.6  T
   3     -9.2841758 -0.163412E-08  0.126E-04    0.42     356.3  T
     SCC iter.                  ...        0 min,  0.000 sec
     gradient                   ...        0 min,  0.001 sec
 * total energy  :    -9.2364440 Eh     change        0.1595255E-08 Eh
   gradient norm :     0.0991551 Eh/α   predicted     0.0000000E+00 (-100.00%)
   displ. norm   :     0.4655386 α      lambda       -0.4108585E-01
   maximum displ.:     0.4528307 α      in ANC's #3, #6, #7, ...

........................................................................
.............................. CYCLE    2 ..............................
........................................................................
   1     -9.3285184 -0.932852E+01  0.195E+00    1.75       0.0  T
   2     -9.3287993 -0.280906E-03  0.108E+00    1.74       1.0  T
   3     -9.3289097 -0.110395E-03  0.801E-02    1.73       1.0  T
   4     -9.3288179  0.917267E-04  0.113E-01    1.72       1.0  T
   5     -9.3288856 -0.676846E-04  0.608E-02    1.72       1.0  T
   6     -9.3289110 -0.253836E-04  0.788E-03    1.72       5.7  T
   7     -9.3289082  0.280074E-05  0.198E-02    1.72       2.3  T
   8     -9.3289111 -0.288783E-05  0.258E-03    1.73      17.4  T
   9     -9.3289111 -0.827044E-08  0.180E-03    1.73      24.8  T
  10     -9.3289111 -0.203965E-07  0.197E-04    1.73     226.7  T
  11     -9.3289111 -0.262734E-09  0.160E-05    1.73    2795.8  T
     SCC iter.                  ...        0 min,  0.001 sec
     gradient                   ...        0 min,  0.001 sec
 * total energy  :    -9.2754915 Eh     change       -0.3904753E-01 Eh
   gradient norm :     0.0956467 Eh/α   predicted    -0.2499511E-01 ( -35.99%)
   displ. norm   :     0.8881493 α      lambda       -0.7684126E-01
   maximum displ.:     0.8274733 α      in ANC's #3, #6, #7, ...

........................................................................
.............................. CYCLE    3 ..............................
........................................................................
   1     -9.4284589 -0.942846E+01  0.615E+00    4.66       0.0  T
   2     -9.4367941 -0.833524E-02  0.314E+00    4.62       1.0  T
   3     -9.4374798 -0.685687E-03  0.757E-01    4.61       1.0  T
   4     -9.4377349 -0.255102E-03  0.161E-01    4.60       1.0  T
   5     -9.4377339  0.986218E-06  0.352E-02    4.60       1.3  T
   6     -9.4377224  0.115467E-04  0.512E-02    4.60       1.0  T
   7     -9.4377390 -0.166552E-04  0.928E-03    4.60       4.8  T
   8     -9.4377391 -0.739327E-07  0.725E-04    4.60      61.6  T
   9     -9.4377391  0.120491E-07  0.147E-03    4.60      30.5  T
  10     -9.4377391 -0.141634E-07  0.126E-04    4.60     354.1  T
     SCC iter.                  ...        0 min,  0.001 sec
     gradient                   ...        0 min,  0.001 sec
 * total energy  :    -9.3745677 Eh     change       -0.9907619E-01 Eh
   gradient norm :     0.1281225 Eh/α   predicted    -0.6872717E-01 ( -30.63%)
   displ. norm   :     0.9110153 α      lambda       -0.1066687E+00
   maximum displ.:     0.8460473 α      in ANC's #3, #6, #7, ...

........................................................................
.............................. CYCLE    4 ..............................
........................................................................
   1     -9.4740593 -0.947406E+01  0.855E+00    6.65       0.0  T
   2     -9.5274152 -0.533559E-01  0.392E+00    7.43       1.0  T
   3     -9.5320868 -0.467164E-02  0.253E+00    7.14       1.0  T
   4     -9.5009330  0.311539E-01  0.250E+00    7.07       1.0  T
   5     -9.5283373 -0.274044E-01  0.124E+00    7.17       1.0  T
   6     -9.5203589  0.797839E-02  0.175E+00    7.09       1.0  T
   7     -9.5327448 -0.123858E-01  0.786E-01    7.14       1.0  T
   8     -9.5353466 -0.260180E-02  0.278E-01    7.16       1.0  T
   9     -9.5353824 -0.358005E-04  0.199E-01    7.16       1.0  T
  10     -9.5354514 -0.690131E-04  0.866E-02    7.17       1.0  T
  11     -9.5354619 -0.104905E-04  0.447E-02    7.17       1.0  T
  12     -9.5354650 -0.308053E-05  0.124E-02    7.17       3.6  T
  13     -9.5354653 -0.346407E-06  0.291E-03    7.17      15.4  T
  14     -9.5354653 -0.175516E-07  0.138E-03    7.17      32.3  T
  15     -9.5354653 -0.985814E-09  0.317E-04    7.17     141.2  T
  16     -9.5354653 -0.566036E-10  0.330E-05    7.17    1354.8  T
     SCC iter.                  ...        0 min,  0.001 sec
     gradient                   ...        0 min,  0.001 sec
 * total energy  :    -9.4258837 Eh     change       -0.5131595E-01 Eh
   gradient norm :     0.1086952 Eh/α   predicted    -0.9759921E-01 (  90.19%)
   displ. norm   :     0.3036980 α      lambda       -0.2474068E-01
   maximum displ.:     0.2876935 α      in ANC's #3, #6, #7, ...

........................................................................
.............................. CYCLE    5 ..............................
........................................................................
   1     -9.5012302 -0.950123E+01  0.417E+00    7.59       0.0  T
   2     -9.5119883 -0.107581E-01  0.190E+00    7.38       1.0  T
   3     -9.5126760 -0.687752E-03  0.107E+00    7.49       1.0  T
   4     -9.4882153  0.244607E-01  0.212E+00    7.41       1.0  T
   5     -9.5129083 -0.246930E-01  0.335E-01    7.49       1.0  T
   6     -9.5129755 -0.672754E-04  0.304E-01    7.49       1.0  T
   7     -9.5133744 -0.398838E-03  0.954E-02    7.49       1.0  T
   8     -9.5133977 -0.233557E-04  0.243E-02    7.50       1.8  T
   9     -9.5133977  0.491378E-07  0.128E-02    7.50       3.5  T
  10     -9.5133978 -0.160216E-06  0.192E-03    7.50      23.3  T
  11     -9.5133978 -0.895565E-08  0.669E-04    7.50      66.8  T
  12     -9.5133979 -0.120374E-08  0.327E-04    7.50     136.7  T
     SCC iter.                  ...        0 min,  0.001 sec
     gradient                   ...        0 min,  0.001 sec
 * total energy  :    -9.4306277 Eh     change       -0.4744068E-02 Eh
   gradient norm :     0.0499328 Eh/α   predicted    -0.1351128E-01 ( 184.80%)
   displ. norm   :     0.1042905 α      lambda       -0.5039097E-02
   maximum displ.:     0.0783222 α      in ANC's #3, #6, #7, ...

........................................................................
.............................. CYCLE    6 ..............................
........................................................................
   1     -9.5303723 -0.953037E+01  0.131E+00    7.79       0.0  T
   2     -9.5294330  0.939358E-03  0.919E-01    7.81       1.0  T
   3     -9.4930378  0.363952E-01  0.269E+00    7.61       1.0  T
   4     -9.5189052 -0.258675E-01  0.153E+00    7.75       1.0  T
   5     -9.5228556 -0.395035E-02  0.125E+00    7.75       1.0  T
   6     -9.5307442 -0.788858E-02  0.127E-01    7.79       1.0  T
   7     -9.5306685  0.756875E-04  0.183E-01    7.80       1.0  T
   8     -9.5308064 -0.137896E-03  0.722E-02    7.80       1.0  T
   9     -9.5308043  0.211641E-05  0.629E-02    7.79       1.0  T
  10     -9.5308158 -0.115209E-04  0.695E-03    7.79       6.4  T
  11     -9.5308157  0.556866E-07  0.647E-03    7.79       6.9  T
  12     -9.5308159 -0.152652E-06  0.131E-03    7.80      34.0  T
  13     -9.5308159 -0.603264E-08  0.592E-04    7.80      75.6  T
  14     -9.5308159 -0.151650E-08  0.160E-04    7.80     279.1  T
     SCC iter.                  ...        0 min,  0.001 sec
     gradient                   ...        0 min,  0.001 sec
 * total energy  :    -9.4337217 Eh     change       -0.3093923E-02 Eh
   gradient norm :     0.0133919 Eh/α   predicted    -0.2546952E-02 ( -17.68%)
   displ. norm   :     0.0553461 α      lambda       -0.6040851E-03
   maximum displ.:     0.0491873 α      in ANC's #3, #1, #2, ...

........................................................................
.............................. CYCLE    7 ..............................
........................................................................
   1     -9.5277938 -0.952779E+01  0.179E+00    7.62       0.0  T
   2     -9.4298603  0.979335E-01  0.393E+00    7.41       1.0  T
   3     -9.5138717 -0.840114E-01  0.198E+00    7.62       1.0  T
   4     -9.4975325  0.163392E-01  0.262E+00    7.49       1.0  T
   5     -9.5326878 -0.351553E-01  0.420E-01    7.66       1.0  T
   6     -9.5326094  0.784320E-04  0.380E-01    7.65       1.0  T
   7     -9.5326831 -0.737437E-04  0.343E-01    7.65       1.0  T
   8     -9.5328577 -0.174603E-03  0.179E-01    7.66       1.0  T
   9     -9.5327819  0.758288E-04  0.227E-01    7.66       1.0  T
  10     -9.5329629 -0.180984E-03  0.764E-02    7.65       1.0  T
  11     -9.5329845 -0.216400E-04  0.215E-02    7.66       2.1  T
  12     -9.5329860 -0.144253E-05  0.101E-02    7.66       4.4  T
  13     -9.5329864 -0.385891E-06  0.349E-03    7.66      12.8  T
  14     -9.5329864 -0.417509E-07  0.168E-03    7.66      26.5  T
  15     -9.5329864 -0.121419E-07  0.516E-05    7.66     866.7  T
  16     -9.5329864  0.442419E-10  0.114E-04    7.66     394.0  T
     SCC iter.                  ...        0 min,  0.001 sec
     gradient                   ...        0 min,  0.001 sec
 * total energy  :    -9.4343079 Eh     change       -0.5862742E-03 Eh
   gradient norm :     0.0316748 Eh/α   predicted    -0.3029668E-03 ( -48.32%)
   displ. norm   :     0.9725347 α      lambda       -0.1052028E-01
   maximum displ.:     0.8335472 α      in ANC's #3, #1, #2, ...

........................................................................
.............................. CYCLE    8 ..............................
........................................................................
   1     -9.2562747 -0.925627E+01  0.991E+00    0.44       0.0  T
   2     -8.9040000  0.352275E+00  0.105E+01    2.16       1.0  T
   3     -9.4837989 -0.579799E+00  0.450E+00    0.56       1.0  T
   4     -9.5175142 -0.337153E-01  0.211E+00    0.67       1.0  T
   5     -9.5292098 -0.116956E-01  0.114E+00    0.92       1.0  T
   6     -9.5321786 -0.296881E-02  0.524E-01    0.96       1.0  T
   7     -9.5321565  0.221349E-04  0.271E-01    1.02       1.0  T
   8     -9.5324197 -0.263265E-03  0.721E-02    0.98       1.0  T
   9     -9.5324347 -0.149936E-04  0.194E-02    0.97       2.3  T
  10     -9.5324347  0.232766E-07  0.796E-03    0.97       5.6  T
  11     -9.5324349 -0.173933E-06  0.127E-03    0.97      35.3  T
  12     -9.5324349 -0.952424E-09  0.146E-04    0.97     307.0  T
  13     -9.5324349  0.469651E-10  0.146E-04    0.97     306.4  T
     SCC iter.                  ...        0 min,  0.001 sec
     gradient                   ...        0 min,  0.001 sec
 * total energy  :    -9.1509970 Eh     change        0.2833109E+00 Eh
   gradient norm :     1.2503688 Eh/α   predicted    -0.1023543E-01 (-103.61%)
   displ. norm   :     0.4936503 α      lambda       -0.5830408E+00
   maximum displ.:     0.3486226 α      in ANC's #3, #6, #1, ...

........................................................................
.............................. CYCLE    9 ..............................
........................................................................
   1     -9.3001669 -0.930017E+01  0.689E+00    3.78       0.0  T
   2     -8.9688389  0.331328E+00  0.863E+00    2.75       1.0  T
   3     -9.4830671 -0.514228E+00  0.254E+00    3.46       1.0  T
   4     -9.4848206 -0.175350E-02  0.179E+00    3.63       1.0  T
   5     -9.4537263  0.310943E-01  0.249E+00    3.44       1.0  T
   6     -9.4896410 -0.359147E-01  0.492E-01    3.59       1.0  T
   7     -9.4898260 -0.184974E-03  0.427E-01    3.61       1.0  T
   8     -9.4897455  0.804825E-04  0.380E-01    3.59       1.0  T
   9     -9.4901785 -0.432971E-03  0.145E-01    3.60       1.0  T
  10     -9.4902211 -0.426410E-04  0.652E-02    3.59       1.0  T
  11     -9.4902233 -0.223392E-05  0.208E-02    3.59       2.2  T
  12     -9.4902231  0.198220E-06  0.184E-02    3.59       2.4  T
  13     -9.4902240 -0.898966E-06  0.364E-03    3.59      12.3  T
  14     -9.4902241 -0.284011E-07  0.165E-03    3.59      27.1  T
  15     -9.4902241 -0.810251E-08  0.140E-04    3.59     318.7  T
  16     -9.4902241 -0.591101E-10  0.119E-05    3.59    3753.5  T
     SCC iter.                  ...        0 min,  0.001 sec
     gradient                   ...        0 min,  0.001 sec
 * total energy  :    -9.3970177 Eh     change       -0.2460207E+00 Eh
   gradient norm :     0.1654708 Eh/α   predicted    -0.3625611E+00 (  47.37%)
   displ. norm   :     0.5209025 α      lambda       -0.6330375E-01
   maximum displ.:     0.3449243 α      in ANC's #3, #2, #6, ...

........................................................................
.............................. CYCLE   10 ..............................
........................................................................
   1     -9.4740527 -0.947405E+01  0.562E+00    6.51       0.0  T
   2     -9.3394295  0.134623E+00  0.558E+00    6.01       1.0  T
   3     -9.4517307 -0.112301E+00  0.418E+00    6.05       1.0  T
   4     -9.5182303 -0.664996E-01  0.264E+00    6.43       1.0  T
   5     -9.5271908 -0.896046E-02  0.210E+00    6.33       1.0  T
   6     -9.5257272  0.146355E-02  0.188E+00    6.40       1.0  T
   7     -9.5404365 -0.147093E-01  0.399E-01    6.32       1.0  T
   8     -9.5398761  0.560337E-03  0.535E-01    6.31       1.0  T
   9     -9.5407281 -0.851972E-03  0.130E-01    6.29       1.0  T
  10     -9.5407218  0.630409E-05  0.133E-01    6.29       1.0  T
  11     -9.5407583 -0.364681E-04  0.841E-02    6.30       1.0  T
  12     -9.5407781 -0.198508E-04  0.744E-03    6.30       6.0  T
  13     -9.5407783 -0.134306E-06  0.298E-03    6.30      15.0  T
  14     -9.5407782  0.296185E-07  0.397E-03    6.30      11.3  T
  15     -9.5407783 -0.345412E-07  0.142E-03    6.30      31.5  T
  16     -9.5407783 -0.581148E-08  0.135E-04    6.30     331.0  T
  17     -9.5407783  0.991562E-11  0.699E-05    6.30     640.1  T
     SCC iter.                  ...        0 min,  0.001 sec
     gradient                   ...        0 min,  0.001 sec
 * total energy  :    -9.4328790 Eh     change       -0.3586126E-01 Eh
   gradient norm :     0.0830693 Eh/α   predicted    -0.4024033E-01 (  12.21%)
   displ. norm   :     0.1699310 α      lambda       -0.6908868E-02
   maximum displ.:     0.1099233 α      in ANC's #3, #4, #1, ...

........................................................................
.............................. CYCLE   11 ..............................
........................................................................
   1     -9.5463616 -0.954636E+01  0.130E+00    7.33       0.0  T
   2     -9.5287891  0.175726E-01  0.212E+00    7.27       1.0  T
   3     -9.5286961  0.929508E-04  0.228E+00    7.24       1.0  T
   4     -9.5478812 -0.191851E-01  0.599E-01    7.26       1.0  T
   5     -9.5482188 -0.337555E-03  0.583E-01    7.29       1.0  T
   6     -9.5487055 -0.486754E-03  0.421E-01    7.28       1.0  T
   7     -9.5491400 -0.434441E-03  0.234E-01    7.28       1.0  T
   8     -9.5493333 -0.193311E-03  0.216E-02    7.28       2.1  T
   9     -9.5493342 -0.892385E-06  0.929E-03    7.28       4.8  T
  10     -9.5493343 -0.113170E-06  0.540E-03    7.28       8.3  T
  11     -9.5493343 -0.741282E-07  0.244E-03    7.28      18.3  T
  12     -9.5493344 -0.183009E-07  0.163E-04    7.28     273.9  T
  13     -9.5493344 -0.327436E-10  0.861E-05    7.28     519.2  T
     SCC iter.                  ...        0 min,  0.001 sec
     gradient                   ...        0 min,  0.001 sec
 * total energy  :    -9.4363958 Eh     change       -0.3516783E-02 Eh
   gradient norm :     0.0574093 Eh/α   predicted    -0.3554184E-02 (   1.06%)
   displ. norm   :     0.1120356 α      lambda       -0.3050124E-02
   maximum displ.:     0.0824802 α      in ANC's #2, #4, #1, ...

........................................................................
.............................. CYCLE   12 ..............................
........................................................................
   1     -9.5402645 -0.954026E+01  0.141E+00    6.60       0.0  T
   2     -9.5043326  0.359319E-01  0.260E+00    6.64       1.0  T
   3     -9.5222128 -0.178802E-01  0.244E+00    6.62       1.0  T
   4     -9.5318717 -0.965891E-02  0.165E+00    6.61       1.0  T
   5     -9.5409238 -0.905201E-02  0.955E-01    6.65       1.0  T
   6     -9.5403167  0.607014E-03  0.101E+00    6.64       1.0  T
   7     -9.5414666 -0.114985E-02  0.801E-01    6.64       1.0  T
   8     -9.5433849 -0.191836E-02  0.619E-02    6.63       1.0  T
   9     -9.5433854 -0.487333E-06  0.621E-02    6.63       1.0  T
  10     -9.5434003 -0.148268E-04  0.152E-02    6.63       2.9  T
  11     -9.5434007 -0.457465E-06  0.726E-03    6.63       6.2  T
  12     -9.5434008 -0.126390E-06  0.411E-03    6.63      10.9  T
  13     -9.5434009 -0.402978E-07  0.845E-04    6.63      52.9  T
  14     -9.5434009 -0.132746E-08  0.578E-04    6.63      77.3  T
     SCC iter.                  ...        0 min,  0.001 sec
     gradient                   ...        0 min,  0.001 sec
 * total energy  :    -9.4384019 Eh     change       -0.2006113E-02 Eh
   gradient norm :     0.0324323 Eh/α   predicted    -0.1544204E-02 ( -23.03%)
   displ. norm   :     0.1188415 α      lambda       -0.1694432E-02
   maximum displ.:     0.0897624 α      in ANC's #2, #1, #3, ...

........................................................................
.............................. CYCLE   13 ..............................
........................................................................
   1     -9.5293118 -0.952931E+01  0.217E+00    5.89       0.0  T
   2     -9.4317619  0.975499E-01  0.404E+00    5.85       1.0  T
   3     -9.5198439 -0.880820E-01  0.227E+00    5.91       1.0  T
   4     -9.5260851 -0.624127E-02  0.169E+00    5.87       1.0  T
   5     -9.5370297 -0.109446E-01  0.103E+00    5.93       1.0  T
   6     -9.5372047 -0.174969E-03  0.981E-01    5.91       1.0  T
   7     -9.5383549 -0.115014E-02  0.728E-01    5.91       1.0  T
   8     -9.5396361 -0.128124E-02  0.322E-01    5.89       1.0  T
   9     -9.5399362 -0.300119E-03  0.913E-02    5.89       1.0  T
  10     -9.5399234  0.128357E-04  0.116E-01    5.89       1.0  T
  11     -9.5399573 -0.339478E-04  0.362E-02    5.89       1.2  T
  12     -9.5399607 -0.335035E-05  0.299E-03    5.89      15.0  T
  13     -9.5399606  0.329541E-07  0.416E-03    5.89      10.7  T
  14     -9.5399607 -0.488232E-07  0.826E-04    5.89      54.1  T
  15     -9.5399607 -0.140870E-08  0.427E-04    5.89     104.8  T
     SCC iter.                  ...        0 min,  0.001 sec
     gradient                   ...        0 min,  0.001 sec
 * total energy  :    -9.4395667 Eh     change       -0.1164776E-02 Eh
   gradient norm :     0.0204459 Eh/α   predicted    -0.8591798E-03 ( -26.24%)
   displ. norm   :     0.0988025 α      lambda       -0.1023441E-02
   maximum displ.:     0.0554584 α      in ANC's #2, #1, #5, ...

........................................................................
.............................. CYCLE   14 ..............................
........................................................................
   1     -9.5342063 -0.953421E+01  0.150E+00    5.32       0.0  T
   2     -9.4391489  0.950575E-01  0.419E+00    5.28       1.0  T
   3     -9.5320989 -0.929500E-01  0.143E+00    5.35       1.0  T
   4     -9.5325951 -0.496272E-03  0.126E+00    5.30       1.0  T
   5     -9.5389872 -0.639203E-02  0.489E-01    5.35       1.0  T
   6     -9.5392579 -0.270767E-03  0.403E-01    5.34       1.0  T
   7     -9.5397459 -0.487977E-03  0.475E-02    5.32       1.0  T
   8     -9.5397482 -0.226188E-05  0.423E-02    5.31       1.1  T
   9     -9.5397508 -0.265674E-05  0.231E-02    5.31       1.9  T
  10     -9.5397511 -0.222953E-06  0.202E-02    5.31       2.2  T
  11     -9.5397522 -0.111453E-05  0.807E-03    5.31       5.5  T
  12     -9.5397523 -0.892547E-07  0.392E-03    5.31      11.4  T
  13     -9.5397523 -0.414209E-07  0.392E-04    5.31     114.2  T
  14     -9.5397523 -0.359897E-09  0.488E-05    5.31     917.3  T
     SCC iter.                  ...        0 min,  0.001 sec
     gradient                   ...        0 min,  0.001 sec
 * total energy  :    -9.4402367 Eh     change       -0.6700841E-03 Eh
   gradient norm :     0.0249477 Eh/α   predicted    -0.5167150E-03 ( -22.89%)
   displ. norm   :     0.0669220 α      lambda       -0.6436417E-03
   maximum displ.:     0.0481698 α      in ANC's #4, #5, #8, ...

........................................................................
.............................. CYCLE   15 ..............................
........................................................................
   1     -9.5397502 -0.953975E+01  0.636E-01    5.16       0.0  T
   2     -9.5019028  0.378473E-01  0.288E+00    5.17       1.0  T
   3     -9.5397192 -0.378164E-01  0.578E-01    5.19       1.0  T
   4     -9.5394386  0.280624E-03  0.586E-01    5.16       1.0  T
   5     -9.5405157 -0.107718E-02  0.318E-01    5.18       1.0  T
   6     -9.5405346 -0.188712E-04  0.302E-01    5.17       1.0  T
   7     -9.5407520 -0.217337E-03  0.146E-01    5.17       1.0  T
   8     -9.5407981 -0.461336E-04  0.863E-02    5.17       1.0  T
   9     -9.5408220 -0.239290E-04  0.149E-02    5.16       3.0  T
  10     -9.5408227 -0.691134E-06  0.504E-03    5.16       8.9  T
  11     -9.5408228 -0.569277E-07  0.117E-03    5.16      38.1  T
  12     -9.5408228 -0.172536E-08  0.907E-04    5.16      49.3  T
  13     -9.5408228 -0.211734E-08  0.625E-05    5.16     715.6  T
     SCC iter.                  ...        0 min,  0.001 sec
     gradient                   ...        0 min,  0.001 sec
 * total energy  :    -9.4407112 Eh     change       -0.4744414E-03 Eh
   gradient norm :     0.0275602 Eh/α   predicted    -0.3232620E-03 ( -31.86%)
   displ. norm   :     0.0882350 α      lambda       -0.7646048E-03
   maximum displ.:     0.0731623 α      in ANC's #4, #8, #9, ...

........................................................................
.............................. CYCLE   16 ..............................
........................................................................
   1     -9.5419224 -0.954192E+01  0.546E-01    5.16       0.0  T
   2     -9.5290416  0.128808E-01  0.160E+00    5.18       1.0  T
   3     -9.5419135 -0.128718E-01  0.464E-01    5.18       1.0  T
   4     -9.5419410 -0.275888E-04  0.401E-01    5.15       1.0  T
   5     -9.5425340 -0.592949E-03  0.198E-01    5.17       1.0  T
   6     -9.5425389 -0.494948E-05  0.190E-01    5.17       1.0  T
   7     -9.5426316 -0.926065E-04  0.729E-02    5.17       1.0  T
   8     -9.5426422 -0.106262E-04  0.485E-02    5.16       1.0  T
   9     -9.5426497 -0.750279E-05  0.666E-03    5.16       6.7  T
  10     -9.5426498 -0.973354E-07  0.444E-03    5.16      10.1  T
  11     -9.5426498 -0.484849E-07  0.173E-04    5.16     258.1  T
  12     -9.5426498  0.472387E-10  0.204E-04    5.16     219.6  T
     SCC iter.                  ...        0 min,  0.001 sec
     gradient                   ...        0 min,  0.001 sec
 * total energy  :    -9.4412811 Eh     change       -0.5699647E-03 Eh
   gradient norm :     0.0312039 Eh/α   predicted    -0.3852784E-03 ( -32.40%)
   displ. norm   :     0.1266777 α      lambda       -0.9574433E-03
   maximum displ.:     0.0994806 α      in ANC's #4, #8, #1, ...

........................................................................
.............................. CYCLE   17 ..............................
........................................................................
   1     -9.5427937 -0.954279E+01  0.526E-01    5.21       0.0  T
   2     -9.5403889  0.240480E-02  0.664E-01    5.25       1.0  T
   3     -9.5423644 -0.197548E-02  0.435E-01    5.23       1.0  T
   4     -9.5430571 -0.692708E-03  0.142E-01    5.22       1.0  T
   5     -9.5431651 -0.108076E-03  0.645E-02    5.23       1.0  T
   6     -9.5431656 -0.452039E-06  0.584E-02    5.23       1.0  T
   7     -9.5431724 -0.678138E-05  0.137E-02    5.23       3.3  T
   8     -9.5431727 -0.346109E-06  0.952E-03    5.23       4.7  T
   9     -9.5431730 -0.278398E-06  0.661E-04    5.23      67.7  T
  10     -9.5431730 -0.923112E-09  0.206E-04    5.23     217.4  T
     SCC iter.                  ...        0 min,  0.001 sec
     gradient                   ...        0 min,  0.001 sec
 * total energy  :    -9.4419617 Eh     change       -0.6806016E-03 Eh
   gradient norm :     0.0323072 Eh/α   predicted    -0.4864034E-03 ( -28.53%)
   displ. norm   :     0.1102004 α      lambda       -0.7989637E-03
   maximum displ.:     0.0679114 α      in ANC's #4, #5, #8, ...

........................................................................
.............................. CYCLE   18 ..............................
........................................................................
   1     -9.5429717 -0.954297E+01  0.413E-01    5.20       0.0  T
   2     -9.5427420  0.229684E-03  0.285E-01    5.22       1.0  T
   3     -9.5420193  0.722657E-03  0.412E-01    5.20       1.0  T
   4     -9.5430426 -0.102324E-02  0.269E-02    5.21       1.7  T
   5     -9.5430431 -0.554516E-06  0.156E-02    5.21       2.9  T
   6     -9.5430431 -0.651475E-08  0.618E-03    5.21       7.2  T
   7     -9.5430431 -0.197443E-07  0.439E-03    5.21      10.2  T
   8     -9.5430433 -0.115090E-06  0.150E-03    5.21      29.7  T
   9     -9.5430433 -0.576298E-08  0.175E-04    5.21     255.9  T
  10     -9.5430433 -0.146567E-10  0.478E-05    5.21     934.8  T
     SCC iter.                  ...        0 min,  0.001 sec
     gradient                   ...        0 min,  0.001 sec
 * total energy  :    -9.4425126 Eh     change       -0.5508797E-03 Eh
   gradient norm :     0.0279902 Eh/α   predicted    -0.4043310E-03 ( -26.60%)
   displ. norm   :     0.0645449 α      lambda       -0.4933486E-03
   maximum displ.:     0.0452492 α      in ANC's #5, #1, #8, ...

........................................................................
.............................. CYCLE   19 ..............................
........................................................................
   1     -9.5439004 -0.954390E+01  0.268E-01    5.10       0.0  T
   2     -9.5439002  0.140036E-06  0.148E-01    5.11       1.0  T
   3     -9.5437994  0.100869E-03  0.153E-01    5.11       1.0  T
   4     -9.5438933 -0.939501E-04  0.660E-02    5.11       1.0  T
   5     -9.5439220 -0.286783E-04  0.201E-02    5.11       2.2  T
   6     -9.5439243 -0.228972E-05  0.603E-03    5.11       7.4  T
   7     -9.5439243  0.397868E-10  0.110E-03    5.11      40.6  T
   8     -9.5439243 -0.379544E-08  0.521E-04    5.11      85.9  T
   9     -9.5439243 -0.605207E-09  0.840E-05    5.11     532.6  T
     SCC iter.                  ...        0 min,  0.001 sec
     gradient                   ...        0 min,  0.001 sec
 * total energy  :    -9.4428472 Eh     change       -0.3345509E-03 Eh
   gradient norm :     0.0211952 Eh/α   predicted    -0.2477031E-03 ( -25.96%)
   displ. norm   :     0.0424626 α      lambda       -0.2517421E-03
   maximum displ.:     0.0277138 α      in ANC's #5, #8, #1, ...

........................................................................
.............................. CYCLE   20 ..............................
........................................................................
   1     -9.5444640 -0.954446E+01  0.235E-01    4.96       0.0  T
   2     -9.5444574  0.660428E-05  0.139E-01    4.97       1.0  T
   3     -9.5443922  0.652496E-04  0.149E-01    4.97       1.0  T
   4     -9.5444622 -0.700706E-04  0.769E-02    4.98       1.0  T
   5     -9.5445001 -0.378780E-04  0.262E-02    4.97       1.7  T
   6     -9.5445044 -0.430319E-05  0.549E-03    4.97       8.1  T
   7     -9.5445045 -0.295813E-07  0.113E-03    4.97      39.6  T
   8     -9.5445045 -0.450695E-08  0.449E-04    4.97      99.6  T
   9     -9.5445045 -0.538652E-09  0.972E-05    4.97     460.1  T
     SCC iter.                  ...        0 min,  0.001 sec
     gradient                   ...        0 min,  0.001 sec
 * total energy  :    -9.4430281 Eh     change       -0.1808842E-03 Eh
   gradient norm :     0.0159531 Eh/α   predicted    -0.1260994E-03 ( -30.29%)
   displ. norm   :     0.0303104 α      lambda       -0.2145641E-03
   maximum displ.:     0.0136884 α      in ANC's #5, #3, #4, ...
 * RMSD in coord.:     0.9391501 α      energy gain  -0.2065841E+00 Eh

generating ANC from model Hessian ...
Using Lindh-Hessian (1995)
 Shifting diagonal of input Hessian by    0.0000000000000000     
 Lowest  eigenvalues of input Hessian
   -0.000000   -0.000000   -0.000000   -0.000000    0.000000    0.000000
    0.178673    0.303896    0.411075    0.589466    0.806290    0.868971
    1.268126    1.419617    2.084407
 Highest eigenvalues
    0.589466    0.806290    0.868971    1.268126    1.419617    2.084407


........................................................................
.............................. CYCLE   21 ..............................
........................................................................
   1     -9.5457327 -0.954573E+01  0.202E-01    4.85       0.0  T
   2     -9.5457042  0.285366E-04  0.152E-01    4.85       1.0  T
   3     -9.5457305 -0.263195E-04  0.110E-01    4.85       1.0  T
   4     -9.5457425 -0.120575E-04  0.854E-02    4.86       1.0  T
   5     -9.5457864 -0.438760E-04  0.233E-02    4.85       1.9  T
   6     -9.5457895 -0.311921E-05  0.570E-03    4.85       7.8  T
   7     -9.5457896 -0.261020E-07  0.600E-04    4.85      74.5  T
   8     -9.5457896 -0.155309E-09  0.355E-04    4.85     126.1  T
     SCC iter.                  ...        0 min,  0.001 sec
     gradient                   ...        0 min,  0.001 sec
 * total energy  :    -9.4431714 Eh     change       -0.1433790E-03 Eh
   gradient norm :     0.0116173 Eh/α   predicted     0.0000000E+00 (-100.00%)
   displ. norm   :     0.0203357 α      lambda       -0.2068509E-03
   maximum displ.:     0.0113431 α      in ANC's #3, #5, #1, ...

........................................................................
.............................. CYCLE   22 ..............................
........................................................................
   1     -9.5456563 -0.954566E+01  0.149E-01    4.84       0.0  T
   2     -9.5456256  0.306541E-04  0.110E-01    4.84       1.0  T
   3     -9.5456277 -0.205896E-05  0.105E-01    4.84       1.0  T
   4     -9.5456603 -0.326140E-04  0.556E-02    4.85       1.0  T
   5     -9.5456808 -0.205225E-04  0.105E-02    4.84       4.3  T
   6     -9.5456811 -0.278890E-06  0.561E-03    4.84       8.0  T
   7     -9.5456811 -0.684947E-07  0.686E-04    4.84      65.1  T
   8     -9.5456811 -0.697915E-09  0.298E-04    4.84     149.9  T
     SCC iter.                  ...        0 min,  0.001 sec
     gradient                   ...        0 min,  0.001 sec
 * total energy  :    -9.4433517 Eh     change       -0.1803053E-03 Eh
   gradient norm :     0.0089735 Eh/α   predicted    -0.1034680E-03 ( -42.62%)
   displ. norm   :     0.0764974 α      lambda       -0.6263394E-03
   maximum displ.:     0.0410951 α      in ANC's #3, #5, #4, ...

........................................................................
.............................. CYCLE   23 ..............................
........................................................................
   1     -9.5455436 -0.954554E+01  0.521E-01    4.90       0.0  T
   2     -9.5455601 -0.165510E-04  0.311E-01    4.88       1.0  T
   3     -9.5453317  0.228411E-03  0.235E-01    4.90       1.0  T
   4     -9.5455625 -0.230780E-03  0.106E-01    4.90       1.0  T
   5     -9.5456459 -0.833854E-04  0.218E-02    4.89       2.0  T
   6     -9.5456470 -0.112011E-05  0.844E-03    4.89       5.3  T
   7     -9.5456471 -0.453857E-07  0.180E-03    4.89      24.8  T
   8     -9.5456471 -0.214397E-08  0.811E-04    4.89      55.1  T
   9     -9.5456471 -0.237465E-09  0.141E-04    4.89     317.1  T
     SCC iter.                  ...        0 min,  0.001 sec
     gradient                   ...        0 min,  0.001 sec
 * total energy  :    -9.4437002 Eh     change       -0.3484176E-03 Eh
   gradient norm :     0.0109316 Eh/α   predicted    -0.3150000E-03 (  -9.59%)
   displ. norm   :     0.0259978 α      lambda       -0.1442487E-03
   maximum displ.:     0.0207452 α      in ANC's #4, #3, #5, ...

........................................................................
.............................. CYCLE   24 ..............................
........................................................................
   1     -9.5455796 -0.954558E+01  0.189E-01    5.00       0.0  T
   2     -9.5455771  0.248678E-05  0.105E-01    4.99       1.0  T
   3     -9.5454638  0.113270E-03  0.131E-01    5.01       1.0  T
   4     -9.5455847 -0.120869E-03  0.155E-02    5.00       2.9  T
   5     -9.5455857 -0.102299E-05  0.618E-03    4.99       7.2  T
   6     -9.5455857 -0.172572E-07  0.390E-03    4.99      11.5  T
   7     -9.5455858 -0.500001E-07  0.446E-04    4.99     100.2  T
   8     -9.5455858 -0.123219E-09  0.131E-04    4.99     341.2  T
     SCC iter.                  ...        0 min,  0.001 sec
     gradient                   ...        0 min,  0.001 sec
 * total energy  :    -9.4438350 Eh     change       -0.1348564E-03 Eh
   gradient norm :     0.0112299 Eh/α   predicted    -0.7217504E-04 ( -46.48%)
   displ. norm   :     0.2365291 α      lambda       -0.1420723E-02
   maximum displ.:     0.1938774 α      in ANC's #4, #3, #5, ...

........................................................................
.............................. CYCLE   25 ..............................
........................................................................
   1     -9.5423469 -0.954235E+01  0.177E+00    5.85       0.0  T
   2     -9.5389601  0.338686E-02  0.111E+00    5.74       1.0  T
   3     -9.5268824  0.120777E-01  0.164E+00    5.92       1.0  T
   4     -9.5438120 -0.169296E-01  0.142E-01    5.81       1.0  T
   5     -9.5438441 -0.321517E-04  0.744E-02    5.81       1.0  T
   6     -9.5438560 -0.118420E-04  0.426E-02    5.81       1.0  T
   7     -9.5438594 -0.338357E-05  0.559E-03    5.81       8.0  T
   8     -9.5438594 -0.604629E-07  0.269E-03    5.81      16.6  T
   9     -9.5438594 -0.314532E-08  0.252E-04    5.81     177.8  T
  10     -9.5438594 -0.112887E-10  0.879E-05    5.81     508.9  T
     SCC iter.                  ...        0 min,  0.001 sec
     gradient                   ...        0 min,  0.001 sec
 * total energy  :    -9.4445587 Eh     change       -0.7236697E-03 Eh
   gradient norm :     0.0195150 Eh/α   predicted    -0.7501036E-03 (   3.65%)
   displ. norm   :     0.0252289 α      lambda       -0.3597021E-03
   maximum displ.:     0.0149807 α      in ANC's #5, #3, #6, ...

........................................................................
.............................. CYCLE   26 ..............................
........................................................................
   1     -9.5453732 -0.954537E+01  0.164E-01    5.95       0.0  T
   2     -9.5453442  0.290342E-04  0.120E-01    5.94       1.0  T
   3     -9.5452775  0.666270E-04  0.134E-01    5.96       1.0  T
   4     -9.5453894 -0.111858E-03  0.252E-02    5.94       1.8  T
   5     -9.5453909 -0.151964E-05  0.103E-02    5.95       4.3  T
   6     -9.5453911 -0.193307E-06  0.660E-03    5.94       6.8  T
   7     -9.5453912 -0.102748E-06  0.692E-04    5.95      64.6  T
   8     -9.5453912 -0.371561E-10  0.185E-04    5.95     241.8  T
     SCC iter.                  ...        0 min,  0.001 sec
     gradient                   ...        0 min,  0.001 sec
 * total energy  :    -9.4448548 Eh     change       -0.2961567E-03 Eh
   gradient norm :     0.0162649 Eh/α   predicted    -0.1799656E-03 ( -39.23%)
   displ. norm   :     0.0885527 α      lambda       -0.9555999E-03
   maximum displ.:     0.0532384 α      in ANC's #6, #4, #7, ...

........................................................................
.............................. CYCLE   27 ..............................
........................................................................
   1     -9.5469497 -0.954695E+01  0.698E-01    6.41       0.0  T
   2     -9.5433044  0.364529E-02  0.800E-01    6.32       1.0  T
   3     -9.5472293 -0.392491E-02  0.451E-01    6.40       1.0  T
   4     -9.5480329 -0.803623E-03  0.939E-02    6.39       1.0  T
   5     -9.5480430 -0.101164E-04  0.400E-02    6.38       1.1  T
   6     -9.5480428  0.196703E-06  0.145E-02    6.38       3.1  T
   7     -9.5480441 -0.130617E-05  0.248E-03    6.38      18.0  T
   8     -9.5480441 -0.867379E-08  0.110E-03    6.38      40.6  T
   9     -9.5480441 -0.295948E-09  0.163E-04    6.38     273.5  T
  10     -9.5480441 -0.277680E-10  0.323E-05    6.38    1385.2  T
     SCC iter.                  ...        0 min,  0.001 sec
     gradient                   ...        0 min,  0.001 sec
 * total energy  :    -9.4453816 Eh     change       -0.5267630E-03 Eh
   gradient norm :     0.0095589 Eh/α   predicted    -0.4815471E-03 (  -8.58%)
   displ. norm   :     0.0270852 α      lambda       -0.1507592E-03
   maximum displ.:     0.0191011 α      in ANC's #4, #1, #2, ...

........................................................................
.............................. CYCLE   28 ..............................
........................................................................
   1     -9.5482695 -0.954827E+01  0.209E-01    6.41       0.0  T
   2     -9.5482887 -0.191474E-04  0.108E-01    6.41       1.0  T
   3     -9.5482838  0.490906E-05  0.597E-02    6.41       1.0  T
   4     -9.5482842 -0.478896E-06  0.381E-02    6.41       1.2  T
   5     -9.5482924 -0.814885E-05  0.162E-02    6.41       2.8  T
   6     -9.5482942 -0.185142E-05  0.297E-03    6.41      15.1  T
   7     -9.5482943 -0.128867E-08  0.470E-04    6.41      95.2  T
   8     -9.5482943 -0.137696E-09  0.206E-04    6.41     217.1  T
     SCC iter.                  ...        0 min,  0.001 sec
     gradient                   ...        0 min,  0.001 sec
 * total energy  :    -9.4454697 Eh     change       -0.8804545E-04 Eh
   gradient norm :     0.0050738 Eh/α   predicted    -0.7543614E-04 ( -14.32%)
   displ. norm   :     0.0276721 α      lambda       -0.5476607E-04
   maximum displ.:     0.0156962 α      in ANC's #4, #3, #1, ...

........................................................................
.............................. CYCLE   29 ..............................
........................................................................
   1     -9.5474018 -0.954740E+01  0.187E-01    6.39       0.0  T
   2     -9.5472439  0.157912E-03  0.174E-01    6.39       1.0  T
   3     -9.5473572 -0.113249E-03  0.140E-01    6.39       1.0  T
   4     -9.5474530 -0.958510E-04  0.240E-02    6.40       1.9  T
   5     -9.5474542 -0.114686E-05  0.122E-02    6.40       3.7  T
   6     -9.5474546 -0.397992E-06  0.673E-03    6.40       6.6  T
   7     -9.5474547 -0.845409E-07  0.557E-04    6.40      80.2  T
   8     -9.5474547 -0.162519E-09  0.249E-04    6.40     179.7  T
     SCC iter.                  ...        0 min,  0.001 sec
     gradient                   ...        0 min,  0.001 sec
 * total energy  :    -9.4454959 Eh     change       -0.2628110E-04 Eh
   gradient norm :     0.0035908 Eh/α   predicted    -0.2740489E-04 (   4.28%)
   displ. norm   :     0.0042273 α      lambda       -0.9445832E-05
   maximum displ.:     0.0025511 α      in ANC's #4, #6, #9, ...

........................................................................
.............................. CYCLE   30 ..............................
........................................................................
   1     -9.5474049 -0.954740E+01  0.355E-02    6.40       0.0  T
   2     -9.5474040  0.872736E-06  0.218E-02    6.40       2.1  T
   3     -9.5474017  0.237551E-05  0.280E-02    6.40       1.6  T
   4     -9.5474065 -0.480921E-05  0.642E-03    6.40       7.0  T
   5     -9.5474065 -0.309904E-07  0.183E-03    6.40      24.4  T
   6     -9.5474065 -0.111243E-07  0.967E-04    6.40      46.3  T
   7     -9.5474065 -0.116169E-08  0.101E-04    6.40     440.6  T
     SCC iter.                  ...        0 min,  0.001 sec
     gradient                   ...        0 min,  0.001 sec
 * total energy  :    -9.4455021 Eh     change       -0.6184802E-05 Eh
   gradient norm :     0.0013592 Eh/α   predicted    -0.4723019E-05 ( -23.64%)
   displ. norm   :     0.0060741 α      lambda       -0.3627230E-05
   maximum displ.:     0.0034564 α      in ANC's #4, #7, #2, ...

........................................................................
.............................. CYCLE   31 ..............................
........................................................................
   1     -9.5474464 -0.954745E+01  0.436E-02    6.40       0.0  T
   2     -9.5474386  0.780325E-05  0.391E-02    6.40       1.1  T
   3     -9.5474432 -0.464760E-05  0.337E-02    6.40       1.3  T
   4     -9.5474488 -0.558141E-05  0.608E-03    6.40       7.4  T
   5     -9.5474489 -0.117985E-06  0.297E-03    6.40      15.1  T
   6     -9.5474489 -0.270397E-07  0.148E-03    6.40      30.3  T
   7     -9.5474489 -0.248780E-08  0.135E-04    6.40     330.6  T
   8     -9.5474489 -0.795985E-11  0.504E-05    6.40     886.7  T
     SCC iter.                  ...        0 min,  0.001 sec
     gradient                   ...        0 min,  0.001 sec
 * total energy  :    -9.4455046 Eh     change       -0.2505016E-05 Eh
   gradient norm :     0.0011910 Eh/α   predicted    -0.1814216E-05 ( -27.58%)
   displ. norm   :     0.0022246 α      lambda       -0.8700559E-06
   maximum displ.:     0.0012440 α      in ANC's #2, #4, #5, ...

........................................................................
.............................. CYCLE   32 ..............................
........................................................................
   1     -9.5475078 -0.954751E+01  0.124E-02    6.40       0.0  T
   2     -9.5475077  0.152890E-06  0.814E-03    6.40       5.5  T
   3     -9.5475072  0.482692E-06  0.109E-02    6.40       4.1  T
   4     -9.5475079 -0.702406E-06  0.208E-03    6.40      21.5  T
   5     -9.5475079 -0.234713E-07  0.651E-04    6.40      68.7  T
   6     -9.5475079 -0.174319E-08  0.279E-04    6.40     160.3  T
     SCC iter.                  ...        0 min,  0.001 sec
     gradient                   ...        0 min,  0.001 sec
 * total energy  :    -9.4455056 Eh     change       -0.9695200E-06 Eh
   gradient norm :     0.0005283 Eh/α   predicted    -0.4336258E-06 ( -55.27%)
   displ. norm   :     0.0030178 α      lambda       -0.6358866E-06
   maximum displ.:     0.0026718 α      in ANC's #2, #5, #7, ...

   *** GEOMETRY OPTIMIZATION CONVERGED AFTER 32 ITERATIONS ***

------------------------------------------------------------------------
 total energy gain   :        -0.2090616 Eh     -131.1881 kcal/mol
 total RMSD          :         0.9216490 a0        0.4877 Å
 total power (kW/mol):       -17.1528484 (step)-5668.7244 (real)
------------------------------------------------------------------------

 ANCopt (total)                0 d,  0 h,  0 min,  0.097 sec
 optimizer setup                ...        0 min,  0.000 sec (  0.065%)
 model hessian                  ...        0 min,  0.000 sec (  0.154%)
 ANC generation                 ...        0 min,  0.000 sec (  0.128%)
 coordinate transformation      ...        0 min,  0.000 sec (  0.072%)
 single point calculation       ...        0 min,  0.094 sec ( 97.090%)
 optimization log               ...        0 min,  0.001 sec (  0.775%)
 hessian update                 ...        0 min,  0.000 sec (  0.067%)
 rational function              ...        0 min,  0.001 sec (  0.673%)

================
 final structure:
================
5
 xtb: 6.2.2 (9d81278992624c895f80dd42a50cac0aa55982e2)
C         0.93468612596981   -0.14764292540923   -0.60177586733735
N         0.08148304206398   -0.02966212417089    0.49645721206277
C        -0.36816062904789    0.79233839071201   -0.67169134641996
C        -0.61066676517604   -0.57847005394601   -0.71291253451812
H        -0.03734177380986   -0.03656328718587    1.48992253621266

 Bond Distances (Angstroems)
 ---------------------------
C1-N2=1.3957         C1-C3=1.6081         C1-C4=1.6081         N2-C1=1.3957         N2-C3=1.4975         N2-C4=1.4976         
N2-H5=1.0006         C3-C1=1.6081         C3-N2=1.4975         C3-C4=1.3927         C4-C1=1.6081         C4-N2=1.4976         
C4-C3=1.3927         H5-N2=1.0006         
 C  C  Rav=1.5363 sigma=0.1015  Rmin=1.3927  Rmax=1.6081     3
 N  H  Rav=1.0006 sigma=0.0000  Rmin=1.0006  Rmax=1.0006     1
 N  C  Rav=1.4636 sigma=0.0480  Rmin=1.3957  Rmax=1.4976     3

 selected bond angles (degree)
 --------------------
C3-C1-N2= 59.30                C4-C1-N2= 59.31                C4-C1-C3= 51.32                C3-N2-C1= 67.43                
C4-N2-C1= 67.43                C4-N2-C3= 55.42                H5-N2-C1=148.57                H5-N2-C3=137.96                
H5-N2-C4=138.11                N2-C3-C1= 53.27                C4-C3-C1= 64.34                C4-C3-N2= 62.29                
N2-C4-C1= 53.27                C3-C4-C1= 64.34                C3-C4-N2= 62.29                

 selected dihedral angles (degree)
 ---------------------------------
C3-N2-C1-C4=299.53            C4-N2-C1-C3= 60.47            H5-N2-C1-C3=210.44            H5-N2-C1-C4=149.97            
N2-C3-C1-C4= 73.43            C4-C3-C1-N2=286.57            C1-C3-N2-C4=282.61            C1-C3-N2-H5=156.77            
C4-C3-N2-C1= 77.39            C4-C3-N2-H5=234.15            N2-C4-C1-C3=286.57            C3-C4-C1-N2= 73.43            
C1-C4-N2-C3= 77.39            C1-C4-N2-H5=203.01            C3-C4-N2-C1=282.61            C3-C4-N2-H5=125.62            
C1-C4-C3-N2=299.81            N2-C4-C3-C1= 60.19            
           -------------------------------------------------
          |                Final Singlepoint                |
           -------------------------------------------------

          ...................................................
          :                      SETUP                      :
          :.................................................:
          :  # basis functions                  17          :
          :  # atomic orbitals                  17          :
          :  # shells                            9          :
          :  # electrons                        18          :
          :  max. iterations                   250          :
          :  Hamiltonian                  GFN2-xTB          :
          :  restarted?                      false          :
          :  GBSA solvation                  false          :
          :  PC potential                    false          :
          :  electronic temp.          300.0000000     K    :
          :  accuracy                    1.0000000          :
          :  -> integral cutoff          0.2500000E+02      :
          :  -> integral neglect         0.1000000E-07      :
          :  -> SCF convergence          0.1000000E-05 Eh   :
          :  -> wf. convergence          0.1000000E-03 e    :
          :  Broyden damping             0.4000000          :
          ...................................................

 iter      E             dE          RMSdq      gap      omega  full diag
   1     -9.5475079 -0.954751E+01  0.416E-05    6.40       0.0  T
   2     -9.5475079 -0.248690E-13  0.267E-05    6.40    1672.3  T
   3     -9.5475079  0.320277E-11  0.208E-05    6.40    2151.3  T

   *** convergence criteria satisfied after 3 iterations ***

         #    Occupation            Energy/Eh            Energy/eV
      -------------------------------------------------------------
         1        2.0000           -0.7413527             -20.1732
       ...           ...                  ...                  ...
         4        2.0000           -0.6001702             -16.3315
         5        2.0000           -0.5388606             -14.6631
         6        2.0000           -0.4706040             -12.8058
         7        2.0000           -0.4505921             -12.2612
         8        2.0000           -0.4261308             -11.5956
         9        1.0000           -0.4045346             -11.0079
        10        1.0000           -0.3796615             -10.3311 (HOMO)
        11                         -0.1444987              -3.9320 (LUMO)
        12                         -0.1439228              -3.9163
        13                         -0.1064052              -2.8954
        14                         -0.0896597              -2.4398
        15                          0.0849229               2.3109
       ...                                ...                  ...
        17                          0.3503358               9.5331
      -------------------------------------------------------------
                  HL-Gap            0.2351628 Eh            6.3991 eV
             Fermi-level           -0.3387064 Eh           -9.2167 eV

 transition dipole moment (au) for excitation:           9          10
     X       Y       Z   
   0.0574   0.3236   0.0097  total (au/Debye):    0.329   0.836
 dE (eV)             :    0.677
 oscillator strength :  0.25346E-02

 SCC (total)                   0 d,  0 h,  0 min,  0.003 sec
 SCC setup                      ...        0 min,  0.000 sec (  1.583%)
 Dispersion                     ...        0 min,  0.000 sec (  0.340%)
 integral evaluation            ...        0 min,  0.001 sec ( 30.224%)
 zeroth order Hamiltonian       ...        0 min,  0.000 sec (  0.407%)
 iterations                     ...        0 min,  0.000 sec ( 10.489%)
 molecular gradient             ...        0 min,  0.001 sec ( 31.741%)
 printout                       ...        0 min,  0.001 sec ( 25.031%)

         :::::::::::::::::::::::::::::::::::::::::::::::::::::
         ::                     SUMMARY                     ::
         :::::::::::::::::::::::::::::::::::::::::::::::::::::
         :: total energy              -9.445505592706 Eh    ::
         :: gradient norm              0.000531357268 Eh/a0 ::
         :: HOMO-LUMO gap              6.399104704941 eV    ::
         ::.................................................::
         :: SCC energy                -9.547507927547 Eh    ::
         :: -> isotropic ES           -0.009151971719 Eh    ::
         :: -> anisotropic ES          0.004469063910 Eh    ::
         :: -> anisotropic XC          0.001409184716 Eh    ::
         :: -> dispersion             -0.002049691510 Eh    ::
         :: repulsion energy           0.102002309779 Eh    ::
         :: add. restraining           0.000000000000 Eh    ::
         :::::::::::::::::::::::::::::::::::::::::::::::::::::

           ------------------------------------------------- 
          |                Numerical Hessian                |
           ------------------------------------------------- 
step length          :   0.00500
SCC accuracy         :   0.30000
Hessian scale factor :   1.00000
frozen atoms in %    :   0.00000    0
RMS gradient         :   0.00053
estimated CPU  time      0.00 min
estimated wall time      0.00 min

writing file <hessian>.

 projected vibrational frequencies (cm-1)
eigval :       -0.00    -0.00    -0.00     0.00     0.00     0.00
eigval :      331.08   626.63   684.22   717.68   822.43   913.36
eigval :     1232.76  1508.23  3525.34
           -------------------------------------------------
          |                Property Printout                |
           -------------------------------------------------

    * Orbital Energies and Occupations

         #    Occupation            Energy/Eh            Energy/eV
      -------------------------------------------------------------
         1        2.0000           -0.7413527             -20.1732
         2        2.0000           -0.6501505             -17.6915
         3        2.0000           -0.6235566             -16.9678
         4        2.0000           -0.6001702             -16.3315
         5        2.0000           -0.5388606             -14.6631
         6        2.0000           -0.4706039             -12.8058
         7        2.0000           -0.4505921             -12.2612
         8        2.0000           -0.4261307             -11.5956
         9        1.0000           -0.4045347             -11.0079
        10        1.0000           -0.3796615             -10.3311 (HOMO)
        11                         -0.1444987              -3.9320 (LUMO)
        12                         -0.1439228              -3.9163
        13                         -0.1064052              -2.8954
        14                         -0.0896597              -2.4398
        15                          0.0849230               2.3109
        16                          0.3421550               9.3105
        17                          0.3503357               9.5331
      -------------------------------------------------------------
                  HL-Gap            0.2351628 Eh            6.3991 eV
             Fermi-level           -0.3387064 Eh           -9.2167 eV

     #   Z        covCN         q      C6AA      α(0)
     1   6 C      2.834    -0.127    31.235     9.159
     2   7 N      3.578     0.023    20.841     6.780
     3   6 C      2.847    -0.027    28.663     8.774
Molecule has the following symmetry elements: (sigma) 
It seems to be the Cs point group
     4   6 C      2.847    -0.027    28.663     8.774
     5   1 H      0.861     0.158     1.349     1.820

 Mol. C6AA /au·bohr⁶  :        484.230412
 Mol. C8AA /au·bohr⁸  :      12777.436554
 Mol. α(0) /au        :         35.307005


Wiberg/Mayer (AO) data.
largest (>0.10) Wiberg bond orders for each atom
          total WBO             WBO to atom ...
     1  C   2.293        N    2 1.020    C    4 0.628    C    3 0.628
     2  N   3.586        C    1 1.020    H    5 0.942    C    3 0.812    C    4 0.812
     3  C   2.626        C    4 1.177    N    2 0.812    C    1 0.628
     4  C   2.625        C    3 1.177    N    2 0.812    C    1 0.628
     5  H   0.975        N    2 0.942

MOs/occ written to file <molden.input>


molecular dipole:
                 x           y           z       tot (Debye)
 q only:       -0.183       0.013       0.681
   full:       -0.406       0.027       1.544       4.059
molecular quadrupole (traceless):
                xx          xy          yy          xz          yz          zz
 q only:       -0.901       0.086      -0.386       0.244      -0.091       1.287
  q+dip:       -2.596       0.635       0.872      -0.055      -0.009       1.724
   full:       -2.634       0.613       0.748       0.132      -0.051       1.886

           -------------------------------------------------
          |                Geometry Summary                 |
           -------------------------------------------------

      molecular mass/u    :       51.0468517
   center of mass at/Å    :        0.0112338       0.0067206      -0.3017307
  moments of inertia/u·Å² :        0.2635420E+02   0.3072964E+02   0.3378753E+02
rotational constants/cm⁻¹ :        0.6396563E+00   0.5485790E+00   0.4989306E+00

 * 3 selected distances

     #   Z        #   Z                                     value/Å
     1   6 C      2   7 N                                 1.3957044 (max)
     3   6 C      4   6 C                                 1.3927039
     2   7 N      5   1 H                                 1.0005700 (min)

 * 3 distinct bonds (by element types)

   Z      Z             #   av. dist./Å        max./Å        min./Å
   6 C    6 C           1     1.3927039     1.3927039     1.3927039
   1 H    7 N           1     1.0005700     1.0005700     1.0005700
   6 C    7 N           1     1.3957044     1.3957044     1.3957044

           -------------------------------------------------
          |               Frequency Printout                |
           -------------------------------------------------
 projected vibrational frequencies (cm-1)
eigval :       -0.00    -0.00    -0.00     0.00     0.00     0.00
eigval :      331.08   626.63   684.22   717.68   822.43   913.36
eigval :     1232.76  1508.23  3525.34
 reduced masses (amu)
   1: 12.15   2: 11.66   3: 11.91   4: 11.76   5: 12.14   6: 12.28   7: 12.38   8:  4.04
   9: 10.91  10: 12.28  11:  2.54  12: 12.76  13: 12.32  14: 12.09  15:  1.92
 IR intensities (amu)
   1:  0.13   2:  0.22   3:  0.29   4:  0.30   5:  0.10   6:  0.06   7:  0.86   8:  0.83
   9:  0.98  10:  0.30  11:  0.21  12:  0.68  13:  1.14  14:  0.41  15:  0.32
 Raman intensities (amu)
   1:  0.00   2:  0.00   3:  0.00   4:  0.00   5:  0.00   6:  0.00   7:  0.00   8:  0.00
   9:  0.00  10:  0.00  11:  0.00  12:  0.00  13:  0.00  14:  0.00  15:  0.00
 output can be read by thermo (or use thermo option).
 writing <g98.out> molden fake output.
 recommended (thermochemical) frequency scaling factor: 1.0
           -------------------------------------------------
          |             Thermodynamic Functions             |
           -------------------------------------------------

cs  symmetry found (for desy threshold:  0.10E+00) used in thermo

          ...................................................
          :                      SETUP                      :
          :.................................................:
          :  # frequencies                           9      :
          :  # imaginary freq.                       0      :
          :  linear?                             false      :
          :  only rotor calc.                    false      :
          :  symmetry                               cs      :
          :  rotational number                       1      :
          :  scaling factor                  1.0000000      :
          :  rotor cutoff                   50.0000000 cm⁻¹ :
          :  imag. cutoff                  -20.0000000 cm⁻¹ :
          :.................................................:

    mode    ω/cm⁻¹     T·S(HO)/kcal·mol⁻¹    T·S(FR)/kcal·mol⁻¹   T·S(vib)
   ------------------------------------------------------------------------
   ------------------------------------------------------------------------

   temp. (K)  partition function   enthalpy   heat capacity  entropy
                                   cal/mol     cal/K/mol   cal/K/mol   J/K/mol
 298.15  VIB   1.46                  562.545      5.599      2.642
         ROT  0.126E+05              888.752      2.981     21.749
         INT  0.185E+05             1451.297      8.580     24.391
         TR   0.353E+27             1481.254      4.968     37.697
         TOT                        2932.5513    13.5477    62.0878   259.7754

   temp. (K)  partition function   enthalpy   heat capacity  entropy
                                   cal/mol     cal/K/mol   cal/K/mol   J/K/mol
 120.00  VIB   1.02                   20.277      0.754      0.209
         ROT  0.323E+04              357.707      2.981     19.036
         INT  0.329E+04              377.984      3.734     19.246
         TR   0.901E+26              596.178      4.968     33.177
         TOT                         974.1620     8.7026    52.4228   219.3370

   temp. (K)  partition function   enthalpy   heat capacity  entropy
                                   cal/mol     cal/K/mol   cal/K/mol   J/K/mol
 100.00  VIB   1.01                    8.560      0.431      0.103
         ROT  0.245E+04              298.089      2.981     18.493
         INT  0.248E+04              306.649      3.412     18.596
         TR   0.685E+26              496.815      4.968     32.272
         TOT                         803.4645     8.3801    50.8680   212.8316

   temp. (K)  partition function   enthalpy   heat capacity  entropy
                                   cal/mol     cal/K/mol   cal/K/mol   J/K/mol
  80.00  VIB   1.00                    2.500      0.189      0.037
         ROT  0.176E+04              238.471      2.981     17.828
         INT  0.176E+04              240.971      3.170     17.864
         TR   0.490E+26              397.452      4.968     31.164
         TOT                         638.4234     8.1384    49.0280   205.1333

   temp. (K)  partition function   enthalpy   heat capacity  entropy
                                   cal/mol     cal/K/mol   cal/K/mol   J/K/mol
  60.00  VIB   1.00                    0.338      0.045      0.006
         ROT  0.114E+04              178.853      2.981     16.970
         INT  0.114E+04              179.192      3.026     16.976
         TR   0.319E+26              298.089      4.968     29.735
         TOT                         477.2807     7.9939    46.7117   195.4416

   temp. (K)  partition function   enthalpy   heat capacity  entropy
                                   cal/mol     cal/K/mol   cal/K/mol   J/K/mol
  40.00  VIB   1.00                    0.006      0.002     -0.000
         ROT   621.                  119.236      2.981     15.761
         INT   621.                  119.242      2.983     15.761
         TR   0.173E+26              198.726      4.968     27.722
         TOT                         317.9680     7.9509    43.4831   181.9335

   temp. (K)  partition function   enthalpy   heat capacity  entropy
                                   cal/mol     cal/K/mol   cal/K/mol   J/K/mol
  20.00  VIB   1.00                    0.000      0.000     -0.001
         ROT   220.                   59.618      2.981     13.695
         INT   220.                   59.618      2.981     13.695
         TR   0.613E+25               99.363      4.968     24.280
         TOT                         158.9808     7.9490    37.9744   158.8847

   temp. (K)  partition function   enthalpy   heat capacity  entropy
                                   cal/mol     cal/K/mol   cal/K/mol   J/K/mol
  10.00  VIB   1.00                    0.000      0.000     -0.001
         ROT   77.6                   29.809      2.981     11.629
         INT   77.6                   29.809      2.981     11.628
         TR   0.217E+25               49.681      4.968     20.838
         TOT                          79.4904     7.9490    32.4657   135.8367

       T/K    H(0)-H(T)+PV         H(T)/Eh          T*S/Eh         G(T)/Eh
   ------------------------------------------------------------------------
    298.15    0.467332E-02    0.282791E-01    0.294999E-01   -0.122085E-02
    120.00    0.155243E-02    0.251582E-01    0.100249E-01    0.151333E-01
    100.00    0.128040E-02    0.248862E-01    0.810633E-02    0.167798E-01
     80.00    0.101739E-02    0.246232E-01    0.625049E-02    0.183727E-01
     60.00    0.760595E-03    0.243664E-01    0.446639E-02    0.199000E-01
     40.00    0.506714E-03    0.241125E-01    0.277179E-02    0.213407E-01
     20.00    0.253352E-03    0.238591E-01    0.121032E-02    0.226488E-01
     10.00    0.126676E-03    0.237324E-01    0.517375E-03    0.232151E-01 (used)
   ------------------------------------------------------------------------

         :::::::::::::::::::::::::::::::::::::::::::::::::::::
         ::                  THERMODYNAMIC                  ::
         :::::::::::::::::::::::::::::::::::::::::::::::::::::
         :: total free energy          -9.422290527743 Eh   ::
         ::.................................................::
         :: total energy               -9.445505592667 Eh   ::
         :: zero point energy           0.023605763562 Eh   ::
         :: G(RRHO) w/o ZPVE           -0.000390698638 Eh   ::
         :: G(RRHO) contrib.            0.023215064923 Eh   ::
         :::::::::::::::::::::::::::::::::::::::::::::::::::::

optimized geometry written to: xtbopt.xyz


           -------------------------------------------------
          | TOTAL ENERGY               -9.445505592667 Eh   |
          | TOTAL ENTHALPY             -9.421773153089 Eh   |
          | TOTAL FREE ENERGY          -9.422290527743 Eh   |
          | GRADIENT NORM               0.000531384708 Eh/α |
          | HOMO-LUMO GAP               6.399104314155 eV   |
           -------------------------------------------------

------------------------------------------------------------------------
 * finished run on 2020/05/12 at 11:44:51.981     
------------------------------------------------------------------------
 total:
 * wall-time:     0 d,  0 h,  0 min,  0.202 sec
 *  cpu-time:     0 d,  0 h,  0 min,  0.201 sec
 * ratio c/w:     0.997 speedup
 SCF:
 * wall-time:     0 d,  0 h,  0 min,  0.004 sec
 *  cpu-time:     0 d,  0 h,  0 min,  0.004 sec
 * ratio c/w:     1.000 speedup
 ANC optimizer:
 * wall-time:     0 d,  0 h,  0 min,  0.101 sec
 *  cpu-time:     0 d,  0 h,  0 min,  0.101 sec
 * ratio c/w:     0.999 speedup
 numerical hessian:
 * wall-time:     0 d,  0 h,  0 min,  0.080 sec
 *  cpu-time:     0 d,  0 h,  0 min,  0.080 sec
 * ratio c/w:     0.994 speedup

