      -----------------------------------------------------------      
     |                   =====================                   |     
     |                           x T B                           |     
     |                   =====================                   |     
     |                         S. Grimme                         |     
     |          Mulliken Center for Theoretical Chemistry        |     
     |                    University of Bonn                     |     
      -----------------------------------------------------------      

   * xtb version 6.2.2 (9d81278992624c895f80dd42a50cac0aa55982e2) compiled by '@Darwin' on 04/03/2020

   xtb is free software: you can redistribute it and/or modify it under
   the terms of the GNU Lesser General Public License as published by
   the Free Software Foundation, either version 3 of the License, or
   (at your option) any later version.
   
   xtb is distributed in the hope that it will be useful,
   but WITHOUT ANY WARRANTY; without even the implied warranty of
   MERCHANTABILITY or FITNESS FOR A PARTICULAR PURPOSE.  See the
   GNU Lesser General Public License for more details.
   
   Cite this work as:
   * S. Grimme, C. Bannwarth, P. Shushkov, J. Chem. Theory Comput., 2017,
     13, 1989-2009. DOI: 10.1021/acs.jctc.7b00118
   * C. Bannwarth, S. Ehlert and S. Grimme., J. Chem. Theory Comput., 2019,
     15, 1652-1671. DOI: 10.1021/acs.jctc.8b01176
   * P. Pracht, E. Caldeweyher, S. Ehlert, S. Grimme, ChemRxiv, 2019, preprint.
     DOI: 10.26434/chemrxiv.8326202.v1
   
   for DFT-D4:
   * E. Caldeweyher, C. Bannwarth and S. Grimme, J. Chem. Phys., 2017,
     147, 034112. DOI: 10.1063/1.4993215
   * E. Caldeweyher, S. Ehlert, A. Hansen, H. Neugebauer, S. Spicher,
     C. Bannwarth and S. Grimme, J. Chem. Phys., 2019, 150, 154122.
     DOI: 10.1063/1.5090222
   
   for sTDA-xTB:
   * S. Grimme and C. Bannwarth, J. Chem. Phys., 2016, 145, 054103.
     DOI: 10.1063/1.4959605
   
   in the mass-spec context:
   * V. Asgeirsson, C. Bauer and S. Grimme, Chem. Sci., 2017, 8, 4879.
     DOI: 10.1039/c7sc00601b
   
   for metadynamics refer to:
   * S. Grimme, J. Chem. Theory Comput., 2019, 155, 2847-2862
     DOI: 10.1021/acs.jctc.9b00143
   
   with help from (in alphabetical order)
   C. Bannwarth, F. Bohle, G. Brandenburg, E. Caldeweyher, M. Checinski,
   S. Dohm, S. Ehlert, S. Ehrlich, F. März, H. Neugebauer, J. Pisarek,
   P. Pracht, P. Shushkov, and S. Spicher.
   
 * started run on 2020/05/12 at 11:44:53.016     

           -------------------------------------------------
          |                Calculation Setup                |
           -------------------------------------------------

          program call               : xtb --input H1C3N1_7_S_2.input H1C3N1_7_S_2.xyz --ohess --molden --namespace H1C3N1_7_S_2 output.out
          calculation namespace      : H1C3N1_7_S_2
          coordinate file            : H1C3N1_7_S_2.xyz
          number of atoms            :                     5
          number of electrons        :                    18
          charge                     :                     0
          spin                       :                   1.0
          first test random number   :      0.08272657402714

   ID    Z sym.   atoms
    1    6 C      1-3
    2    7 N      4
    3    1 H      5

           -------------------------------------------------
          |                 G F N 2 - x T B                 |
           -------------------------------------------------

        Reference                      10.1021/acs.jctc.8b01176
      * Hamiltonian:
        H0-scaling (s, p, d)           1.850000    2.230000    2.230000
        zeta-weighting                 0.500000
      * Dispersion:
        s8                             2.700000
        a1                             0.520000
        a2                             5.000000
        s9                             5.000000
      * Repulsion:
        kExp                           1.500000    1.000000
        rExp                           1.000000
      * Coulomb:
        alpha                          2.000000
        third order                    shell-resolved
        anisotropic                    true
        a3                             3.000000
        a5                             4.000000
        cn-shift                       1.200000
        cn-exp                         4.000000
        max-rad                        5.000000


          ...................................................
          :                      SETUP                      :
          :.................................................:
          :  # basis functions                  17          :
          :  # atomic orbitals                  17          :
          :  # shells                            9          :
          :  # electrons                        18          :
          :  max. iterations                   250          :
          :  Hamiltonian                  GFN2-xTB          :
          :  restarted?                      false          :
          :  GBSA solvation                  false          :
          :  PC potential                    false          :
          :  electronic temp.          300.0000000     K    :
          :  accuracy                    1.0000000          :
          :  -> integral cutoff          0.2500000E+02      :
          :  -> integral neglect         0.1000000E-07      :
          :  -> SCF convergence          0.1000000E-05 Eh   :
          :  -> wf. convergence          0.1000000E-03 e    :
          :  Broyden damping             0.4000000          :
          ...................................................

 iter      E             dE          RMSdq      gap      omega  full diag
   1     -9.2693546 -0.926935E+01  0.979E+00    0.90       0.0  T
   2     -8.5320967  0.737258E+00  0.127E+01    1.62       1.0  T
   3     -9.3737589 -0.841662E+00  0.504E+00    1.18       1.0  T
   4     -8.6196317  0.754127E+00  0.857E+00    1.22       1.0  T
   5     -9.3117115 -0.692080E+00  0.381E+00    1.34       1.0  T
   6     -9.4192918 -0.107580E+00  0.158E+00    1.47       1.0  T
   7     -9.4281482 -0.885648E-02  0.115E+00    1.62       1.0  T
   8     -9.4288239 -0.675619E-03  0.749E-01    1.68       1.0  T
   9     -9.4323470 -0.352312E-02  0.209E-01    1.80       1.0  T
  10     -9.4322844  0.625382E-04  0.200E-01    1.80       1.0  T
  11     -9.4323980 -0.113559E-03  0.524E-02    1.82       1.0  T
  12     -9.4323999 -0.190227E-05  0.359E-02    1.82       1.2  T
  13     -9.4324049 -0.498823E-05  0.124E-02    1.82       3.6  T
  14     -9.4324056 -0.683879E-06  0.403E-03    1.82      11.1  T
  15     -9.4324056 -0.648286E-07  0.112E-03    1.82      39.9  T
  16     -9.4324056 -0.559425E-08  0.359E-04    1.82     124.7  T
  17     -9.4324056 -0.401430E-09  0.195E-04    1.82     228.9  T

   *** convergence criteria satisfied after 17 iterations ***

         #    Occupation            Energy/Eh            Energy/eV
      -------------------------------------------------------------
         1        2.0000           -0.6811697             -18.5356
       ...           ...                  ...                  ...
         4        2.0000           -0.5773965             -15.7118
         5        2.0000           -0.5078429             -13.8191
         6        2.0000           -0.5008247             -13.6281
         7        2.0000           -0.4850518             -13.1989
         8        1.9291           -0.4403587             -11.9828
         9        1.0709           -0.4354700             -11.8497
        10        1.0000           -0.4244414             -11.5496 (HOMO)
        11                         -0.3576780              -9.7329 (LUMO)
        12                         -0.3542864              -9.6406
        13                         -0.3145799              -8.5602
        14                          0.0417694               1.1366
        15                          0.0755192               2.0550
       ...                                ...                  ...
        17                          0.1334360               3.6310
      -------------------------------------------------------------
                  HL-Gap            0.0667634 Eh            1.8167 eV
             Fermi-level           -0.4144870 Eh          -11.2788 eV

 transition dipole moment (au) for excitation:           9          10
     X       Y       Z   
  -1.2406  -0.1047  -0.2011  total (au/Debye):    1.261   3.205
 dE (eV)             :    0.300
 oscillator strength :  0.16536E-01

 SCC (total)                   0 d,  0 h,  0 min,  0.005 sec
 SCC setup                      ...        0 min,  0.000 sec (  1.599%)
 Dispersion                     ...        0 min,  0.000 sec (  0.349%)
 integral evaluation            ...        0 min,  0.001 sec ( 20.551%)
 zeroth order Hamiltonian       ...        0 min,  0.000 sec (  0.349%)
 iterations                     ...        0 min,  0.002 sec ( 38.647%)
 molecular gradient             ...        0 min,  0.001 sec ( 20.182%)
 printout                       ...        0 min,  0.001 sec ( 18.116%)

         :::::::::::::::::::::::::::::::::::::::::::::::::::::
         ::                     SUMMARY                     ::
         :::::::::::::::::::::::::::::::::::::::::::::::::::::
         :: total energy              -9.378415462272 Eh    ::
         :: gradient norm              0.318097458695 Eh/a0 ::
         :: HOMO-LUMO gap              1.816724750739 eV    ::
         ::.................................................::
         :: SCC energy                -9.432405638042 Eh    ::
         :: -> isotropic ES           -0.010015835204 Eh    ::
         :: -> anisotropic ES         -0.000344234414 Eh    ::
         :: -> anisotropic XC          0.016103622579 Eh    ::
         :: -> dispersion             -0.002172723979 Eh    ::
         :: repulsion energy           0.053990058274 Eh    ::
         :: add. restraining           0.000000000000 Eh    ::
         :::::::::::::::::::::::::::::::::::::::::::::::::::::

      ----------------------------------------------------------- 
     |                   =====================                   |
     |                        A N C O P T                        |
     |                   =====================                   |
     |               Approximate Normal Coordinate               |
     |                Rational Function Optimizer                |
      ----------------------------------------------------------- 

          ...................................................
          :                      SETUP                      :
          :.................................................:
          :   optimization level            normal          :
          :   max. optcycles                   200          :
          :   ANC micro-cycles                  20          :
          :   degrees of freedom                 9          :
          :.................................................:
          :   RF solver                   davidson          :
          :   write xtbopt.log                true          :
          :   linear?                        false          :
          :   energy convergence         0.5000000E-05 Eh   :
          :   grad. convergence          0.1000000E-02 Eh/α :
          :   maximium RF displ.         1.0000000          :
          :   Hlow (freq-cutoff)         0.1000000E-01      :
          :   Hmax (freq-cutoff)         5.0000000          :
          :   S6 in model hess.         20.0000000          :
          ...................................................

generating ANC from model Hessian ...
Using Lindh-Hessian (1995)
 Shifting diagonal of input Hessian by    1.8259530461312481E-003
 Lowest  eigenvalues of input Hessian
   -0.000000   -0.000000   -0.000000    0.000000    0.000000    0.000000
    0.010000    0.026646    0.084267    0.106652    0.118363    0.539954
    0.803659    1.030799    1.143564
 Highest eigenvalues
    0.106652    0.118363    0.539954    0.803659    1.030799    1.143564


........................................................................
.............................. CYCLE    1 ..............................
........................................................................
   1     -9.4324056 -0.943241E+01  0.388E-05    1.82       0.0  T
   2     -9.4324056  0.106587E-09  0.111E-04    1.82     404.7  T
   3     -9.4324056 -0.104540E-09  0.351E-05    1.82    1274.2  T
     SCC iter.                  ...        0 min,  0.000 sec
     gradient                   ...        0 min,  0.001 sec
 * total energy  :    -9.3784155 Eh     change        0.3683933E-09 Eh
   gradient norm :     0.3180972 Eh/α   predicted     0.0000000E+00 (-100.00%)
   displ. norm   :     0.4348091 α      lambda       -0.1239823E+00
   maximum displ.:     0.3126037 α      in ANC's #6, #2, #7, ...

........................................................................
.............................. CYCLE    2 ..............................
........................................................................
   1     -9.5915494 -0.959155E+01  0.245E+00    2.68       0.0  T
   2     -9.5530415  0.385079E-01  0.268E+00    2.73       1.0  T
   3     -9.5782990 -0.252575E-01  0.193E+00    2.53       1.0  T
   4     -9.5964438 -0.181448E-01  0.660E-01    2.73       1.0  T
   5     -9.5980842 -0.164035E-02  0.299E-01    2.60       1.0  T
   6     -9.5984173 -0.333062E-03  0.128E-01    2.64       1.0  T
   7     -9.5984766 -0.593315E-04  0.493E-02    2.63       1.0  T
   8     -9.5984831 -0.650944E-05  0.221E-02    2.63       2.0  T
   9     -9.5984843 -0.119160E-05  0.341E-03    2.63      13.1  T
  10     -9.5984843 -0.793640E-08  0.960E-04    2.63      46.6  T
  11     -9.5984843 -0.397864E-08  0.222E-04    2.63     201.5  T
     SCC iter.                  ...        0 min,  0.001 sec
     gradient                   ...        0 min,  0.001 sec
 * total energy  :    -9.4831586 Eh     change       -0.1047431E+00 Eh
   gradient norm :     0.2064829 Eh/α   predicted    -0.7371116E-01 ( -29.63%)
   displ. norm   :     0.4942987 α      lambda       -0.9714488E-01
   maximum displ.:     0.3309987 α      in ANC's #6, #9, #7, ...

........................................................................
.............................. CYCLE    3 ..............................
........................................................................
   1     -9.8210555 -0.982106E+01  0.327E+00    3.69       0.0  T
   2     -9.8205032  0.552362E-03  0.198E+00    3.50       1.0  T
   3     -9.8042512  0.162520E-01  0.199E+00    3.64       1.0  T
   4     -9.8241033 -0.198522E-01  0.339E-01    3.57       1.0  T
   5     -9.8244037 -0.300377E-03  0.161E-01    3.55       1.0  T
   6     -9.8244315 -0.277733E-04  0.498E-02    3.55       1.0  T
   7     -9.8244322 -0.736505E-06  0.258E-02    3.55       1.7  T
   8     -9.8244337 -0.148485E-05  0.853E-03    3.55       5.2  T
   9     -9.8244339 -0.151403E-06  0.197E-03    3.55      22.7  T
  10     -9.8244339 -0.386394E-08  0.240E-04    3.55     186.2  T
  11     -9.8244339  0.852118E-11  0.108E-04    3.55     412.8  T
     SCC iter.                  ...        0 min,  0.001 sec
     gradient                   ...        0 min,  0.001 sec
 * total energy  :    -9.4544722 Eh     change        0.2868642E-01 Eh
   gradient norm :     0.6273111 Eh/α   predicted    -0.6044018E-01 (-310.69%)
   displ. norm   :     0.3474533 α      lambda       -0.1768847E+00
   maximum displ.:     0.2340904 α      in ANC's #2, #7, #9, ...

........................................................................
.............................. CYCLE    4 ..............................
........................................................................
   1     -9.6928534 -0.969285E+01  0.179E+00    2.81       0.0  T
   2     -9.6896069  0.324648E-02  0.124E+00    2.76       1.0  T
   3     -9.6772877  0.123192E-01  0.163E+00    2.89       1.0  T
   4     -9.6943020 -0.170143E-01  0.333E-01    2.78       1.0  T
   5     -9.6944993 -0.197290E-03  0.131E-01    2.82       1.0  T
   6     -9.6945246 -0.252303E-04  0.612E-02    2.81       1.0  T
   7     -9.6945241  0.438333E-06  0.401E-02    2.82       1.1  T
   8     -9.6945309 -0.678991E-05  0.333E-03    2.81      13.4  T
   9     -9.6945309 -0.301217E-07  0.147E-03    2.81      30.3  T
  10     -9.6945309 -0.494913E-08  0.285E-04    2.81     157.1  T
  11     -9.6945309 -0.246215E-09  0.712E-05    2.81     628.5  T
     SCC iter.                  ...        0 min,  0.001 sec
     gradient                   ...        0 min,  0.001 sec
 * total energy  :    -9.5181240 Eh     change       -0.6365185E-01 Eh
   gradient norm :     0.0972193 Eh/α   predicted    -0.9911948E-01 (  55.72%)
   displ. norm   :     0.6118707 α      lambda       -0.2052502E-01
   maximum displ.:     0.4714906 α      in ANC's #2, #1, #4, ...

........................................................................
.............................. CYCLE    5 ..............................
........................................................................
   1     -9.6660919 -0.966609E+01  0.231E+00    2.36       0.0  T
   2     -9.6663270 -0.235080E-03  0.119E+00    2.43       1.0  T
   3     -9.6617839  0.454306E-02  0.114E+00    2.28       1.0  T
   4     -9.6675715 -0.578761E-02  0.157E-01    2.40       1.0  T
   5     -9.6675442  0.272894E-04  0.886E-02    2.40       1.0  T
   6     -9.6675551 -0.108802E-04  0.596E-02    2.40       1.0  T
   7     -9.6675808 -0.257049E-04  0.251E-02    2.40       1.8  T
   8     -9.6675837 -0.289439E-05  0.733E-03    2.40       6.1  T
   9     -9.6675839 -0.209032E-06  0.171E-03    2.40      26.2  T
  10     -9.6675839 -0.640592E-08  0.519E-04    2.40      86.1  T
  11     -9.6675839 -0.599924E-09  0.224E-04    2.40     199.3  T
     SCC iter.                  ...        0 min,  0.001 sec
     gradient                   ...        0 min,  0.001 sec
 * total energy  :    -9.5207410 Eh     change       -0.2616922E-02 Eh
   gradient norm :     0.1377867 Eh/α   predicted    -0.1410463E-01 ( 438.98%)
   displ. norm   :     0.2527877 α      lambda       -0.1807125E-01
   maximum displ.:     0.1522867 α      in ANC's #1, #5, #4, ...

........................................................................
.............................. CYCLE    6 ..............................
........................................................................
   1     -9.7022907 -0.970229E+01  0.969E-01    2.63       0.0  T
   2     -9.7024347 -0.144016E-03  0.570E-01    2.62       1.0  T
   3     -9.7017437  0.691017E-03  0.328E-01    2.60       1.0  T
   4     -9.7020496 -0.305853E-03  0.259E-01    2.63       1.0  T
   5     -9.7025091 -0.459542E-03  0.578E-02    2.61       1.0  T
   6     -9.7025094 -0.310762E-06  0.350E-02    2.60       1.3  T
   7     -9.7025146 -0.514038E-05  0.131E-02    2.61       3.4  T
   8     -9.7025149 -0.396363E-06  0.405E-03    2.61      11.0  T
   9     -9.7025150 -0.229473E-07  0.128E-03    2.61      35.0  T
  10     -9.7025150 -0.212933E-08  0.466E-04    2.61      96.0  T
  11     -9.7025150 -0.106844E-08  0.477E-05    2.61     937.1  T
     SCC iter.                  ...        0 min,  0.001 sec
     gradient                   ...        0 min,  0.001 sec
 * total energy  :    -9.5300862 Eh     change       -0.9345244E-02 Eh
   gradient norm :     0.0851065 Eh/α   predicted    -0.9613011E-02 (   2.87%)
   displ. norm   :     0.2836841 α      lambda       -0.7040591E-02
   maximum displ.:     0.2064175 α      in ANC's #2, #1, #6, ...

........................................................................
.............................. CYCLE    7 ..............................
........................................................................
   1     -9.7369759 -0.973698E+01  0.727E-01    2.71       0.0  T
   2     -9.7363407  0.635184E-03  0.517E-01    2.74       1.0  T
   3     -9.7341526  0.218810E-02  0.686E-01    2.70       1.0  T
   4     -9.7371791 -0.302651E-02  0.541E-02    2.74       1.0  T
   5     -9.7371873 -0.819043E-05  0.323E-02    2.73       1.4  T
   6     -9.7371877 -0.391175E-06  0.202E-02    2.73       2.2  T
   7     -9.7371897 -0.196120E-05  0.805E-03    2.73       5.6  T
   8     -9.7371898 -0.122569E-06  0.320E-03    2.73      14.0  T
   9     -9.7371898 -0.193065E-07  0.696E-04    2.73      64.2  T
  10     -9.7371898 -0.420885E-09  0.112E-04    2.73     397.6  T
     SCC iter.                  ...        0 min,  0.001 sec
     gradient                   ...        0 min,  0.001 sec
 * total energy  :    -9.5312725 Eh     change       -0.1186322E-02 Eh
   gradient norm :     0.0380155 Eh/α   predicted    -0.3803599E-02 ( 220.62%)
   displ. norm   :     0.2408725 α      lambda       -0.5699293E-02
   maximum displ.:     0.2171367 α      in ANC's #2, #6, #4, ...

........................................................................
.............................. CYCLE    8 ..............................
........................................................................
   1     -9.7322998 -0.973230E+01  0.718E-01    2.63       0.0  T
   2     -9.7323006 -0.836955E-06  0.391E-01    2.63       1.0  T
   3     -9.7308891  0.141151E-02  0.436E-01    2.59       1.0  T
   4     -9.7322465 -0.135738E-02  0.167E-01    2.62       1.0  T
   5     -9.7324141 -0.167564E-03  0.405E-02    2.62       1.1  T
   6     -9.7324184 -0.435445E-05  0.201E-02    2.62       2.2  T
   7     -9.7324200 -0.161193E-05  0.603E-03    2.62       7.4  T
   8     -9.7324202 -0.140600E-06  0.152E-03    2.62      29.5  T
   9     -9.7324202 -0.528719E-08  0.432E-04    2.62     103.6  T
  10     -9.7324202 -0.669973E-09  0.514E-05    2.62     870.6  T
     SCC iter.                  ...        0 min,  0.001 sec
     gradient                   ...        0 min,  0.001 sec
 * total energy  :    -9.5353545 Eh     change       -0.4082001E-02 Eh
   gradient norm :     0.0175315 Eh/α   predicted    -0.3014985E-02 ( -26.14%)
   displ. norm   :     0.4151282 α      lambda       -0.4567195E-02
   maximum displ.:     0.2672032 α      in ANC's #2, #1, #6, ...

........................................................................
.............................. CYCLE    9 ..............................
........................................................................
   1     -9.6990539 -0.969905E+01  0.162E+00    2.38       0.0  T
   2     -9.6980810  0.972901E-03  0.100E+00    2.42       1.0  T
   3     -9.6466968  0.513842E-01  0.228E+00    2.21       1.0  T
   4     -9.6990441 -0.523473E-01  0.237E-01    2.40       1.0  T
   5     -9.6992656 -0.221585E-03  0.149E-01    2.40       1.0  T
   6     -9.6993370 -0.713169E-04  0.100E-01    2.40       1.0  T
   7     -9.6993935 -0.565695E-04  0.166E-02    2.39       2.7  T
   8     -9.6993935  0.194609E-08  0.828E-03    2.39       5.4  T
   9     -9.6993940 -0.441225E-06  0.315E-03    2.39      14.2  T
  10     -9.6993940 -0.235856E-07  0.578E-04    2.39      77.3  T
  11     -9.6993940  0.194850E-09  0.317E-04    2.39     141.3  T
     SCC iter.                  ...        0 min,  0.001 sec
     gradient                   ...        0 min,  0.001 sec
 * total energy  :    -9.5336814 Eh     change        0.1673174E-02 Eh
   gradient norm :     0.1130947 Eh/α   predicted    -0.2677139E-02 (-260.00%)
   displ. norm   :     0.2080983 α      lambda       -0.9065521E-02
   maximum displ.:     0.1935760 α      in ANC's #1, #5, #2, ...

........................................................................
.............................. CYCLE   10 ..............................
........................................................................
   1     -9.7359075 -0.973591E+01  0.998E-01    2.54       0.0  T
   2     -9.7359586 -0.510784E-04  0.618E-01    2.53       1.0  T
   3     -9.7351880  0.770656E-03  0.300E-01    2.51       1.0  T
   4     -9.7358071 -0.619139E-03  0.168E-01    2.53       1.0  T
   5     -9.7359960 -0.188886E-03  0.597E-02    2.52       1.0  T
   6     -9.7359991 -0.309854E-05  0.309E-02    2.52       1.4  T
   7     -9.7360035 -0.440777E-05  0.102E-02    2.52       4.4  T
   8     -9.7360036 -0.153993E-06  0.282E-03    2.52      15.8  T
   9     -9.7360037 -0.846150E-08  0.569E-04    2.52      78.6  T
  10     -9.7360037 -0.497812E-09  0.101E-04    2.52     444.8  T
     SCC iter.                  ...        0 min,  0.001 sec
     gradient                   ...        0 min,  0.001 sec
 * total energy  :    -9.5376919 Eh     change       -0.4010499E-02 Eh
   gradient norm :     0.0201184 Eh/α   predicted    -0.4729053E-02 (  17.92%)
   displ. norm   :     0.1001107 α      lambda       -0.1109275E-02
   maximum displ.:     0.0819378 α      in ANC's #1, #2, #5, ...

........................................................................
.............................. CYCLE   11 ..............................
........................................................................
   1     -9.7396943 -0.973969E+01  0.323E-01    2.53       0.0  T
   2     -9.7395545  0.139867E-03  0.241E-01    2.55       1.0  T
   3     -9.7389144  0.640084E-03  0.324E-01    2.53       1.0  T
   4     -9.7397253 -0.810872E-03  0.221E-02    2.55       2.0  T
   5     -9.7397288 -0.350947E-05  0.836E-03    2.54       5.3  T
   6     -9.7397289 -0.148295E-06  0.258E-03    2.54      17.3  T
   7     -9.7397289 -0.162979E-07  0.119E-03    2.54      37.6  T
   8     -9.7397289  0.859901E-09  0.840E-04    2.54      53.2  T
   9     -9.7397289 -0.365043E-08  0.147E-04    2.54     303.4  T
     SCC iter.                  ...        0 min,  0.001 sec
     gradient                   ...        0 min,  0.001 sec
 * total energy  :    -9.5384843 Eh     change       -0.7924347E-03 Eh
   gradient norm :     0.0150752 Eh/α   predicted    -0.5601974E-03 ( -29.31%)
   displ. norm   :     0.2215246 α      lambda       -0.1794505E-02
   maximum displ.:     0.1643911 α      in ANC's #1, #6, #7, ...

........................................................................
.............................. CYCLE   12 ..............................
........................................................................
   1     -9.7358777 -0.973588E+01  0.842E-01    2.50       0.0  T
   2     -9.7355090  0.368658E-03  0.537E-01    2.51       1.0  T
   3     -9.7252186  0.102905E-01  0.107E+00    2.44       1.0  T
   4     -9.7359529 -0.107344E-01  0.665E-02    2.51       1.0  T
   5     -9.7359751 -0.222143E-04  0.278E-02    2.51       1.6  T
   6     -9.7359750  0.136631E-06  0.196E-02    2.50       2.3  T
   7     -9.7359768 -0.183440E-05  0.404E-03    2.50      11.1  T
   8     -9.7359769 -0.225672E-07  0.216E-03    2.50      20.7  T
   9     -9.7359769 -0.301474E-07  0.428E-04    2.50     104.5  T
  10     -9.7359769 -0.306848E-09  0.119E-04    2.50     375.5  T
     SCC iter.                  ...        0 min,  0.001 sec
     gradient                   ...        0 min,  0.001 sec
 * total energy  :    -9.5396129 Eh     change       -0.1128661E-02 Eh
   gradient norm :     0.0350169 Eh/α   predicted    -0.9412827E-03 ( -16.60%)
   displ. norm   :     0.1156349 α      lambda       -0.1004445E-02
   maximum displ.:     0.0689488 α      in ANC's #1, #7, #6, ...

........................................................................
.............................. CYCLE   13 ..............................
........................................................................
   1     -9.7400118 -0.974001E+01  0.429E-01    2.51       0.0  T
   2     -9.7399120  0.998070E-04  0.274E-01    2.52       1.0  T
   3     -9.7373732  0.253876E-02  0.530E-01    2.49       1.0  T
   4     -9.7400376 -0.266440E-02  0.205E-02    2.52       2.2  T
   5     -9.7400376  0.395838E-07  0.139E-02    2.52       3.2  T
   6     -9.7400378 -0.244078E-06  0.766E-03    2.52       5.8  T
   7     -9.7400381 -0.268944E-06  0.399E-03    2.52      11.2  T
   8     -9.7400382 -0.882115E-07  0.101E-03    2.52      44.3  T
   9     -9.7400382 -0.587347E-09  0.244E-04    2.52     183.0  T
  10     -9.7400382 -0.100020E-09  0.403E-05    2.52    1108.7  T
     SCC iter.                  ...        0 min,  0.001 sec
     gradient                   ...        0 min,  0.001 sec
 * total energy  :    -9.5403906 Eh     change       -0.7777005E-03 Eh
   gradient norm :     0.0251869 Eh/α   predicted    -0.5089384E-03 ( -34.56%)
   displ. norm   :     0.1137644 α      lambda       -0.1027687E-02
   maximum displ.:     0.0752778 α      in ANC's #7, #1, #6, ...

........................................................................
.............................. CYCLE   14 ..............................
........................................................................
   1     -9.7471859 -0.974719E+01  0.423E-01    2.56       0.0  T
   2     -9.7470552  0.130711E-03  0.280E-01    2.56       1.0  T
   3     -9.7446407  0.241452E-02  0.525E-01    2.53       1.0  T
   4     -9.7472186 -0.257797E-02  0.247E-02    2.55       1.8  T
   5     -9.7472204 -0.175779E-05  0.138E-02    2.55       3.2  T
   6     -9.7472205 -0.907468E-07  0.597E-03    2.55       7.5  T
   7     -9.7472206 -0.146601E-06  0.237E-03    2.55      18.8  T
   8     -9.7472207 -0.195357E-07  0.132E-03    2.55      33.9  T
   9     -9.7472207 -0.503023E-08  0.261E-04    2.55     171.5  T
  10     -9.7472207 -0.858549E-10  0.309E-05    2.55    1447.8  T
     SCC iter.                  ...        0 min,  0.001 sec
     gradient                   ...        0 min,  0.001 sec
 * total energy  :    -9.5410381 Eh     change       -0.6474090E-03 Eh
   gradient norm :     0.0052557 Eh/α   predicted    -0.5204935E-03 ( -19.60%)
   displ. norm   :     0.1945468 α      lambda       -0.5465043E-03
   maximum displ.:     0.1187664 α      in ANC's #1, #7, #6, ...

........................................................................
.............................. CYCLE   15 ..............................
........................................................................
   1     -9.7347297 -0.973473E+01  0.695E-01    2.53       0.0  T
   2     -9.7347430 -0.133386E-04  0.417E-01    2.53       1.0  T
   3     -9.7347022  0.408062E-04  0.935E-02    2.53       1.0  T
   4     -9.7347304 -0.282157E-04  0.564E-02    2.53       1.0  T
   5     -9.7347350 -0.461218E-05  0.412E-02    2.53       1.1  T
   6     -9.7347504 -0.153469E-04  0.131E-02    2.53       3.4  T
   7     -9.7347508 -0.433104E-06  0.545E-03    2.53       8.2  T
   8     -9.7347509 -0.658639E-07  0.107E-03    2.53      41.7  T
   9     -9.7347509 -0.711836E-09  0.501E-04    2.53      89.2  T
  10     -9.7347509 -0.189987E-09  0.531E-05    2.53     841.8  T
     SCC iter.                  ...        0 min,  0.001 sec
     gradient                   ...        0 min,  0.001 sec
 * total energy  :    -9.5408565 Eh     change        0.1815867E-03 Eh
   gradient norm :     0.0329775 Eh/α   predicted    -0.2835961E-03 (-256.18%)
   displ. norm   :     0.0985394 α      lambda       -0.9543106E-03
   maximum displ.:     0.0546210 α      in ANC's #1, #2, #7, ...

........................................................................
.............................. CYCLE   16 ..............................
........................................................................
   1     -9.7464122 -0.974641E+01  0.380E-01    2.55       0.0  T
   2     -9.7464090  0.323423E-05  0.232E-01    2.55       1.0  T
   3     -9.7458663  0.542667E-03  0.238E-01    2.54       1.0  T
   4     -9.7464204 -0.554059E-03  0.271E-02    2.55       1.7  T
   5     -9.7464207 -0.287163E-06  0.218E-02    2.55       2.0  T
   6     -9.7464217 -0.101106E-05  0.787E-03    2.55       5.7  T
   7     -9.7464219 -0.258869E-06  0.312E-03    2.55      14.3  T
   8     -9.7464220 -0.228805E-07  0.672E-04    2.55      66.6  T
   9     -9.7464220 -0.403016E-09  0.257E-04    2.55     173.9  T
     SCC iter.                  ...        0 min,  0.001 sec
     gradient                   ...        0 min,  0.001 sec
 * total energy  :    -9.5412303 Eh     change       -0.3737876E-03 Eh
   gradient norm :     0.0038455 Eh/α   predicted    -0.4817878E-03 (  28.89%)
   displ. norm   :     0.0264920 α      lambda       -0.4266852E-04
   maximum displ.:     0.0154823 α      in ANC's #7, #1, #6, ...

........................................................................
.............................. CYCLE   17 ..............................
........................................................................
   1     -9.7461913 -0.974619E+01  0.977E-02    2.56       0.0  T
   2     -9.7461858  0.543742E-05  0.659E-02    2.56       1.0  T
   3     -9.7460681  0.117706E-03  0.115E-01    2.55       1.0  T
   4     -9.7461925 -0.124416E-03  0.783E-03    2.56       5.7  T
   5     -9.7461927 -0.190282E-06  0.395E-03    2.56      11.3  T
   6     -9.7461927  0.139902E-07  0.246E-03    2.56      18.2  T
   7     -9.7461927 -0.455652E-07  0.607E-04    2.56      73.7  T
   8     -9.7461927 -0.139474E-09  0.177E-04    2.56     252.2  T
     SCC iter.                  ...        0 min,  0.001 sec
     gradient                   ...        0 min,  0.001 sec
 * total energy  :    -9.5412561 Eh     change       -0.2583644E-04 Eh
   gradient norm :     0.0016833 Eh/α   predicted    -0.2135001E-04 ( -17.36%)
   displ. norm   :     0.0484428 α      lambda       -0.1959717E-04
   maximum displ.:     0.0304293 α      in ANC's #1, #7, #6, ...

........................................................................
.............................. CYCLE   18 ..............................
........................................................................
   1     -9.7447720 -0.974477E+01  0.167E-01    2.55       0.0  T
   2     -9.7447716  0.489336E-06  0.101E-01    2.55       1.0  T
   3     -9.7446914  0.801227E-04  0.902E-02    2.55       1.0  T
   4     -9.7447727 -0.812223E-04  0.154E-02    2.55       2.9  T
   5     -9.7447735 -0.880847E-06  0.734E-03    2.55       6.1  T
   6     -9.7447737 -0.143929E-06  0.333E-03    2.55      13.4  T
   7     -9.7447737 -0.510511E-07  0.907E-04    2.55      49.3  T
   8     -9.7447737 -0.711646E-09  0.220E-04    2.55     203.6  T
     SCC iter.                  ...        0 min,  0.001 sec
     gradient                   ...        0 min,  0.001 sec
 * total energy  :    -9.5412588 Eh     change       -0.2698036E-05 Eh
   gradient norm :     0.0037292 Eh/α   predicted    -0.9808912E-05 ( 263.56%)
   displ. norm   :     0.0123081 α      lambda       -0.1040905E-04
   maximum displ.:     0.0091656 α      in ANC's #1, #7, #6, ...

........................................................................
.............................. CYCLE   19 ..............................
........................................................................
   1     -9.7457217 -0.974572E+01  0.421E-02    2.55       0.0  T
   2     -9.7457214  0.304041E-06  0.260E-02    2.55       1.7  T
   3     -9.7457049  0.164941E-04  0.412E-02    2.55       1.1  T
   4     -9.7457218 -0.168866E-04  0.437E-03    2.55      10.2  T
   5     -9.7457219 -0.951835E-07  0.220E-03    2.55      20.4  T
   6     -9.7457219 -0.110892E-07  0.113E-03    2.55      39.6  T
   7     -9.7457219 -0.291260E-08  0.314E-04    2.55     142.6  T
   8     -9.7457219 -0.122226E-09  0.676E-05    2.55     662.0  T
     SCC iter.                  ...        0 min,  0.001 sec
     gradient                   ...        0 min,  0.001 sec
 * total energy  :    -9.5412656 Eh     change       -0.6788680E-05 Eh
   gradient norm :     0.0012768 Eh/α   predicted    -0.5204879E-05 ( -23.33%)
   displ. norm   :     0.0088887 α      lambda       -0.2159729E-05
   maximum displ.:     0.0073172 α      in ANC's #1, #7, #9, ...

........................................................................
.............................. CYCLE   20 ..............................
........................................................................
   1     -9.7463030 -0.974630E+01  0.282E-02    2.55       0.0  T
   2     -9.7463029  0.101414E-06  0.173E-02    2.55       2.6  T
   3     -9.7462966  0.624956E-05  0.253E-02    2.55       1.8  T
   4     -9.7463030 -0.638533E-05  0.330E-03    2.55      13.5  T
   5     -9.7463030 -0.446569E-07  0.156E-03    2.55      28.7  T
   6     -9.7463030 -0.822012E-08  0.703E-04    2.55      63.6  T
   7     -9.7463030 -0.104891E-08  0.216E-04    2.55     206.9  T
     SCC iter.                  ...        0 min,  0.001 sec
     gradient                   ...        0 min,  0.001 sec
 * total energy  :    -9.5412669 Eh     change       -0.1350120E-05 Eh
   gradient norm :     0.0005984 Eh/α   predicted    -0.1080788E-05 ( -19.95%)
   displ. norm   :     0.0031021 α      lambda       -0.3536321E-06
   maximum displ.:     0.0017553 α      in ANC's #6, #7, #1, ...

   *** GEOMETRY OPTIMIZATION CONVERGED AFTER 20 ITERATIONS ***

------------------------------------------------------------------------
 total energy gain   :        -0.1628515 Eh     -102.1908 kcal/mol
 total RMSD          :         1.0030567 a0        0.5308 Å
 total power (kW/mol):       -21.3783237 (step)-7518.1893 (real)
------------------------------------------------------------------------

 ANCopt (total)                0 d,  0 h,  0 min,  0.057 sec
 optimizer setup                ...        0 min,  0.000 sec (  0.112%)
 model hessian                  ...        0 min,  0.000 sec (  0.153%)
 ANC generation                 ...        0 min,  0.000 sec (  0.090%)
 coordinate transformation      ...        0 min,  0.000 sec (  0.067%)
 single point calculation       ...        0 min,  0.055 sec ( 97.004%)
 optimization log               ...        0 min,  0.000 sec (  0.822%)
 hessian update                 ...        0 min,  0.000 sec (  0.073%)
 rational function              ...        0 min,  0.000 sec (  0.743%)

================
 final structure:
================
5
 xtb: 6.2.2 (9d81278992624c895f80dd42a50cac0aa55982e2)
C         2.02046263711163   -0.22642401850368   -0.03152040799812
C         0.81150909541012   -0.30685048638357   -0.06204344466288
C        -0.56572572176792    0.03548684257129    0.00223604364679
N        -1.58658473830254   -0.61180184542430   -0.17185580091829
H        -0.67966127245130    1.10958950774026    0.26318360993250

 Bond Distances (Angstroems)
 ---------------------------
C1-C2=1.2120         C2-C1=1.2120         C2-C3=1.4206         C3-C2=1.4206         C3-N4=1.2212         C3-H5=1.1112         
N4-C3=1.2212         H5-C3=1.1112         
 C  H  Rav=1.1112 sigma=0.0000  Rmin=1.1112  Rmax=1.1112     1
 C  C  Rav=1.3163 sigma=0.1043  Rmin=1.2120  Rmax=1.4206     2
 N  C  Rav=1.2212 sigma=0.0000  Rmin=1.2212  Rmax=1.2212     1

 selected bond angles (degree)
 --------------------
C3-C2-C1=161.79                N4-C3-C2=132.55                H5-C3-C2=110.06                H5-C3-N4=117.39                

 selected dihedral angles (degree)
 ---------------------------------
N4-C3-C2-C1=179.00            H5-C3-C2-C1=359.09            
           -------------------------------------------------
          |                Final Singlepoint                |
           -------------------------------------------------

          ...................................................
          :                      SETUP                      :
          :.................................................:
          :  # basis functions                  17          :
          :  # atomic orbitals                  17          :
          :  # shells                            9          :
          :  # electrons                        18          :
          :  max. iterations                   250          :
          :  Hamiltonian                  GFN2-xTB          :
          :  restarted?                      false          :
          :  GBSA solvation                  false          :
          :  PC potential                    false          :
          :  electronic temp.          300.0000000     K    :
          :  accuracy                    1.0000000          :
          :  -> integral cutoff          0.2500000E+02      :
          :  -> integral neglect         0.1000000E-07      :
          :  -> SCF convergence          0.1000000E-05 Eh   :
          :  -> wf. convergence          0.1000000E-03 e    :
          :  Broyden damping             0.4000000          :
          ...................................................

 iter      E             dE          RMSdq      gap      omega  full diag
   1     -9.7463030 -0.974630E+01  0.564E-05    2.55       0.0  T
   2     -9.7463030  0.826006E-12  0.344E-05    2.55    1301.9  T
   3     -9.7463030  0.166054E-10  0.461E-05    2.55     971.1  T

   *** convergence criteria satisfied after 3 iterations ***

         #    Occupation            Energy/Eh            Energy/eV
      -------------------------------------------------------------
         1        2.0000           -0.6827104             -18.5775
       ...           ...                  ...                  ...
         4        2.0000           -0.5738742             -15.6159
         5        2.0000           -0.5232678             -14.2388
         6        2.0000           -0.4735675             -12.8864
         7        2.0000           -0.4566824             -12.4270
         8        2.0000           -0.4548275             -12.3765
         9        1.0000           -0.4269984             -11.6192
        10        1.0000           -0.3872932             -10.5388 (HOMO)
        11                         -0.2934217              -7.9844 (LUMO)
        12                         -0.2110150              -5.7420
        13                         -0.1471319              -4.0037
        14                          0.1332984               3.6272
        15                          0.1956895               5.3250
       ...                                ...                  ...
        17                          1.1068302              30.1184
      -------------------------------------------------------------
                  HL-Gap            0.0938714 Eh            2.5544 eV
             Fermi-level           -0.3906037 Eh          -10.6289 eV

 transition dipole moment (au) for excitation:           9          10
     X       Y       Z   
  -1.9315   0.0040  -0.0232  total (au/Debye):    1.932   4.910
 dE (eV)             :    1.080
 oscillator strength :  0.13968E+00

 SCC (total)                   0 d,  0 h,  0 min,  0.003 sec
 SCC setup                      ...        0 min,  0.000 sec (  1.417%)
 Dispersion                     ...        0 min,  0.000 sec (  0.296%)
 integral evaluation            ...        0 min,  0.001 sec ( 28.221%)
 zeroth order Hamiltonian       ...        0 min,  0.000 sec (  0.353%)
 iterations                     ...        0 min,  0.000 sec ( 12.749%)
 molecular gradient             ...        0 min,  0.001 sec ( 27.438%)
 printout                       ...        0 min,  0.001 sec ( 29.307%)

         :::::::::::::::::::::::::::::::::::::::::::::::::::::
         ::                     SUMMARY                     ::
         :::::::::::::::::::::::::::::::::::::::::::::::::::::
         :: total energy              -9.541266930278 Eh    ::
         :: gradient norm              0.000622605303 Eh/a0 ::
         :: HOMO-LUMO gap              2.554371826357 eV    ::
         ::.................................................::
         :: SCC energy                -9.746303042474 Eh    ::
         :: -> isotropic ES            0.005819699900 Eh    ::
         :: -> anisotropic ES          0.001358436342 Eh    ::
         :: -> anisotropic XC          0.013326241367 Eh    ::
         :: -> dispersion             -0.002097978240 Eh    ::
         :: repulsion energy           0.205036094544 Eh    ::
         :: add. restraining           0.000000000000 Eh    ::
         :::::::::::::::::::::::::::::::::::::::::::::::::::::

           ------------------------------------------------- 
          |                Numerical Hessian                |
           ------------------------------------------------- 
step length          :   0.00500
SCC accuracy         :   0.30000
Hessian scale factor :   1.00000
frozen atoms in %    :   0.00000    0
RMS gradient         :   0.00062
estimated CPU  time      0.00 min
estimated wall time      0.00 min

writing file <hessian>.

 projected vibrational frequencies (cm-1)
eigval :       -0.00    -0.00    -0.00     0.00     0.00     0.00
eigval :      194.83   225.47   497.53   704.88   943.50  1073.96
eigval :     1798.15  2076.47  2659.77
           -------------------------------------------------
          |                Property Printout                |
           -------------------------------------------------

    * Orbital Energies and Occupations

         #    Occupation            Energy/Eh            Energy/eV
      -------------------------------------------------------------
         1        2.0000           -0.6827100             -18.5775
         2        2.0000           -0.6580532             -17.9065
         3        2.0000           -0.6086669             -16.5627
         4        2.0000           -0.5738740             -15.6159
         5        2.0000           -0.5232675             -14.2388
         6        2.0000           -0.4735672             -12.8864
         7        2.0000           -0.4566826             -12.4270
         8        2.0000           -0.4548277             -12.3765
         9        1.0000           -0.4269987             -11.6192
        10        1.0000           -0.3872929             -10.5388 (HOMO)
        11                         -0.2934216              -7.9844 (LUMO)
        12                         -0.2110155              -5.7420
        13                         -0.1471321              -4.0037
        14                          0.1332985               3.6272
        15                          0.1956896               5.3250
        16                          0.6479007              17.6303
        17                          1.1068299              30.1184
      -------------------------------------------------------------
                  HL-Gap            0.0938712 Eh            2.5544 eV
             Fermi-level           -0.3906037 Eh          -10.6289 eV

     #   Z        covCN         q      C6AA      α(0)
     1   6 C      0.982    -0.069    38.067    10.363
     2   6 C      1.965     0.006    30.918     8.980
     3   6 C      2.812     0.120    25.349     8.249
     4   7 N      0.915    -0.188    25.060     7.238
     5   1 H      0.921     0.131     1.527     1.933

 Mol. C6AA /au·bohr⁶  :        527.971315
 Mol. C8AA /au·bohr⁸  :      13883.730296
 Mol. α(0) /au        :         36.762668


Wiberg/Mayer (AO) data.
largest (>0.10) Wiberg bond orders for each atom
          total WBO             WBO to atom ...
     1  C   2.914        C    2 2.674    N    4 0.199
     2  C   3.772        C    1 2.674    C    3 1.033
     3  C   3.895        N    4 2.039    C    2 1.033    H    5 0.796
     4  N   2.299        C    3 2.039    C    1 0.199
     5  H   0.834        C    3 0.796

MOs/occ written to file <molden.input>


molecular dipole:
                 x           y           z       tot (Debye)
 q only:        0.014       0.527       0.130
   full:        0.178       0.675       0.170       1.826
molecular quadrupole (traceless):
                xx          xy          yy          xz          yz          zz
 q only:       -2.491      -1.360       1.472      -0.379       0.097       1.019
  q+dip:       -2.069      -2.653       1.743      -0.687       0.329       0.326
   full:       -4.437      -3.207       2.526      -0.868       0.111       1.911

           -------------------------------------------------
          |                Geometry Summary                 |
           -------------------------------------------------

      molecular mass/u    :       51.0468517
   center of mass at/Å    :        0.0844581      -0.2630868      -0.0634469
  moments of inertia/u·Å² :        0.4678867E+01   0.9651436E+02   0.1011929E+03
rotational constants/cm⁻¹ :        0.3602930E+01   0.1746645E+00   0.1665891E+00

 * 2 selected distances

     #   Z        #   Z                                     value/Å
     1   6 C      2   6 C                                 1.2120102 (min)
     3   6 C      4   7 N                                 1.2212468 (max)

 * 2 distinct bonds (by element types)

   Z      Z             #   av. dist./Å        max./Å        min./Å
   6 C    6 C           1     1.2120102     1.2120102     1.2120102
   6 C    7 N           1     1.2212468     1.2212468     1.2212468

           -------------------------------------------------
          |               Frequency Printout                |
           -------------------------------------------------
 projected vibrational frequencies (cm-1)
eigval :       -0.00    -0.00    -0.00     0.00     0.00     0.00
eigval :      194.83   225.47   497.53   704.88   943.50  1073.96
eigval :     1798.15  2076.47  2659.77
Molecule has the following symmetry elements: (sigma) 
It seems to be the Cs point group
 reduced masses (amu)
   1:  6.93   2: 13.50   3: 12.10   4: 12.02   5: 12.84   6: 12.35   7: 11.93   8: 11.87
   9: 12.44  10:  6.60  11: 11.18  12:  2.87  13: 12.84  14: 12.01  15:  1.66
 IR intensities (amu)
   1:  0.31   2:  0.15   3:  0.04   4:  0.02   5:  0.14   6:  0.05   7:  0.18   8:  0.23
   9:  0.56  10:  0.04  11:  0.32  12:  0.10  13:  0.74  14:  1.20  15:  0.08
 Raman intensities (amu)
   1:  0.00   2:  0.00   3:  0.00   4:  0.00   5:  0.00   6:  0.00   7:  0.00   8:  0.00
   9:  0.00  10:  0.00  11:  0.00  12:  0.00  13:  0.00  14:  0.00  15:  0.00
 output can be read by thermo (or use thermo option).
 writing <g98.out> molden fake output.
 recommended (thermochemical) frequency scaling factor: 1.0
           -------------------------------------------------
          |             Thermodynamic Functions             |
           -------------------------------------------------

cs  symmetry found (for desy threshold:  0.10E+00) used in thermo

          ...................................................
          :                      SETUP                      :
          :.................................................:
          :  # frequencies                           9      :
          :  # imaginary freq.                       0      :
          :  linear?                             false      :
          :  only rotor calc.                    false      :
          :  symmetry                               cs      :
          :  rotational number                       1      :
          :  scaling factor                  1.0000000      :
          :  rotor cutoff                   50.0000000 cm⁻¹ :
          :  imag. cutoff                  -20.0000000 cm⁻¹ :
          :.................................................:

    mode    ω/cm⁻¹     T·S(HO)/kcal·mol⁻¹    T·S(FR)/kcal·mol⁻¹   T·S(vib)
   ------------------------------------------------------------------------
       1    194.83    -0.00000 ( 99.57%)     0.01182 (  0.43%)     0.00005
       2    225.47    -0.00000 ( 99.76%)     0.01327 (  0.24%)     0.00003
   ------------------------------------------------------------------------

   temp. (K)  partition function   enthalpy   heat capacity  entropy
                                   cal/mol     cal/K/mol   cal/K/mol   J/K/mol
 298.15  VIB   2.86                  942.955      6.506      5.252
         ROT  0.163E+05              888.752      2.981     22.259
         INT  0.467E+05             1831.707      9.487     27.511
         TR   0.353E+27             1481.254      4.968     37.697
         TOT                        3312.9611    14.4555    65.2077   272.8291

   temp. (K)  partition function   enthalpy   heat capacity  entropy
                                   cal/mol     cal/K/mol   cal/K/mol   J/K/mol
 120.00  VIB   1.19                  110.056      2.620      1.267
         ROT  0.417E+04              357.707      2.981     19.546
         INT  0.496E+04              467.763      5.600     20.813
         TR   0.901E+26              596.178      4.968     33.177
         TOT                        1063.9410    10.5686    53.9897   225.8931

   temp. (K)  partition function   enthalpy   heat capacity  entropy
                                   cal/mol     cal/K/mol   cal/K/mol   J/K/mol
 100.00  VIB   1.11                   63.304      2.044      0.842
         ROT  0.317E+04              298.089      2.981     19.002
         INT  0.352E+04              361.393      5.025     19.845
         TR   0.685E+26              496.815      4.968     32.272
         TOT                         858.2085     9.9930    52.1164   218.0552

   temp. (K)  partition function   enthalpy   heat capacity  entropy
                                   cal/mol     cal/K/mol   cal/K/mol   J/K/mol
  80.00  VIB   1.05                   28.838      1.388      0.460
         ROT  0.227E+04              238.471      2.981     18.337
         INT  0.238E+04              267.309      4.369     18.797
         TR   0.490E+26              397.452      4.968     31.164
         TOT                         664.7613     9.3374    49.9611   209.0374

   temp. (K)  partition function   enthalpy   heat capacity  entropy
                                   cal/mol     cal/K/mol   cal/K/mol   J/K/mol
  60.00  VIB   1.01                    8.174      0.678      0.167
         ROT  0.147E+04              178.853      2.981     17.480
         INT  0.149E+04              187.028      3.659     17.647
         TR   0.319E+26              298.089      4.968     29.735
         TOT                         485.1168     8.6273    47.3818   198.2454

   temp. (K)  partition function   enthalpy   heat capacity  entropy
                                   cal/mol     cal/K/mol   cal/K/mol   J/K/mol
  40.00  VIB   1.00                    0.698      0.128      0.021
         ROT   802.                  119.236      2.981     16.271
         INT   803.                  119.934      3.109     16.292
         TR   0.173E+26              198.726      4.968     27.722
         TOT                         318.6598     8.0768    44.0135   184.1523

   temp. (K)  partition function   enthalpy   heat capacity  entropy
                                   cal/mol     cal/K/mol   cal/K/mol   J/K/mol
  20.00  VIB   1.00                    0.001      0.000     -0.004
         ROT   284.                   59.618      2.981     14.205
         INT   284.                   59.618      2.981     14.201
         TR   0.613E+25               99.363      4.968     24.280
         TOT                         158.9813     7.9494    38.4808   161.0037

   temp. (K)  partition function   enthalpy   heat capacity  entropy
                                   cal/mol     cal/K/mol   cal/K/mol   J/K/mol
  10.00  VIB   1.00                    0.000      0.000     -0.009
         ROT   100.                   29.809      2.981     12.139
         INT   100.                   29.809      2.981     12.130
         TR   0.217E+25               49.681      4.968     20.838
         TOT                          79.4904     7.9490    32.9679   137.9376

       T/K    H(0)-H(T)+PV         H(T)/Eh          T*S/Eh         G(T)/Eh
   ------------------------------------------------------------------------
    298.15    0.527954E-02    0.284589E-01    0.309823E-01   -0.252341E-02
    120.00    0.169550E-02    0.248748E-01    0.103246E-01    0.145503E-01
    100.00    0.136764E-02    0.245470E-01    0.830528E-02    0.162417E-01
     80.00    0.105936E-02    0.242387E-01    0.636945E-02    0.178692E-01
     60.00    0.773083E-03    0.239524E-01    0.453046E-02    0.194220E-01
     40.00    0.507817E-03    0.236872E-01    0.280560E-02    0.208816E-01
     20.00    0.253353E-03    0.234327E-01    0.122646E-02    0.222062E-01
     10.00    0.126676E-03    0.233060E-01    0.525376E-03    0.227806E-01 (used)
   ------------------------------------------------------------------------

         :::::::::::::::::::::::::::::::::::::::::::::::::::::
         ::                  THERMODYNAMIC                  ::
         :::::::::::::::::::::::::::::::::::::::::::::::::::::
         :: total free energy          -9.518486294187 Eh   ::
         ::.................................................::
         :: total energy               -9.541266929991 Eh   ::
         :: zero point energy           0.023179336261 Eh   ::
         :: G(RRHO) w/o ZPVE           -0.000398700456 Eh   ::
         :: G(RRHO) contrib.            0.022780635804 Eh   ::
         :::::::::::::::::::::::::::::::::::::::::::::::::::::

optimized geometry written to: xtbopt.xyz


           -------------------------------------------------
          | TOTAL ENERGY               -9.541266929991 Eh   |
          | TOTAL ENTHALPY             -9.517960917715 Eh   |
          | TOTAL FREE ENERGY          -9.518486294187 Eh   |
          | GRADIENT NORM               0.000621795686 Eh/α |
          | HOMO-LUMO GAP               2.554366695421 eV   |
           -------------------------------------------------

------------------------------------------------------------------------
 * finished run on 2020/05/12 at 11:44:53.176     
------------------------------------------------------------------------
 total:
 * wall-time:     0 d,  0 h,  0 min,  0.159 sec
 *  cpu-time:     0 d,  0 h,  0 min,  0.159 sec
 * ratio c/w:     0.999 speedup
 SCF:
 * wall-time:     0 d,  0 h,  0 min,  0.005 sec
 *  cpu-time:     0 d,  0 h,  0 min,  0.005 sec
 * ratio c/w:     0.999 speedup
 ANC optimizer:
 * wall-time:     0 d,  0 h,  0 min,  0.061 sec
 *  cpu-time:     0 d,  0 h,  0 min,  0.061 sec
 * ratio c/w:     0.999 speedup
 numerical hessian:
 * wall-time:     0 d,  0 h,  0 min,  0.076 sec
 *  cpu-time:     0 d,  0 h,  0 min,  0.076 sec
 * ratio c/w:     0.999 speedup

