      -----------------------------------------------------------      
     |                   =====================                   |     
     |                           x T B                           |     
     |                   =====================                   |     
     |                         S. Grimme                         |     
     |          Mulliken Center for Theoretical Chemistry        |     
     |                    University of Bonn                     |     
      -----------------------------------------------------------      

   * xtb version 6.2.2 (9d81278992624c895f80dd42a50cac0aa55982e2) compiled by '@Darwin' on 04/03/2020

   xtb is free software: you can redistribute it and/or modify it under
   the terms of the GNU Lesser General Public License as published by
   the Free Software Foundation, either version 3 of the License, or
   (at your option) any later version.
   
   xtb is distributed in the hope that it will be useful,
   but WITHOUT ANY WARRANTY; without even the implied warranty of
   MERCHANTABILITY or FITNESS FOR A PARTICULAR PURPOSE.  See the
   GNU Lesser General Public License for more details.
   
   Cite this work as:
   * S. Grimme, C. Bannwarth, P. Shushkov, J. Chem. Theory Comput., 2017,
     13, 1989-2009. DOI: 10.1021/acs.jctc.7b00118
   * C. Bannwarth, S. Ehlert and S. Grimme., J. Chem. Theory Comput., 2019,
     15, 1652-1671. DOI: 10.1021/acs.jctc.8b01176
   * P. Pracht, E. Caldeweyher, S. Ehlert, S. Grimme, ChemRxiv, 2019, preprint.
     DOI: 10.26434/chemrxiv.8326202.v1
   
   for DFT-D4:
   * E. Caldeweyher, C. Bannwarth and S. Grimme, J. Chem. Phys., 2017,
     147, 034112. DOI: 10.1063/1.4993215
   * E. Caldeweyher, S. Ehlert, A. Hansen, H. Neugebauer, S. Spicher,
     C. Bannwarth and S. Grimme, J. Chem. Phys., 2019, 150, 154122.
     DOI: 10.1063/1.5090222
   
   for sTDA-xTB:
   * S. Grimme and C. Bannwarth, J. Chem. Phys., 2016, 145, 054103.
     DOI: 10.1063/1.4959605
   
   in the mass-spec context:
   * V. Asgeirsson, C. Bauer and S. Grimme, Chem. Sci., 2017, 8, 4879.
     DOI: 10.1039/c7sc00601b
   
   for metadynamics refer to:
   * S. Grimme, J. Chem. Theory Comput., 2019, 155, 2847-2862
     DOI: 10.1021/acs.jctc.9b00143
   
   with help from (in alphabetical order)
   C. Bannwarth, F. Bohle, G. Brandenburg, E. Caldeweyher, M. Checinski,
   S. Dohm, S. Ehlert, S. Ehrlich, F. März, H. Neugebauer, J. Pisarek,
   P. Pracht, P. Shushkov, and S. Spicher.
   
 * started run on 2020/05/12 at 11:44:06.588     

           -------------------------------------------------
          |                Calculation Setup                |
           -------------------------------------------------

          program call               : xtb --input C4N1_20_S_1.input C4N1_20_S_1.xyz --ohess --molden --namespace C4N1_20_S_1 output.out
          calculation namespace      : C4N1_20_S_1
          coordinate file            : C4N1_20_S_1.xyz
          number of atoms            :                     5
          number of electrons        :                    21
          charge                     :                     0
          spin                       :                   0.5
          first test random number   :      0.44545349983195

   ID    Z sym.   atoms
    1    6 C      1, 3-5
    2    7 N      2

           -------------------------------------------------
          |                 G F N 2 - x T B                 |
           -------------------------------------------------

        Reference                      10.1021/acs.jctc.8b01176
      * Hamiltonian:
        H0-scaling (s, p, d)           1.850000    2.230000    2.230000
        zeta-weighting                 0.500000
      * Dispersion:
        s8                             2.700000
        a1                             0.520000
        a2                             5.000000
        s9                             5.000000
      * Repulsion:
        kExp                           1.500000    1.000000
        rExp                           1.000000
      * Coulomb:
        alpha                          2.000000
        third order                    shell-resolved
        anisotropic                    true
        a3                             3.000000
        a5                             4.000000
        cn-shift                       1.200000
        cn-exp                         4.000000
        max-rad                        5.000000


          ...................................................
          :                      SETUP                      :
          :.................................................:
          :  # basis functions                  20          :
          :  # atomic orbitals                  20          :
          :  # shells                           10          :
          :  # electrons                        21          :
          :  max. iterations                   250          :
          :  Hamiltonian                  GFN2-xTB          :
          :  restarted?                      false          :
          :  GBSA solvation                  false          :
          :  PC potential                    false          :
          :  electronic temp.          300.0000000     K    :
          :  accuracy                    1.0000000          :
          :  -> integral cutoff          0.2500000E+02      :
          :  -> integral neglect         0.1000000E-07      :
          :  -> SCF convergence          0.1000000E-05 Eh   :
          :  -> wf. convergence          0.1000000E-03 e    :
          :  Broyden damping             0.4000000          :
          ...................................................

 iter      E             dE          RMSdq      gap      omega  full diag
   1    -10.7867198 -0.107867E+02  0.116E+01    0.39       0.0  T
   2     -8.7266100  0.206011E+01  0.147E+01    1.05       1.0  T
   3     -8.7072363  0.193738E-01  0.134E+01    1.05       1.0  T
   4    -10.9125499 -0.220531E+01  0.631E+00    0.26       1.0  T
   5    -10.7229099  0.189640E+00  0.618E+00    0.35       1.0  T
   6    -10.9395717 -0.216662E+00  0.334E+00    0.26       1.0  T
   7    -10.9536993 -0.141276E-01  0.246E+00    0.17       1.0  T
   8    -10.9501233  0.357605E-02  0.334E+00    0.16       1.0  T
   9    -10.9579219 -0.779860E-02  0.713E-01    0.14       1.0  T
  10    -10.9583051 -0.383233E-03  0.575E-01    0.14       1.0  T
  11    -10.9585678 -0.262663E-03  0.183E-01    0.15       1.0  T
  12    -10.9586032 -0.354446E-04  0.131E-01    0.15       1.0  T
  13    -10.9586027  0.541050E-06  0.585E-02    0.14       1.0  T
  14    -10.9586209 -0.182455E-04  0.334E-02    0.14       1.3  T
  15    -10.9586230 -0.208349E-05  0.334E-02    0.14       1.3  T
  16    -10.9586237 -0.711219E-06  0.870E-03    0.14       5.1  T
  17    -10.9586240 -0.296067E-06  0.747E-03    0.14       6.0  T
  18    -10.9586242 -0.186624E-06  0.134E-03    0.14      33.3  T
  19    -10.9586242 -0.164910E-08  0.733E-04    0.14      61.0  T
  20    -10.9586242 -0.106414E-08  0.189E-04    0.14     237.1  T

   *** convergence criteria satisfied after 20 iterations ***

         #    Occupation            Energy/Eh            Energy/eV
      -------------------------------------------------------------
         1        2.0000           -0.7601900             -20.6858
       ...           ...                  ...                  ...
         5        2.0000           -0.6085483             -16.5594
         6        2.0000           -0.5388767             -14.6636
         7        2.0000           -0.5243086             -14.2672
         8        2.0000           -0.5077179             -13.8157
         9        1.9996           -0.4534603             -12.3393
        10        1.9977           -0.4516980             -12.2913
        11        0.9406           -0.4402857             -11.9808 (HOMO)
        12        0.0620           -0.4351243             -11.8403 (LUMO)
        13                         -0.3816320             -10.3847
        14                         -0.3448815              -9.3847
        15                         -0.3138980              -8.5416
        16                         -0.1475129              -4.0140
       ...                                ...                  ...
        20                          0.1896757               5.1613
      -------------------------------------------------------------
                  HL-Gap            0.0051613 Eh            0.1404 eV
             Fermi-level           -0.4418148 Eh          -12.0224 eV

 SCC (total)                   0 d,  0 h,  0 min,  0.005 sec
 SCC setup                      ...        0 min,  0.000 sec (  1.365%)
 Dispersion                     ...        0 min,  0.000 sec (  0.286%)
 integral evaluation            ...        0 min,  0.001 sec ( 22.082%)
 zeroth order Hamiltonian       ...        0 min,  0.000 sec (  0.345%)
 iterations                     ...        0 min,  0.003 sec ( 48.821%)
 molecular gradient             ...        0 min,  0.001 sec ( 25.447%)
 printout                       ...        0 min,  0.000 sec (  1.483%)

         :::::::::::::::::::::::::::::::::::::::::::::::::::::
         ::                     SUMMARY                     ::
         :::::::::::::::::::::::::::::::::::::::::::::::::::::
         :: total energy             -10.891101251593 Eh    ::
         :: gradient norm              0.309770448313 Eh/a0 ::
         :: HOMO-LUMO gap              0.140446392924 eV    ::
         ::.................................................::
         :: SCC energy               -10.958624186419 Eh    ::
         :: -> isotropic ES           -0.028860237366 Eh    ::
         :: -> anisotropic ES          0.003019000115 Eh    ::
         :: -> anisotropic XC          0.009202016411 Eh    ::
         :: -> dispersion             -0.002913599565 Eh    ::
         :: repulsion energy           0.067522942517 Eh    ::
         :: add. restraining           0.000000000000 Eh    ::
         :::::::::::::::::::::::::::::::::::::::::::::::::::::

      ----------------------------------------------------------- 
     |                   =====================                   |
     |                        A N C O P T                        |
     |                   =====================                   |
     |               Approximate Normal Coordinate               |
     |                Rational Function Optimizer                |
      ----------------------------------------------------------- 

          ...................................................
          :                      SETUP                      :
          :.................................................:
          :   optimization level            normal          :
          :   max. optcycles                   200          :
          :   ANC micro-cycles                  20          :
          :   degrees of freedom                 9          :
          :.................................................:
          :   RF solver                   davidson          :
          :   write xtbopt.log                true          :
          :   linear?                        false          :
          :   energy convergence         0.5000000E-05 Eh   :
          :   grad. convergence          0.1000000E-02 Eh/α :
          :   maximium RF displ.         1.0000000          :
          :   Hlow (freq-cutoff)         0.1000000E-01      :
          :   Hmax (freq-cutoff)         5.0000000          :
          :   S6 in model hess.         20.0000000          :
          ...................................................

generating ANC from model Hessian ...
Using Lindh-Hessian (1995)
 Shifting diagonal of input Hessian by    0.0000000000000000     
 Lowest  eigenvalues of input Hessian
   -0.000000   -0.000000   -0.000000    0.000000    0.000000    0.000000
    0.012270    0.061102    0.081278    0.117396    0.793134    0.816967
    0.832315    1.092062    1.477603
 Highest eigenvalues
    0.117396    0.793134    0.816967    0.832315    1.092062    1.477603


........................................................................
.............................. CYCLE    1 ..............................
........................................................................
   1    -10.9586242 -0.109586E+02  0.109E-04    0.14       0.0  T
   2    -10.9586242  0.807816E-09  0.303E-04    0.14     147.4  T
   3    -10.9586242 -0.814511E-09  0.645E-05    0.14     693.6  T
     SCC iter.                  ...        0 min,  0.001 sec
     gradient                   ...        0 min,  0.001 sec
 * total energy  :   -10.8911013 Eh     change       -0.4386926E-09 Eh
   gradient norm :     0.3097704 Eh/α   predicted     0.0000000E+00 (-100.00%)
   displ. norm   :     0.3429060 α      lambda       -0.1033363E+00
   maximum displ.:     0.2966145 α      in ANC's #5, #7, #4, ...

........................................................................
.............................. CYCLE    2 ..............................
........................................................................
   1    -11.0749938 -0.110750E+02  0.318E+00    0.67       0.0  T
   2    -10.5599616  0.515032E+00  0.699E+00    0.47       1.0  T
   3    -10.7669960 -0.207034E+00  0.624E+00    0.58       1.0  T
   4    -10.8910502 -0.124054E+00  0.500E+00    0.66       1.0  T
   5    -11.0925335 -0.201483E+00  0.149E+00    0.39       1.0  T
   6    -11.0943587 -0.182513E-02  0.131E+00    0.41       1.0  T
   7    -11.0952293 -0.870637E-03  0.114E+00    0.42       1.0  T
   8    -11.0974090 -0.217967E-02  0.718E-01    0.46       1.0  T
   9    -11.0988485 -0.143956E-02  0.353E-01    0.50       1.0  T
  10    -11.0988396  0.896320E-05  0.380E-01    0.50       1.0  T
  11    -11.0988193  0.203083E-04  0.146E-01    0.51       1.0  T
  12    -11.0988590 -0.397128E-04  0.139E-01    0.51       1.0  T
  13    -11.0989089 -0.499110E-04  0.802E-02    0.50       1.0  T
  14    -11.0989223 -0.134572E-04  0.600E-02    0.50       1.0  T
  15    -11.0989436 -0.212651E-04  0.185E-02    0.49       2.4  T
  16    -11.0989448 -0.124226E-05  0.410E-03    0.49      10.9  T
  17    -11.0989449 -0.291360E-07  0.117E-03    0.49      38.3  T
  18    -11.0989449 -0.454250E-09  0.488E-04    0.49      91.7  T
  19    -11.0989449 -0.666729E-09  0.721E-05    0.49     620.4  T
     SCC iter.                  ...        0 min,  0.002 sec
     gradient                   ...        0 min,  0.001 sec
 * total energy  :   -10.9831375 Eh     change       -0.9203625E-01 Eh
   gradient norm :     0.2166921 Eh/α   predicted    -0.5774350E-01 ( -37.26%)
   displ. norm   :     0.5957959 α      lambda       -0.1230583E+00
   maximum displ.:     0.5039017 α      in ANC's #5, #4, #7, ...

........................................................................
.............................. CYCLE    3 ..............................
........................................................................
   1    -11.2974681 -0.112975E+02  0.451E+00    1.80       0.0  T
   2    -11.1383996  0.159069E+00  0.458E+00    0.24       1.0  T
   3    -11.0758307  0.625689E-01  0.569E+00    1.72       1.0  T
   4    -11.2976563 -0.221826E+00  0.228E+00    1.14       1.0  T
   5    -11.3122551 -0.145987E-01  0.181E+00    1.25       1.0  T
   6    -11.3162521 -0.399699E-02  0.162E+00    1.32       1.0  T
   7    -11.3301910 -0.139389E-01  0.574E-01    1.57       1.0  T
   8    -11.3285234  0.166754E-02  0.729E-01    1.53       1.0  T
   9    -11.3316419 -0.311850E-02  0.257E-01    1.64       1.0  T
  10    -11.3316895 -0.475532E-04  0.243E-01    1.64       1.0  T
  11    -11.3319398 -0.250299E-03  0.129E-01    1.63       1.0  T
  12    -11.3320644 -0.124590E-03  0.292E-02    1.62       1.5  T
  13    -11.3320698 -0.539259E-05  0.123E-02    1.62       3.6  T
  14    -11.3320701 -0.326605E-06  0.996E-03    1.62       4.5  T
  15    -11.3320705 -0.466611E-06  0.582E-03    1.62       7.7  T
  16    -11.3320708 -0.243671E-06  0.279E-04    1.62     160.5  T
  17    -11.3320708  0.329267E-09  0.299E-04    1.62     149.6  T
     SCC iter.                  ...        0 min,  0.002 sec
     gradient                   ...        0 min,  0.001 sec
 * total energy  :   -10.9838416 Eh     change       -0.7041156E-03 Eh
   gradient norm :     0.6960748 Eh/α   predicted    -0.8337031E-01 (*******%)
   displ. norm   :     0.3524887 α      lambda       -0.1781324E+00
   maximum displ.:     0.2649522 α      in ANC's #2, #7, #8, ...

........................................................................
.............................. CYCLE    4 ..............................
........................................................................
   1    -11.1551607 -0.111552E+02  0.311E+00    2.03       0.0  T
   2     -9.6061652  0.154900E+01  0.120E+01    0.11       1.0  T
   3    -11.1635913 -0.155743E+01  0.280E+00    1.46       1.0  T
   4    -11.1987069 -0.351156E-01  0.196E+00    1.71       1.0  T
   5    -11.2256197 -0.269127E-01  0.812E-01    1.91       1.0  T
   6    -11.2291146 -0.349490E-02  0.772E-01    1.95       1.0  T
   7    -11.2239859  0.512867E-02  0.104E+00    1.97       1.0  T
   8    -11.2301322 -0.614630E-02  0.349E-01    1.95       1.0  T
   9    -11.2295921  0.540127E-03  0.238E-01    1.94       1.0  T
  10    -11.2300188 -0.426769E-03  0.126E-01    1.95       1.0  T
  11    -11.2301332 -0.114376E-03  0.729E-02    1.95       1.0  T
  12    -11.2301615 -0.282554E-04  0.457E-02    1.96       1.0  T
  13    -11.2301617 -0.294873E-06  0.198E-02    1.96       2.3  T
  14    -11.2301605  0.124496E-05  0.149E-02    1.96       3.0  T
  15    -11.2301618 -0.132395E-05  0.906E-04    1.96      49.4  T
  16    -11.2301618  0.282516E-08  0.595E-04    1.96      75.2  T
  17    -11.2301618 -0.338176E-08  0.871E-05    1.96     513.6  T
     SCC iter.                  ...        0 min,  0.002 sec
     gradient                   ...        0 min,  0.001 sec
 * total energy  :   -11.0513935 Eh     change       -0.6755187E-01 Eh
   gradient norm :     0.0987064 Eh/α   predicted    -0.1001325E+00 (  48.23%)
   displ. norm   :     0.2223756 α      lambda       -0.1269089E-01
   maximum displ.:     0.1785396 α      in ANC's #4, #5, #8, ...

........................................................................
.............................. CYCLE    5 ..............................
........................................................................
   1    -11.2226120 -0.112226E+02  0.174E+00    2.09       0.0  T
   2    -11.0413014  0.181311E+00  0.405E+00    1.15       1.0  T
   3    -11.2350965 -0.193795E+00  0.115E+00    2.07       1.0  T
   4    -11.2312972  0.379928E-02  0.107E+00    2.10       1.0  T
   5    -11.2292037  0.209349E-02  0.122E+00    2.04       1.0  T
   6    -11.2325648 -0.336112E-02  0.106E+00    2.05       1.0  T
   7    -11.2413995 -0.883464E-02  0.626E-02    2.09       1.0  T
   8    -11.2413505  0.489556E-04  0.773E-02    2.09       1.0  T
   9    -11.2413644 -0.139220E-04  0.709E-02    2.09       1.0  T
  10    -11.2414070 -0.426038E-04  0.264E-03    2.09      16.9  T
  11    -11.2414069  0.109343E-06  0.368E-03    2.09      12.2  T
  12    -11.2414070 -0.112520E-06  0.103E-03    2.09      43.3  T
  13    -11.2414069  0.151749E-06  0.427E-03    2.09      10.5  T
  14    -11.2414070 -0.141864E-06  0.148E-03    2.09      30.3  T
  15    -11.2414070 -0.189727E-07  0.114E-05    2.09    3914.0  T
  16    -11.2414070  0.854357E-10  0.991E-05    2.09     451.2  T
     SCC iter.                  ...        0 min,  0.002 sec
     gradient                   ...        0 min,  0.001 sec
 * total energy  :   -11.0609366 Eh     change       -0.9543147E-02 Eh
   gradient norm :     0.0641883 Eh/α   predicted    -0.6659228E-02 ( -30.22%)
   displ. norm   :     0.2655031 α      lambda       -0.1359809E-01
   maximum displ.:     0.1796231 α      in ANC's #5, #8, #2, ...

........................................................................
.............................. CYCLE    6 ..............................
........................................................................
   1    -11.2459700 -0.112460E+02  0.200E+00    2.14       0.0  T
   2    -10.9608784  0.285092E+00  0.504E+00    1.02       1.0  T
   3    -11.2318785 -0.271000E+00  0.217E+00    2.02       1.0  T
   4    -11.2502890 -0.184105E-01  0.156E+00    2.12       1.0  T
   5    -11.2565145 -0.622549E-02  0.138E+00    2.09       1.0  T
   6    -11.2651738 -0.865933E-02  0.895E-01    2.10       1.0  T
   7    -11.2716169 -0.644311E-02  0.254E-01    2.11       1.0  T
   8    -11.2720595 -0.442537E-03  0.622E-02    2.11       1.0  T
   9    -11.2720808 -0.213072E-04  0.454E-02    2.11       1.0  T
  10    -11.2720972 -0.164487E-04  0.102E-02    2.11       4.4  T
  11    -11.2720977 -0.536154E-06  0.548E-03    2.11       8.2  T
  12    -11.2720978 -0.737631E-07  0.432E-03    2.11      10.4  T
  13    -11.2720979 -0.981019E-07  0.258E-03    2.11      17.4  T
  14    -11.2720979 -0.292914E-07  0.189E-03    2.11      23.7  T
  15    -11.2720980 -0.318900E-07  0.151E-04    2.11     296.7  T
  16    -11.2720980 -0.195195E-09  0.201E-05    2.11    2222.1  T
     SCC iter.                  ...        0 min,  0.002 sec
     gradient                   ...        0 min,  0.001 sec
 * total energy  :   -11.0685276 Eh     change       -0.7590955E-02 Eh
   gradient norm :     0.0414575 Eh/α   predicted    -0.7278317E-02 (  -4.12%)
   displ. norm   :     0.2282882 α      lambda       -0.4001619E-02
   maximum displ.:     0.1608062 α      in ANC's #2, #5, #8, ...

........................................................................
.............................. CYCLE    7 ..............................
........................................................................
   1    -11.2472015 -0.112472E+02  0.156E+00    2.30       0.0  T
   2    -11.0257509  0.221451E+00  0.445E+00    1.31       1.0  T
   3    -11.2189587 -0.193208E+00  0.235E+00    2.16       1.0  T
   4    -11.2525394 -0.335807E-01  0.129E+00    2.24       1.0  T
   5    -11.2259182  0.266212E-01  0.202E+00    2.29       1.0  T
   6    -11.2547442 -0.288260E-01  0.111E+00    2.28       1.0  T
   7    -11.2654739 -0.107297E-01  0.237E-01    2.26       1.0  T
   8    -11.2659832 -0.509299E-03  0.678E-02    2.27       1.0  T
   9    -11.2659944 -0.111573E-04  0.584E-02    2.27       1.0  T
  10    -11.2658250  0.169326E-03  0.147E-01    2.26       1.0  T
  11    -11.2660177 -0.192701E-03  0.295E-02    2.27       1.5  T
  12    -11.2660255 -0.770357E-05  0.713E-03    2.27       6.3  T
  13    -11.2660253  0.128169E-06  0.788E-03    2.27       5.7  T
  14    -11.2660259 -0.536464E-06  0.161E-03    2.27      27.8  T
  15    -11.2660259 -0.223716E-07  0.406E-04    2.27     110.2  T
  16    -11.2660259 -0.150244E-08  0.316E-06    2.27   14158.6  T
     SCC iter.                  ...        0 min,  0.002 sec
     gradient                   ...        0 min,  0.002 sec
 * total energy  :   -11.0681271 Eh     change        0.4004654E-03 Eh
   gradient norm :     0.0544761 Eh/α   predicted    -0.2105079E-02 (-625.66%)
   displ. norm   :     0.1317116 α      lambda       -0.3757394E-02
   maximum displ.:     0.1066855 α      in ANC's #2, #5, #4, ...

........................................................................
.............................. CYCLE    8 ..............................
........................................................................
   1    -11.2788130 -0.112788E+02  0.597E-01    2.16       0.0  T
   2    -11.1167098  0.162103E+00  0.397E+00    2.08       1.0  T
   3    -11.2785276 -0.161818E+00  0.562E-01    2.17       1.0  T
   4    -11.2619746  0.165530E-01  0.136E+00    2.18       1.0  T
   5    -11.2799690 -0.179944E-01  0.209E-01    2.16       1.0  T
   6    -11.2760489  0.392016E-02  0.675E-01    2.16       1.0  T
   7    -11.2778341 -0.178528E-02  0.508E-01    2.16       1.0  T
   8    -11.2801711 -0.233695E-02  0.392E-02    2.17       1.1  T
   9    -11.2801843 -0.132215E-04  0.126E-02    2.17       3.6  T
  10    -11.2801848 -0.450912E-06  0.365E-03    2.17      12.2  T
  11    -11.2801844  0.377583E-06  0.686E-03    2.17       6.5  T
  12    -11.2801848 -0.387660E-06  0.175E-03    2.17      25.5  T
  13    -11.2801848 -0.229620E-07  0.743E-04    2.17      60.2  T
  14    -11.2801848 -0.246429E-08  0.554E-04    2.17      80.7  T
     SCC iter.                  ...        0 min,  0.001 sec
     gradient                   ...        0 min,  0.001 sec
 * total energy  :   -11.0697833 Eh     change       -0.1656167E-02 Eh
   gradient norm :     0.0050114 Eh/α   predicted    -0.1911286E-02 (  15.40%)
   displ. norm   :     0.0269236 α      lambda       -0.8377899E-04
   maximum displ.:     0.0176305 α      in ANC's #1, #4, #2, ...

........................................................................
.............................. CYCLE    9 ..............................
........................................................................
   1    -11.2775484 -0.112775E+02  0.259E-01    2.14       0.0  T
   2    -11.2173689  0.601795E-01  0.236E+00    2.01       1.0  T
   3    -11.2778047 -0.604357E-01  0.169E-01    2.15       1.0  T
   4    -11.2778097 -0.499678E-05  0.163E-01    2.14       1.0  T
   5    -11.2780372 -0.227520E-03  0.567E-02    2.15       1.0  T
   6    -11.2780302  0.695862E-05  0.631E-02    2.15       1.0  T
   7    -11.2780415 -0.113018E-04  0.516E-02    2.15       1.0  T
   8    -11.2780568 -0.152388E-04  0.320E-02    2.15       1.4  T
   9    -11.2780633 -0.649548E-05  0.191E-02    2.15       2.3  T
  10    -11.2780656 -0.237851E-05  0.100E-02    2.15       4.5  T
  11    -11.2780665 -0.903530E-06  0.151E-03    2.15      29.7  T
  12    -11.2780666 -0.192784E-07  0.402E-04    2.15     111.3  T
  13    -11.2780666 -0.139682E-08  0.969E-05    2.15     461.5  T
     SCC iter.                  ...        0 min,  0.001 sec
     gradient                   ...        0 min,  0.001 sec
 * total energy  :   -11.0698272 Eh     change       -0.4394042E-04 Eh
   gradient norm :     0.0045423 Eh/α   predicted    -0.4192010E-04 (  -4.60%)
   displ. norm   :     0.0287207 α      lambda       -0.3410594E-04
   maximum displ.:     0.0262283 α      in ANC's #1, #2, #3, ...

........................................................................
.............................. CYCLE   10 ..............................
........................................................................
   1    -11.2772892 -0.112773E+02  0.199E-01    2.14       0.0  T
   2    -11.2337819  0.435073E-01  0.203E+00    2.06       1.0  T
   3    -11.2772777 -0.434959E-01  0.167E-01    2.14       1.0  T
   4    -11.2774640 -0.186302E-03  0.513E-02    2.14       1.0  T
   5    -11.2774763 -0.122755E-04  0.251E-02    2.14       1.8  T
   6    -11.2774791 -0.280809E-05  0.156E-02    2.14       2.9  T
   7    -11.2774811 -0.199745E-05  0.343E-03    2.14      13.0  T
   8    -11.2774807  0.464611E-06  0.733E-03    2.14       6.1  T
   9    -11.2774809 -0.193562E-06  0.591E-03    2.14       7.6  T
  10    -11.2774811 -0.251527E-06  0.269E-03    2.14      16.6  T
  11    -11.2774812 -0.655908E-07  0.420E-04    2.14     106.4  T
  12    -11.2774812 -0.155925E-08  0.120E-04    2.14     374.2  T
     SCC iter.                  ...        0 min,  0.001 sec
     gradient                   ...        0 min,  0.001 sec
 * total energy  :   -11.0698575 Eh     change       -0.3027582E-04 Eh
   gradient norm :     0.0044603 Eh/α   predicted    -0.1706789E-04 ( -43.63%)
   displ. norm   :     0.3307153 α      lambda       -0.3364059E-03
   maximum displ.:     0.3093645 α      in ANC's #1, #3, #2, ...

........................................................................
.............................. CYCLE   11 ..............................
........................................................................
   1    -11.2578240 -0.112578E+02  0.186E+00    1.98       0.0  T
   2    -11.1081374  0.149687E+00  0.375E+00    1.87       1.0  T
   3    -11.1405269 -0.323895E-01  0.326E+00    1.69       1.0  T
   4    -11.2517440 -0.111217E+00  0.153E+00    1.97       1.0  T
   5    -11.2593706 -0.762656E-02  0.485E-01    1.99       1.0  T
   6    -11.2591347  0.235822E-03  0.517E-01    1.99       1.0  T
   7    -11.2593173 -0.182538E-03  0.408E-01    1.99       1.0  T
   8    -11.2594555 -0.138262E-03  0.186E-01    2.00       1.0  T
   9    -11.2592766  0.178942E-03  0.197E-01    2.00       1.0  T
  10    -11.2596159 -0.339290E-03  0.236E-02    2.00       1.9  T
  11    -11.2596185 -0.263314E-05  0.162E-02    2.00       2.8  T
  12    -11.2594391  0.179400E-03  0.145E-01    2.00       1.0  T
  13    -11.2596113 -0.172178E-03  0.314E-02    2.00       1.4  T
  14    -11.2596190 -0.773163E-05  0.975E-03    2.00       4.6  T
  15    -11.2596198 -0.815495E-06  0.120E-03    2.00      37.2  T
  16    -11.2596199 -0.126104E-07  0.294E-05    2.00    1523.6  T
  17    -11.2596199  0.684146E-10  0.910E-05    2.00     491.4  T
     SCC iter.                  ...        0 min,  0.001 sec
     gradient                   ...        0 min,  0.002 sec
 * total energy  :   -11.0693906 Eh     change        0.4668703E-03 Eh
   gradient norm :     0.0425272 Eh/α   predicted    -0.1865950E-03 (-139.97%)
   displ. norm   :     0.2611085 α      lambda       -0.2408828E-02
   maximum displ.:     0.2467450 α      in ANC's #1, #3, #2, ...

........................................................................
.............................. CYCLE   12 ..............................
........................................................................
   1    -11.2530918 -0.112531E+02  0.196E+00    2.12       0.0  T
   2    -10.9366679  0.316424E+00  0.524E+00    1.14       1.0  T
   3    -11.2307231 -0.294055E+00  0.247E+00    2.05       1.0  T
   4    -11.2760266 -0.453035E-01  0.705E-01    2.11       1.0  T
   5    -11.2706184  0.540817E-02  0.958E-01    2.10       1.0  T
   6    -11.2710556 -0.437142E-03  0.851E-01    2.09       1.0  T
   7    -11.2753654 -0.430979E-02  0.416E-01    2.09       1.0  T
   8    -11.2759037 -0.538383E-03  0.309E-01    2.10       1.0  T
   9    -11.2767951 -0.891334E-03  0.512E-02    2.09       1.0  T
  10    -11.2766566  0.138454E-03  0.130E-01    2.09       1.0  T
  11    -11.2768049 -0.148244E-03  0.208E-02    2.09       2.1  T
  12    -11.2768082 -0.331902E-05  0.934E-03    2.09       4.8  T
  13    -11.2768090 -0.767286E-06  0.224E-04    2.09     199.4  T
  14    -11.2768089  0.723845E-08  0.907E-04    2.09      49.3  T
     SCC iter.                  ...        0 min,  0.001 sec
     gradient                   ...        0 min,  0.001 sec
 * total energy  :   -11.0699827 Eh     change       -0.5920695E-03 Eh
   gradient norm :     0.0099910 Eh/α   predicted    -0.1286530E-02 ( 117.29%)
   displ. norm   :     0.0419990 α      lambda       -0.1116464E-03
   maximum displ.:     0.0352905 α      in ANC's #1, #3, #6, ...

........................................................................
.............................. CYCLE   13 ..............................
........................................................................
   1    -11.2754067 -0.112754E+02  0.283E-01    2.06       0.0  T
   2    -11.2748026  0.604037E-03  0.291E-01    2.06       1.0  T
   3    -11.2153731  0.594295E-01  0.243E+00    2.06       1.0  T
   4    -11.2742143 -0.588413E-01  0.373E-01    2.07       1.0  T
   5    -11.2745169 -0.302579E-03  0.304E-01    2.07       1.0  T
   6    -11.2750608 -0.543879E-03  0.195E-01    2.07       1.0  T
   7    -11.2753854 -0.324587E-03  0.602E-02    2.07       1.0  T
   8    -11.2754218 -0.363758E-04  0.106E-02    2.07       4.2  T
   9    -11.2754211  0.664885E-06  0.114E-02    2.07       3.9  T
  10    -11.2754223 -0.122536E-05  0.543E-04    2.07      82.3  T
  11    -11.2754223  0.309252E-08  0.650E-04    2.07      68.8  T
  12    -11.2754223 -0.379380E-08  0.351E-05    2.07    1272.7  T
     SCC iter.                  ...        0 min,  0.001 sec
     gradient                   ...        0 min,  0.001 sec
 * total energy  :   -11.0701033 Eh     change       -0.1206044E-03 Eh
   gradient norm :     0.0118376 Eh/α   predicted    -0.5592043E-04 ( -53.63%)
   displ. norm   :     0.0499736 α      lambda       -0.1472977E-03
   maximum displ.:     0.0445179 α      in ANC's #1, #3, #6, ...

........................................................................
.............................. CYCLE   14 ..............................
........................................................................
   1    -11.2735724 -0.112736E+02  0.328E-01    2.03       0.0  T
   2    -11.2538471  0.197253E-01  0.142E+00    2.04       1.0  T
   3    -11.2685732 -0.147261E-01  0.713E-01    2.02       1.0  T
   4    -11.2713549 -0.278167E-02  0.504E-01    2.04       1.0  T
   5    -11.2725916 -0.123668E-02  0.327E-01    2.04       1.0  T
   6    -11.2731856 -0.594035E-03  0.218E-01    2.04       1.0  T
   7    -11.2733467 -0.161077E-03  0.171E-01    2.04       1.0  T
   8    -11.2736289 -0.282196E-03  0.174E-02    2.04       2.6  T
   9    -11.2736315 -0.263879E-05  0.293E-03    2.03      15.2  T
  10    -11.2736316 -0.228394E-07  0.788E-04    2.03      56.8  T
  11    -11.2736316 -0.517460E-08  0.178E-04    2.03     250.7  T
     SCC iter.                  ...        0 min,  0.001 sec
     gradient                   ...        0 min,  0.001 sec
 * total energy  :   -11.0702501 Eh     change       -0.1468174E-03 Eh
   gradient norm :     0.0137250 Eh/α   predicted    -0.7383261E-04 ( -49.71%)
   displ. norm   :     0.6639869 α      lambda       -0.2112863E-02
   maximum displ.:     0.5805182 α      in ANC's #1, #3, #6, ...

........................................................................
.............................. CYCLE   15 ..............................
........................................................................
   1    -11.1807448 -0.111807E+02  0.358E+00    1.32       0.0  T
   2    -10.7945350  0.386210E+00  0.593E+00    0.83       1.0  T
   3    -11.0202510 -0.225716E+00  0.434E+00    1.22       1.0  T
   4    -11.2056754 -0.185424E+00  0.120E+00    1.39       1.0  T
   5    -11.2001396  0.553578E-02  0.109E+00    1.37       1.0  T
   6    -11.2006811 -0.541499E-03  0.115E+00    1.36       1.0  T
   7    -11.2028352 -0.215409E-02  0.938E-01    1.36       1.0  T
   8    -11.2047355 -0.190033E-02  0.597E-01    1.36       1.0  T
   9    -11.2065853 -0.184976E-02  0.264E-02    1.36       1.7  T
  10    -11.2065868 -0.148261E-05  0.146E-02    1.36       3.1  T
  11    -11.2065871 -0.361483E-06  0.747E-03    1.36       6.0  T
  12    -11.2065872 -0.116303E-06  0.136E-03    1.36      32.9  T
  13    -11.2065872 -0.225780E-08  0.395E-04    1.36     113.3  T
  14    -11.2065872 -0.855334E-09  0.142E-04    1.36     315.3  T
     SCC iter.                  ...        0 min,  0.001 sec
     gradient                   ...        0 min,  0.001 sec
 * total energy  :   -11.0512735 Eh     change        0.1897668E-01 Eh
   gradient norm :     0.1427256 Eh/α   predicted    -0.1522189E-02 (-108.02%)
   displ. norm   :     0.4649721 α      lambda       -0.3889430E-01
   maximum displ.:     0.3790422 α      in ANC's #1, #3, #6, ...

........................................................................
.............................. CYCLE   16 ..............................
........................................................................
   1    -11.1959191 -0.111959E+02  0.340E+00    1.90       0.0  T
   2    -10.5445868  0.651332E+00  0.756E+00    0.38       1.0  T
   3    -11.2451769 -0.700590E+00  0.202E+00    1.88       1.0  T
   4    -11.1832097  0.619672E-01  0.292E+00    1.85       1.0  T
   5    -11.2393396 -0.561299E-01  0.203E+00    1.85       1.0  T
   6    -11.2352477  0.409187E-02  0.197E+00    1.85       1.0  T
   7    -11.2367433 -0.149558E-02  0.192E+00    1.85       1.0  T
   8    -11.2611719 -0.244285E-01  0.808E-01    1.89       1.0  T
   9    -11.2540111  0.716074E-02  0.123E+00    1.87       1.0  T
  10    -11.2624153 -0.840423E-02  0.676E-01    1.89       1.0  T
  11    -11.2644437 -0.202839E-02  0.415E-01    1.90       1.0  T
  12    -11.2652524 -0.808667E-03  0.277E-01    1.89       1.0  T
  13    -11.2658798 -0.627389E-03  0.611E-02    1.89       1.0  T
  14    -11.2658993 -0.195217E-04  0.406E-02    1.89       1.1  T
  15    -11.2659095 -0.101587E-04  0.206E-02    1.89       2.2  T
  16    -11.2659129 -0.346239E-05  0.561E-04    1.89      79.7  T
  17    -11.2659129 -0.571466E-09  0.466E-04    1.89      96.1  T
  18    -11.2659129  0.533284E-09  0.512E-04    1.89      87.4  T
     SCC iter.                  ...        0 min,  0.002 sec
     gradient                   ...        0 min,  0.001 sec
 * total energy  :   -11.0702960 Eh     change       -0.1902260E-01 Eh
   gradient norm :     0.0202370 Eh/α   predicted    -0.2365161E-01 (  24.33%)
   displ. norm   :     0.0538510 α      lambda       -0.3338040E-03
   maximum displ.:     0.0521751 α      in ANC's #1, #8, #2, ...

........................................................................
.............................. CYCLE   17 ..............................
........................................................................
   1    -11.2681120 -0.112681E+02  0.435E-01    1.92       0.0  T
   2    -11.1879736  0.801384E-01  0.272E+00    1.75       1.0  T
   3    -11.2694206 -0.814470E-01  0.163E-01    1.92       1.0  T
   4    -11.2694455 -0.248980E-04  0.122E-01    1.92       1.0  T
   5    -11.2694822 -0.367502E-04  0.592E-02    1.92       1.0  T
   6    -11.2694720  0.102885E-04  0.491E-02    1.92       1.0  T
   7    -11.2694930 -0.210253E-04  0.191E-02    1.92       2.3  T
   8    -11.2694885  0.453419E-05  0.266E-02    1.92       1.7  T
   9    -11.2694930 -0.455641E-05  0.115E-02    1.92       3.9  T
  10    -11.2694941 -0.105239E-05  0.248E-03    1.92      18.0  T
  11    -11.2694941 -0.417277E-07  0.119E-03    1.92      37.5  T
  12    -11.2694941 -0.109126E-07  0.349E-04    1.92     128.2  T
  13    -11.2694941 -0.358437E-09  0.275E-04    1.92     162.8  T
     SCC iter.                  ...        0 min,  0.001 sec
     gradient                   ...        0 min,  0.001 sec
 * total energy  :   -11.0705186 Eh     change       -0.2225085E-03 Eh
   gradient norm :     0.0117734 Eh/α   predicted    -0.1673847E-03 ( -24.77%)
   displ. norm   :     0.0426296 α      lambda       -0.1631685E-03
   maximum displ.:     0.0391958 α      in ANC's #1, #7, #8, ...

........................................................................
.............................. CYCLE   18 ..............................
........................................................................
   1    -11.2708744 -0.112709E+02  0.214E-01    1.95       0.0  T
   2    -11.2654844  0.538994E-02  0.740E-01    1.96       1.0  T
   3    -11.2698794 -0.439491E-02  0.347E-01    1.95       1.0  T
   4    -11.2706760 -0.796638E-03  0.166E-01    1.96       1.0  T
   5    -11.2706256  0.504081E-04  0.171E-01    1.95       1.0  T
   6    -11.2708472 -0.221651E-03  0.777E-02    1.95       1.0  T
   7    -11.2708781 -0.308530E-04  0.486E-02    1.95       1.0  T
   8    -11.2709008 -0.227282E-04  0.808E-03    1.95       5.5  T
   9    -11.2709014 -0.556553E-06  0.679E-04    1.95      65.9  T
  10    -11.2709014 -0.123068E-08  0.335E-04    1.95     133.7  T
     SCC iter.                  ...        0 min,  0.001 sec
     gradient                   ...        0 min,  0.001 sec
 * total energy  :   -11.0706115 Eh     change       -0.9290709E-04 Eh
   gradient norm :     0.0028740 Eh/α   predicted    -0.8173231E-04 ( -12.03%)
   displ. norm   :     0.0154377 α      lambda       -0.1508052E-04
   maximum displ.:     0.0129661 α      in ANC's #1, #3, #5, ...

........................................................................
.............................. CYCLE   19 ..............................
........................................................................
   1    -11.2717569 -0.112718E+02  0.503E-02    1.95       0.0  T
   2    -11.2714007  0.356166E-03  0.186E-01    1.95       1.0  T
   3    -11.2715654 -0.164699E-03  0.144E-01    1.95       1.0  T
   4    -11.2717347 -0.169251E-03  0.505E-02    1.95       1.0  T
   5    -11.2717572 -0.225572E-04  0.133E-02    1.95       3.4  T
   6    -11.2717584 -0.115355E-05  0.742E-03    1.95       6.0  T
   7    -11.2717586 -0.229828E-06  0.497E-03    1.95       9.0  T
   8    -11.2717588 -0.202298E-06  0.185E-03    1.95      24.2  T
   9    -11.2717588 -0.203099E-07  0.102E-03    1.95      43.7  T
  10    -11.2717588 -0.925815E-08  0.304E-05    1.95    1473.0  T
  11    -11.2717588 -0.437517E-11  0.463E-06    1.95    9651.6  T
     SCC iter.                  ...        0 min,  0.001 sec
     gradient                   ...        0 min,  0.001 sec
 * total energy  :   -11.0706191 Eh     change       -0.7647991E-05 Eh
   gradient norm :     0.0010578 Eh/α   predicted    -0.7542988E-05 (  -1.37%)
   displ. norm   :     0.0026745 α      lambda       -0.1089981E-05
   maximum displ.:     0.0016472 α      in ANC's #2, #7, #1, ...

........................................................................
.............................. CYCLE   20 ..............................
........................................................................
   1    -11.2716020 -0.112716E+02  0.232E-02    1.95       0.0  T
   2    -11.2704543  0.114769E-02  0.338E-01    1.96       1.0  T
   3    -11.2716060 -0.115168E-02  0.934E-03    1.95       4.8  T
   4    -11.2716028  0.312861E-05  0.188E-02    1.95       2.4  T
   5    -11.2716060 -0.312472E-05  0.570E-03    1.95       7.8  T
   6    -11.2716061 -0.152406E-06  0.366E-03    1.95      12.2  T
   7    -11.2716062 -0.100635E-06  0.159E-03    1.95      28.2  T
   8    -11.2716062 -0.187055E-07  0.550E-04    1.95      81.3  T
   9    -11.2716062 -0.228187E-08  0.231E-04    1.95     193.8  T
     SCC iter.                  ...        0 min,  0.001 sec
     gradient                   ...        0 min,  0.001 sec
 * total energy  :   -11.0706200 Eh     change       -0.8933444E-06 Eh
   gradient norm :     0.0004787 Eh/α   predicted    -0.5460479E-06 ( -38.88%)
   displ. norm   :     0.0030117 α      lambda       -0.5132777E-06
   maximum displ.:     0.0017133 α      in ANC's #2, #1, #3, ...

   *** GEOMETRY OPTIMIZATION CONVERGED AFTER 20 ITERATIONS ***

------------------------------------------------------------------------
 total energy gain   :        -0.1795188 Eh     -112.6497 kcal/mol
 total RMSD          :         0.6634069 a0        0.3511 Å
 total power (kW/mol):       -23.5663212 (step)-5685.0696 (real)
------------------------------------------------------------------------

 ANCopt (total)                0 d,  0 h,  0 min,  0.083 sec
 optimizer setup                ...        0 min,  0.000 sec (  0.069%)
 model hessian                  ...        0 min,  0.000 sec (  0.088%)
 ANC generation                 ...        0 min,  0.000 sec (  0.052%)
 coordinate transformation      ...        0 min,  0.000 sec (  0.045%)
 single point calculation       ...        0 min,  0.081 sec ( 97.888%)
 optimization log               ...        0 min,  0.000 sec (  0.569%)
 hessian update                 ...        0 min,  0.000 sec (  0.071%)
 rational function              ...        0 min,  0.000 sec (  0.484%)

================
 final structure:
================
5
 xtb: 6.2.2 (9d81278992624c895f80dd42a50cac0aa55982e2)
C        -1.51873390938696   -0.60127025913928    0.18265094945835
N        -0.30148345310861    0.01501915623963    0.02070084121988
C         0.97533447169978   -0.18320596928778   -0.06932881019117
C        -1.34946400655245    0.82034509105394    0.04156059934979
C         2.19434689734825   -0.05088901886651   -0.17558357983684

 Bond Distances (Angstroems)
 ---------------------------
C1-N2=1.3740         C1-C4=1.4386         N2-C1=1.3740         N2-C3=1.2952         N2-C4=1.3218         C3-N2=1.2952         
C3-C5=1.2308         C4-C1=1.4386         C4-N2=1.3218         C5-C3=1.2308         
 C  C  Rav=1.3347 sigma=0.1039  Rmin=1.2308  Rmax=1.4386     2
 N  C  Rav=1.3303 sigma=0.0327  Rmin=1.2952  Rmax=1.3740     3

 selected bond angles (degree)
 --------------------
C4-C1-N2= 56.01                C3-N2-C1=144.38                C4-N2-C1= 64.47                C4-N2-C3=151.15                
C5-C3-N2=165.00                N2-C4-C1= 59.52                

 selected dihedral angles (degree)
 ---------------------------------
C3-N2-C1-C4=179.63            C5-C3-N2-C1=181.80            C5-C3-N2-C4=  1.11            C1-C4-N2-C3=180.44            
           -------------------------------------------------
          |                Final Singlepoint                |
           -------------------------------------------------

          ...................................................
          :                      SETUP                      :
          :.................................................:
          :  # basis functions                  20          :
          :  # atomic orbitals                  20          :
          :  # shells                           10          :
          :  # electrons                        21          :
          :  max. iterations                   250          :
          :  Hamiltonian                  GFN2-xTB          :
          :  restarted?                      false          :
          :  GBSA solvation                  false          :
          :  PC potential                    false          :
          :  electronic temp.          300.0000000     K    :
          :  accuracy                    1.0000000          :
          :  -> integral cutoff          0.2500000E+02      :
          :  -> integral neglect         0.1000000E-07      :
          :  -> SCF convergence          0.1000000E-05 Eh   :
          :  -> wf. convergence          0.1000000E-03 e    :
          :  Broyden damping             0.4000000          :
          ...................................................

 iter      E             dE          RMSdq      gap      omega  full diag
   1    -11.2716062 -0.112716E+02  0.167E-04    1.95       0.0  T
   2    -11.2716062  0.194516E-08  0.381E-04    1.95     117.4  T
   3    -11.2716062  0.250483E-07  0.168E-03    1.95      26.6  T
   4    -11.2716062 -0.267678E-07  0.161E-04    1.95     278.2  T

   *** convergence criteria satisfied after 4 iterations ***

         #    Occupation            Energy/Eh            Energy/eV
      -------------------------------------------------------------
         1        2.0000           -0.7608042             -20.7025
       ...           ...                  ...                  ...
         5        2.0000           -0.6123355             -16.6625
         6        2.0000           -0.5448096             -14.8250
         7        2.0000           -0.4995854             -13.5944
         8        2.0000           -0.4723132             -12.8523
         9        2.0000           -0.4494848             -12.2311
        10        1.9691           -0.4383671             -11.9286
        11        1.0309           -0.4318189             -11.7504 (HOMO)
        12                         -0.3600682              -9.7980 (LUMO)
        13                         -0.3126416              -8.5074
        14                         -0.2327665              -6.3339
        15                         -0.1731156              -4.7107
        16                         -0.0570368              -1.5520
       ...                                ...                  ...
        20                          1.1259086              30.6375
      -------------------------------------------------------------
                  HL-Gap            0.0717507 Eh            1.9524 eV
             Fermi-level           -0.4155183 Eh          -11.3068 eV

 SCC (total)                   0 d,  0 h,  0 min,  0.003 sec
 SCC setup                      ...        0 min,  0.000 sec (  2.424%)
 Dispersion                     ...        0 min,  0.000 sec (  0.266%)
 integral evaluation            ...        0 min,  0.001 sec ( 41.657%)
 zeroth order Hamiltonian       ...        0 min,  0.000 sec (  0.482%)
 iterations                     ...        0 min,  0.000 sec ( 12.845%)
 molecular gradient             ...        0 min,  0.001 sec ( 40.758%)
 printout                       ...        0 min,  0.000 sec (  1.359%)

         :::::::::::::::::::::::::::::::::::::::::::::::::::::
         ::                     SUMMARY                     ::
         :::::::::::::::::::::::::::::::::::::::::::::::::::::
         :: total energy             -11.070620005677 Eh    ::
         :: gradient norm              0.000511699650 Eh/a0 ::
         :: HOMO-LUMO gap              1.952437224066 eV    ::
         ::.................................................::
         :: SCC energy               -11.271606224847 Eh    ::
         :: -> isotropic ES           -0.013811775789 Eh    ::
         :: -> anisotropic ES          0.003712455256 Eh    ::
         :: -> anisotropic XC          0.011247320640 Eh    ::
         :: -> dispersion             -0.002881791287 Eh    ::
         :: repulsion energy           0.200986279133 Eh    ::
         :: add. restraining           0.000000000000 Eh    ::
         :::::::::::::::::::::::::::::::::::::::::::::::::::::

           ------------------------------------------------- 
          |                Numerical Hessian                |
           ------------------------------------------------- 
step length          :   0.00500
SCC accuracy         :   0.30000
Hessian scale factor :   1.00000
frozen atoms in %    :   0.00000    0
RMS gradient         :   0.00051
estimated CPU  time      0.00 min
estimated wall time      0.00 min

writing file <hessian>.

 projected vibrational frequencies (cm-1)
eigval :       -0.00    -0.00    -0.00     0.00     0.00     0.00
eigval :      188.93   206.01   460.40   493.23   609.28   909.43
eigval :     1095.85  1691.02  1802.42
           -------------------------------------------------
          |                Property Printout                |
           -------------------------------------------------

    * Orbital Energies and Occupations

         #    Occupation            Energy/Eh            Energy/eV
      -------------------------------------------------------------
         1        2.0000           -0.7608040             -20.7025
         2        2.0000           -0.7063030             -19.2195
         3        2.0000           -0.6522323             -17.7481
         4        2.0000           -0.6446159             -17.5409
         5        2.0000           -0.6123354             -16.6625
         6        2.0000           -0.5448094             -14.8250
         7        2.0000           -0.4995853             -13.5944
         8        2.0000           -0.4723134             -12.8523
         9        2.0000           -0.4494849             -12.2311
        10        1.9691           -0.4383670             -11.9286
        11        1.0309           -0.4318190             -11.7504 (HOMO)
        12                         -0.3600681              -9.7980 (LUMO)
        13                         -0.3126412              -8.5074
        14                         -0.2327667              -6.3339
        15                         -0.1731159              -4.7107
        16                         -0.0570366              -1.5520
        17                          0.0118337               0.3220
        18                          0.3036827               8.2636
        19                          0.4572313              12.4419
        20                          1.1259083              30.6375
      -------------------------------------------------------------
                  HL-Gap            0.0717509 Eh            1.9524 eV
             Fermi-level           -0.4155183 Eh          -11.3068 eV

     #   Z        covCN         q      C6AA      α(0)
     1   6 C      1.891    -0.080    33.318     9.322
     2   7 N      2.731     0.205    17.857     6.276
     3   6 C      1.895     0.030    30.338     8.896
     4   6 C      1.892    -0.048    32.405     9.194
     5   6 C      0.982    -0.108    39.355    10.537

 Mol. C6AA /au·bohr⁶  :        753.423989
 Mol. C8AA /au·bohr⁸  :      20952.716824
 Mol. α(0) /au        :         44.225534


Wiberg/Mayer (AO) data.
largest (>0.10) Wiberg bond orders for each atom
          total WBO             WBO to atom ...
     1  C   2.494        N    2 1.148    C    4 1.109    C    5 0.172
     2  N   3.749        C    4 1.295    C    3 1.259    C    1 1.148
     3  C   3.842        C    5 2.418    N    2 1.259
     4  C   2.764        N    2 1.295    C    1 1.109    C    5 0.260
     5  C   2.897        C    3 2.418    C    4 0.260    C    1 0.172

MOs/occ written to file <molden.input>


molecular dipole:
                 x           y           z       tot (Debye)
 q only:       -0.155       0.023       0.008
   full:        0.054       0.009      -0.012       0.141
molecular quadrupole (traceless):
                xx          xy          yy          xz          yz          zz
 q only:       -2.534      -0.079       1.121       0.338       0.036       1.413
Molecule has the following symmetry elements: (sigma) 
It seems to be the Cs point group
  q+dip:       -4.797      -0.959       1.451       0.786       0.258       3.345
   full:       -7.243      -1.259       1.152       1.246       0.558       6.090

           -------------------------------------------------
          |                Geometry Summary                 |
           -------------------------------------------------

      molecular mass/u    :       62.0496468
   center of mass at/Å    :       -0.0096979       0.0004830       0.0006659
  moments of inertia/u·Å² :        0.1264904E+02   0.1211713E+03   0.1338193E+03
rotational constants/cm⁻¹ :        0.1332720E+01   0.1391223E+00   0.1259731E+00

 * 3 selected distances

     #   Z        #   Z                                     value/Å
     2   7 N      3   6 C                                 1.2952461
     2   7 N      4   6 C                                 1.3218352 (max)
     3   6 C      5   6 C                                 1.2307677 (min)

 * 2 distinct bonds (by element types)

   Z      Z             #   av. dist./Å        max./Å        min./Å
   6 C    6 C           1     1.2307677     1.2307677     1.2307677
   6 C    7 N           2     1.3085407     1.3218352     1.2952461

           -------------------------------------------------
          |               Frequency Printout                |
           -------------------------------------------------
 projected vibrational frequencies (cm-1)
eigval :       -0.00    -0.00    -0.00     0.00     0.00     0.00
eigval :      188.93   206.01   460.40   493.23   609.28   909.43
eigval :     1095.85  1691.02  1802.42
 reduced masses (amu)
   1: 12.15   2: 12.37   3: 12.07   4: 12.38   5: 12.23   6: 12.25   7: 12.48   8: 12.41
   9: 12.43  10: 13.06  11: 12.46  12: 12.32  13: 12.46  14: 12.96  15: 12.11
 IR intensities (amu)
   1:  0.06   2:  0.10   3:  0.13   4:  0.04   5:  0.01   6:  0.07   7:  0.49   8:  0.39
   9:  0.28  10:  0.22  11:  2.98  12:  1.46  13:  0.60  14:  1.41  15:  2.49
 Raman intensities (amu)
   1:  0.00   2:  0.00   3:  0.00   4:  0.00   5:  0.00   6:  0.00   7:  0.00   8:  0.00
   9:  0.00  10:  0.00  11:  0.00  12:  0.00  13:  0.00  14:  0.00  15:  0.00
 output can be read by thermo (or use thermo option).
 writing <g98.out> molden fake output.
 recommended (thermochemical) frequency scaling factor: 1.0
           -------------------------------------------------
          |             Thermodynamic Functions             |
           -------------------------------------------------

cs  symmetry found (for desy threshold:  0.10E+00) used in thermo

          ...................................................
          :                      SETUP                      :
          :.................................................:
          :  # frequencies                           9      :
          :  # imaginary freq.                       0      :
          :  linear?                             false      :
          :  only rotor calc.                    false      :
          :  symmetry                               cs      :
          :  rotational number                       1      :
          :  scaling factor                  1.0000000      :
          :  rotor cutoff                   50.0000000 cm⁻¹ :
          :  imag. cutoff                  -20.0000000 cm⁻¹ :
          :.................................................:

    mode    ω/cm⁻¹     T·S(HO)/kcal·mol⁻¹    T·S(FR)/kcal·mol⁻¹   T·S(vib)
   ------------------------------------------------------------------------
       1    188.93    -0.00000 ( 99.51%)     0.01151 (  0.49%)     0.00006
       2    206.01    -0.00000 ( 99.65%)     0.01237 (  0.35%)     0.00004
   ------------------------------------------------------------------------

   temp. (K)  partition function   enthalpy   heat capacity  entropy
                                   cal/mol     cal/K/mol   cal/K/mol   J/K/mol
 298.15  VIB   3.53                 1160.824      8.135      6.398
         ROT  0.346E+05              888.752      2.981     23.751
         INT  0.122E+06             2049.576     11.116     30.149
         TR   0.473E+27             1481.254      4.968     38.278
         TOT                        3530.8299    16.0845    68.4268   286.2977

   temp. (K)  partition function   enthalpy   heat capacity  entropy
                                   cal/mol     cal/K/mol   cal/K/mol   J/K/mol
 120.00  VIB   1.23                  127.333      3.051      1.474
         ROT  0.883E+04              357.707      2.981     21.038
         INT  0.108E+05              485.040      6.032     22.512
         TR   0.121E+27              596.178      4.968     33.759
         TOT                        1081.2181    11.0004    56.2708   235.4372

   temp. (K)  partition function   enthalpy   heat capacity  entropy
                                   cal/mol     cal/K/mol   cal/K/mol   J/K/mol
 100.00  VIB   1.13                   73.414      2.336      0.985
         ROT  0.672E+04              298.089      2.981     20.494
         INT  0.760E+04              371.503      5.317     21.479
         TR   0.919E+26              496.815      4.968     32.853
         TOT                         868.3180    10.2852    54.3327   227.3279

   temp. (K)  partition function   enthalpy   heat capacity  entropy
                                   cal/mol     cal/K/mol   cal/K/mol   J/K/mol
  80.00  VIB   1.06                   34.108      1.587      0.549
         ROT  0.481E+04              238.471      2.981     19.829
         INT  0.510E+04              272.580      4.568     20.378
         TR   0.657E+26              397.452      4.968     31.745
         TOT                         670.0317     9.5364    52.1238   218.0860

   temp. (K)  partition function   enthalpy   heat capacity  entropy
                                   cal/mol     cal/K/mol   cal/K/mol   J/K/mol
  60.00  VIB   1.02                   10.161      0.807      0.209
         ROT  0.312E+04              178.853      2.981     18.972
         INT  0.318E+04              189.014      3.788     19.181
         TR   0.427E+26              298.089      4.968     30.317
         TOT                         487.1029     8.7563    49.4976   207.0978

   temp. (K)  partition function   enthalpy   heat capacity  entropy
                                   cal/mol     cal/K/mol   cal/K/mol   J/K/mol
  40.00  VIB   1.00                    0.962      0.169      0.029
         ROT  0.170E+04              119.236      2.981     17.763
         INT  0.170E+04              120.197      3.150     17.792
         TR   0.232E+26              198.726      4.968     28.303
         TOT                         318.9232     8.1181    46.0950   192.8616

   temp. (K)  partition function   enthalpy   heat capacity  entropy
                                   cal/mol     cal/K/mol   cal/K/mol   J/K/mol
  20.00  VIB   1.00                    0.001      0.001     -0.005
         ROT   601.                   59.618      2.981     15.697
         INT   601.                   59.619      2.982     15.692
         TR   0.822E+25               99.363      4.968     24.861
         TOT                         158.9817     7.9497    40.5536   169.6763

   temp. (K)  partition function   enthalpy   heat capacity  entropy
                                   cal/mol     cal/K/mol   cal/K/mol   J/K/mol
  10.00  VIB   1.00                    0.000      0.000     -0.011
         ROT   213.                   29.809      2.981     13.631
         INT   213.                   29.809      2.981     13.620
         TR   0.290E+25               49.681      4.968     21.419
         TOT                          79.4904     7.9490    35.0394   146.6050

       T/K    H(0)-H(T)+PV         H(T)/Eh          T*S/Eh         G(T)/Eh
   ------------------------------------------------------------------------
    298.15    0.562674E-02    0.226141E-01    0.325118E-01   -0.989770E-02
    120.00    0.172303E-02    0.187104E-01    0.107608E-01    0.794957E-02
    100.00    0.138375E-02    0.183711E-01    0.865846E-02    0.971263E-02
     80.00    0.106776E-02    0.180551E-01    0.664516E-02    0.114099E-01
     60.00    0.776248E-03    0.177636E-01    0.473276E-02    0.130308E-01
     40.00    0.508237E-03    0.174956E-01    0.293828E-02    0.145573E-01
     20.00    0.253353E-03    0.172407E-01    0.129253E-02    0.159482E-01
     10.00    0.126676E-03    0.171140E-01    0.558389E-03    0.165556E-01 (used)
   ------------------------------------------------------------------------

         :::::::::::::::::::::::::::::::::::::::::::::::::::::
         ::                  THERMODYNAMIC                  ::
         :::::::::::::::::::::::::::::::::::::::::::::::::::::
         :: total free energy         -11.054064384444 Eh   ::
         ::.................................................::
         :: total energy              -11.070620006113 Eh   ::
         :: zero point energy           0.016987334651 Eh   ::
         :: G(RRHO) w/o ZPVE           -0.000431712982 Eh   ::
         :: G(RRHO) contrib.            0.016555621669 Eh   ::
         :::::::::::::::::::::::::::::::::::::::::::::::::::::

optimized geometry written to: xtbopt.xyz


           -------------------------------------------------
          | TOTAL ENERGY              -11.070620006113 Eh   |
          | TOTAL ENTHALPY            -11.053505995446 Eh   |
          | TOTAL FREE ENERGY         -11.054064384444 Eh   |
          | GRADIENT NORM               0.000513596957 Eh/α |
          | HOMO-LUMO GAP               1.952440219165 eV   |
           -------------------------------------------------

------------------------------------------------------------------------
 * finished run on 2020/05/12 at 11:44:06.802     
------------------------------------------------------------------------
 total:
 * wall-time:     0 d,  0 h,  0 min,  0.214 sec
 *  cpu-time:     0 d,  0 h,  0 min,  0.213 sec
 * ratio c/w:     0.998 speedup
 SCF:
 * wall-time:     0 d,  0 h,  0 min,  0.005 sec
 *  cpu-time:     0 d,  0 h,  0 min,  0.005 sec
 * ratio c/w:     0.998 speedup
 ANC optimizer:
 * wall-time:     0 d,  0 h,  0 min,  0.087 sec
 *  cpu-time:     0 d,  0 h,  0 min,  0.087 sec
 * ratio c/w:     0.999 speedup
 numerical hessian:
 * wall-time:     0 d,  0 h,  0 min,  0.106 sec
 *  cpu-time:     0 d,  0 h,  0 min,  0.106 sec
 * ratio c/w:     0.996 speedup

