 Entering Gaussian System
 *********************************************
 Gaussian 98:
 frequency output generated by the xtb code
 *********************************************
                         Standard orientation:
 --------------------------------------------------------------------
  Center     Atomic     Atomic              Coordinates (Angstroms)
  Number     Number      Type              X           Y           Z
 --------------------------------------------------------------------
    1          7             0       -0.444250   -0.604159    0.000003
    2          8             0       -0.350863    0.723409   -0.000000
    3          8             0        0.795113   -0.119249   -0.000003
 --------------------------------------------------------------------
     1 basis functions        1 primitive gaussians
     1 alpha electrons        1 beta electrons

 Harmonic frequencies (cm**-1), IR intensities (KM/Mole),
 Raman scattering activities (A**4/amu), Raman depolarization ratios,
 reduced masses (AMU), force constants (mDyne/A) and normal coordinates:
                      1                      2                      3
                        a                      a                      a 
 Frequencies --   889.5474              1006.7523              1454.0788
 Red. masses --    15.2126                15.6348                14.9780
 Frc consts  --     0.0000                 0.0000                 0.0000
 IR Inten    --     1.4727                 0.1039                 0.4136
 Raman Activ --     0.0000                 0.0000                 0.0000
 Depolar     --     0.0000                 0.0000                 0.0000
 Atom AN      X      Y      Z        X      Y      Z        X      Y      Z
   1   7     0.51  -0.37  -0.00     0.25   0.34  -0.00     0.42   0.58  -0.00
   2   8     0.04   0.55  -0.00    -0.61   0.20   0.00     0.09  -0.48   0.00
   3   8    -0.51  -0.20   0.00     0.37  -0.52  -0.00    -0.49  -0.05   0.00
