[Molden Format]
[Title]
[Atoms] AU
N      1     7 -0.83951091245523E+00 -0.11416946084961E+01  0.49230657078497E-05
O      2     8 -0.66303573885891E+00  0.13670445548480E+01 -0.71480465391367E-07
O      3     8  0.15025447615981E+01 -0.22534805661597E+00 -0.48515819442919E-05
[GTO]
           1 0
 s           4   1.0000000000000000     
   63.594024466941008      -0.19234388414721629     
   10.951417231523665      -0.23478107924953728     
  0.87999310257376984       0.37593753901700888     
  0.33538715296521110       0.14982889271862770     
 p           4   1.0000000000000000     
   7.2965040481495080       0.97658666315667420     
   1.8918745450712575       0.90372226730345739     
  0.66694432110824120       0.47404958461536373     
  0.26552202674130870        7.1516067715011844E-002

           2 0
 s           4   1.0000000000000000     
   69.137961906196551      -0.20478756370077797     
   11.906129132707308      -0.24997023136827334     
  0.95670827744340703       0.40025880240639616     
  0.36462520496073686       0.15952206667693555     
 p           4   1.0000000000000000     
   8.2124193257781641        1.1321556799186829     
   2.1293576997098116        1.0476840782254817     
  0.75066448202360914       0.54956508217158984     
  0.29885246543283073        8.2908486592766617E-002

           3 0
 s           4   1.0000000000000000     
   69.137961906196551      -0.20478756370077797     
   11.906129132707308      -0.24997023136827334     
  0.95670827744340703       0.40025880240639616     
  0.36462520496073686       0.15952206667693555     
 p           4   1.0000000000000000     
   8.2124193257781641        1.1321556799186829     
   2.1293576997098116        1.0476840782254817     
  0.75066448202360914       0.54956508217158984     
  0.29885246543283073        8.2908486592766617E-002

[MO]
Sym=     1a
Ene=  -0.86975534236581209     
Spin= Alpha
Occup=     2.00000000
           1  0.27240872775409025     
           2  0.14755927780004807     
           3  0.20067387873477724     
           4  -8.7181107892594520E-007
           5  0.37968094593776108     
           6  0.10647681486386838     
           7 -0.22737429239340376     
           8   1.5046630203734294E-008
           9  0.37968088651388715     
          10 -0.24877795583675122     
          11   3.3851420568957923E-002
          12   8.0816313794151508E-007
Sym=     2a
Ene=  -0.77762458504094101     
Spin= Alpha
Occup=     2.00000000
           1   5.7619966417278253E-008
           2 -0.23501273446193896     
           3  0.17280934311823318     
           4   5.0905425529008422E-007
           5  0.61006995322887614     
           6 -0.18224390024658429     
           7   8.5866748950009768E-003
           8   5.9922334137928006E-007
           9 -0.61007003355016198     
          10  -6.2526014037782102E-002
          11  0.17139696072842139     
          12  -9.1934755456321378E-008
Sym=     3a
Ene=  -0.72760359303074318     
Spin= Alpha
Occup=     2.00000000
           1 -0.43163725930203639     
           2  -2.2084179950411773E-002
           3  -3.0033272001668256E-002
           4   1.5050578633513168E-007
           5  0.36089226784566331     
           6  0.30005254198663461     
           7  0.33680895201798106     
           8  -1.6336262909676407E-006
           9  0.36089206073267316     
          10  0.23204356064253451     
          11  0.38681744362596804     
          12  -1.4743381201247847E-006
Sym=     4a
Ene=  -0.69146194066985356     
Spin= Alpha
Occup=     2.00000000
           1  -6.3043291531121418E-009
           2   1.4594306126510291E-006
           3   7.5139219752954243E-007
           4  0.41734236036540678     
           5  -5.5943223738800224E-009
           6   1.9561881649656360E-006
           7   9.5326507026375650E-007
           8  0.55957618955198207     
           9  -3.3233771236627079E-008
          10   1.9260372119315430E-006
          11   9.8970595486743779E-007
          12  0.55957615592744414     
Sym=     5a
Ene=  -0.66399047165729086     
Spin= Alpha
Occup=     2.00000000
           1   6.2178778912887353E-002
           2  -3.0328119280199007E-002
           3  -4.1244917581164733E-002
           4   1.9350556097905804E-007
           5  0.38226405253742202     
           6 -0.53102505014104973     
           7  0.23655975312808017     
           8   1.4552983457322175E-006
           9  0.38226436816176396     
          10  0.38411053198714906     
          11 -0.43635680125587417     
          12  -5.4902902376260874E-007
Sym=     6a
Ene=  -0.63479074426436721     
Spin= Alpha
Occup=     2.00000000
           1   1.9578108405569225E-008
           2 -0.40075134277082491     
           3  0.29468008919680944     
           4   8.7696218982211767E-007
           5 -0.28614172253046344     
           6 -0.18942457615843741     
           7 -0.47909146287734949     
           8   1.5007417723344734E-006
           9  0.28614155995098445     
          10  0.40083635854958033     
          11  0.32363628690471008     
          12  -1.9693605281874222E-006
Sym=     7a
Ene=  -0.53652238760479853     
Spin= Alpha
Occup=     2.00000000
           1 -0.73537805928825561     
           2  0.35522618809276962     
           3  0.48309126350654458     
           4  -2.0372269061845004E-006
           5  -4.0699672077315854E-002
           6 -0.19144175472317376     
           7 -0.20079635210265426     
           8   9.8864376932774500E-007
           9  -4.0699614573724341E-002
          10 -0.13459415627693727     
          11 -0.24259754261626928     
          12   8.5098125168836795E-007
Sym=     8a
Ene=  -0.52016500103434804     
Spin= Alpha
Occup=     2.00000000
           1   6.1339343633902685E-009
           2  -2.4563940089926949E-009
           3  -2.5047545053109378E-009
           4   2.9565739017324508E-008
           5   1.3837866515041229E-008
           6   2.6057732581596076E-006
           7   1.3132491494543079E-006
           8  0.74711910181314534     
           9   3.3063430900543560E-009
          10  -2.6066045209106545E-006
          11  -1.3043257410977832E-006
          12 -0.74711916197798334     
Sym=     9a
Ene=  -0.42350618196157080     
Spin= Alpha
Occup=     1.00000000
           1   4.7846585802025536E-008
           2   3.2224222626380910E-006
           3   1.5934400816502044E-006
           4  0.92989948121772148     
           5  -2.0409040168652907E-009
           6  -1.3766362571132485E-006
           7  -6.9086594658326980E-007
           8 -0.39658768404178979     
           9   1.5399437584256368E-009
          10  -1.3770677142573408E-006
          11  -6.8361991473096575E-007
          12 -0.39658761669283515     
Sym=    10a
Ene=  -0.28243121419093192     
Spin= Alpha
Occup=     0.00000000
           1   3.2867467148007181E-008
           2 -0.37562602721603111     
           3  0.27620496900111485     
           4   8.2882468614873781E-007
           5  0.17878555532493018     
           6  0.78063336026190677     
           7  -9.5767235774259815E-002
           8  -2.5551574748605683E-006
           9 -0.17878547661016406     
          10  0.32413216939057621     
          11 -0.71658783099964551     
          12   1.2135080887439979E-007
Sym=    11a
Ene=  -0.12138906640199848     
Spin= Alpha
Occup=     0.00000000
           1  -2.8093228989203710E-008
           2 -0.63925029550400181     
           3  0.47005282491405220     
           4   1.4117469362163584E-006
           5 -0.43783419935687190     
           6 -0.12022238126368036     
           7  0.66009605996828058     
           8  -7.3584376466787166E-007
           9  0.43783423310591785     
          10 -0.66592154002409243     
          11  -8.2029566082968644E-002
          12   2.4669255688923941E-006
Sym=    12a
Ene=    4.4215119200792900E-002
Spin= Alpha
Occup=     0.00000000
           1  0.69462170162368631     
           2  0.56251896974700022     
           3  0.76499994808256666     
           4  -3.2962136985004188E-006
           5 -0.35569893479015574     
           6   8.4789189940906534E-002
           7  0.56850945729033142     
           8  -1.2905733201906258E-006
           9 -0.35569885345055136     
          10  0.51738194660113368     
          11  0.25041567656760194     
          12  -2.2443568108670071E-006
