3
 energy: -10.790883917655 gnorm: 0.000349989060 xtb: 6.2.2 (9d81278992624c895f80dd42a50cac0aa55982e2)
N        -0.44425008439316   -0.60415882468076    0.00000260517442
O        -0.35086343557143    0.72340889183236   -0.00000003782584
O         0.79511251996983   -0.11924906714637   -0.00000256734684
