$hessian                                                                        
        0.3436143511   0.2420516161  -0.0000016219  -0.0320410654  -0.0928187982
        0.0000002738  -0.3115732857  -0.1492328180   0.0000013481
        0.2420516161   0.4947520091  -0.0000017084  -0.0618590416  -0.3871616434
        0.0000008916  -0.1801925745  -0.1075903657   0.0000008168
       -0.0000016219  -0.0000017084   0.0000000000   0.0000002198   0.0000009997
       -0.0000000000   0.0000014021   0.0000007087  -0.0000000000
       -0.0320410654  -0.0618590416   0.0000002198   0.2385096135  -0.1220385696
       -0.0000006196  -0.2064685481   0.1838976112   0.0000003998
       -0.0928187982  -0.3871616434   0.0000009997  -0.1220385696   0.4691736255
       -0.0000003929   0.2148573678  -0.0820119821  -0.0000006069
        0.0000002738   0.0000008916  -0.0000000000  -0.0000006196  -0.0000003929
        0.0000000000   0.0000003457  -0.0000004988  -0.0000000000
       -0.3115732857  -0.1801925745   0.0000014021  -0.2064685481   0.2148573678
        0.0000003457   0.5180418337  -0.0346647933  -0.0000017478
       -0.1492328180  -0.1075903657   0.0000007087   0.1838976112  -0.0820119821
       -0.0000004988  -0.0346647933   0.1896023477  -0.0000002099
        0.0000013481   0.0000008168  -0.0000000000   0.0000003998  -0.0000006069
       -0.0000000000  -0.0000017478  -0.0000002099   0.0000000000
