3
 energy: -10.776363431336 gnorm: 0.194436264085 xtb: 6.2.2 (9d81278992624c895f80dd42a50cac0aa55982e2)
N        -0.44382200000000   -0.60358300000000    0.00000000000000
O        -0.29907200000000    0.68487600000000    0.00000000000000
O         0.74289300000000   -0.08129200000000    0.00000000000000
3
 energy: -10.788596529928 gnorm: 0.066942244467 xtb: 6.2.2 (9d81278992624c895f80dd42a50cac0aa55982e2)
N        -0.44606315380466   -0.60663097596616    0.00000000000000
O        -0.32728850964577    0.70797191118624   -0.00000000000000
O         0.77335066345043   -0.10133993522008    0.00000000000000
3
 energy: -10.790712750372 gnorm: 0.015676947137 xtb: 6.2.2 (9d81278992624c895f80dd42a50cac0aa55982e2)
N        -0.44622253396563   -0.60684781954053    0.00000000000000
O        -0.34323149531829    0.71986203623406   -0.00000000000000
O         0.78945302928392   -0.11301321669353    0.00000000000000
3
 energy: -10.790874342571 gnorm: 0.003540613424 xtb: 6.2.2 (9d81278992624c895f80dd42a50cac0aa55982e2)
N        -0.44535568107931   -0.60566898140027    0.00000000000000
O        -0.34900262797931    0.72319752420713   -0.00000000000000
O         0.79435730905863   -0.11752754280686    0.00000000000000
3
 energy: -10.790882846519 gnorm: 0.001520863141 xtb: 6.2.2 (9d81278992624c895f80dd42a50cac0aa55982e2)
N        -0.44473634679511   -0.60482672890952    0.00000000000000
O        -0.35037427912176    0.72355730046697   -0.00000000000000
O         0.79510962591687   -0.11872957155744    0.00000000000000
3
 energy: -10.790883917619 gnorm: 0.000352400881 xtb: 6.2.2 (9d81278992624c895f80dd42a50cac0aa55982e2)
N        -0.44424692102525   -0.60416115076140    0.00000000000000
O        -0.35086722332446    0.72340705470690   -0.00000000000000
O         0.79511314434970   -0.11924490394549    0.00000000000000
