$hessian                                                                        
        0.7364917638  -0.2792215816  -0.0000020835  -0.6563075471   0.2940137514
        0.0000017778  -0.0801842167  -0.0147921698   0.0000003057
       -0.2792215816   0.1433985882   0.0000007244   0.2791375864  -0.1763083919
       -0.0000006667   0.0000839952   0.0329098037  -0.0000000577
       -0.0000020835   0.0000007244   0.0000000000   0.0000018038  -0.0000007186
       -0.0000000000   0.0000002797  -0.0000000058  -0.0000000000
       -0.6563075471   0.2791375864   0.0000018038   0.7623741452  -0.1837784007
       -0.0000023404  -0.1060665981  -0.0953591856   0.0000005367
        0.2940137514  -0.1763083919  -0.0000007186  -0.1837784007   0.3408045572
        0.0000000467  -0.1102353507  -0.1644961653   0.0000006719
        0.0000017778  -0.0000006667  -0.0000000000  -0.0000023404   0.0000000467
        0.0000000000   0.0000005626   0.0000006200  -0.0000000000
       -0.0801842167   0.0000839952   0.0000002797  -0.1060665981  -0.1102353507
        0.0000005626   0.1862508148   0.1101513555  -0.0000008424
       -0.0147921698   0.0329098037  -0.0000000058  -0.0953591856  -0.1644961653
        0.0000006200   0.1101513555   0.1315863617  -0.0000006142
        0.0000003057  -0.0000000577  -0.0000000000   0.0000005367   0.0000006719
       -0.0000000000  -0.0000008424  -0.0000006142   0.0000000000
