      -----------------------------------------------------------      
     |                   =====================                   |     
     |                           x T B                           |     
     |                   =====================                   |     
     |                         S. Grimme                         |     
     |          Mulliken Center for Theoretical Chemistry        |     
     |                    University of Bonn                     |     
      -----------------------------------------------------------      

   * xtb version 6.2.2 (9d81278992624c895f80dd42a50cac0aa55982e2) compiled by '@Darwin' on 04/03/2020

   xtb is free software: you can redistribute it and/or modify it under
   the terms of the GNU Lesser General Public License as published by
   the Free Software Foundation, either version 3 of the License, or
   (at your option) any later version.
   
   xtb is distributed in the hope that it will be useful,
   but WITHOUT ANY WARRANTY; without even the implied warranty of
   MERCHANTABILITY or FITNESS FOR A PARTICULAR PURPOSE.  See the
   GNU Lesser General Public License for more details.
   
   Cite this work as:
   * S. Grimme, C. Bannwarth, P. Shushkov, J. Chem. Theory Comput., 2017,
     13, 1989-2009. DOI: 10.1021/acs.jctc.7b00118
   * C. Bannwarth, S. Ehlert and S. Grimme., J. Chem. Theory Comput., 2019,
     15, 1652-1671. DOI: 10.1021/acs.jctc.8b01176
   * P. Pracht, E. Caldeweyher, S. Ehlert, S. Grimme, ChemRxiv, 2019, preprint.
     DOI: 10.26434/chemrxiv.8326202.v1
   
   for DFT-D4:
   * E. Caldeweyher, C. Bannwarth and S. Grimme, J. Chem. Phys., 2017,
     147, 034112. DOI: 10.1063/1.4993215
   * E. Caldeweyher, S. Ehlert, A. Hansen, H. Neugebauer, S. Spicher,
     C. Bannwarth and S. Grimme, J. Chem. Phys., 2019, 150, 154122.
     DOI: 10.1063/1.5090222
   
   for sTDA-xTB:
   * S. Grimme and C. Bannwarth, J. Chem. Phys., 2016, 145, 054103.
     DOI: 10.1063/1.4959605
   
   in the mass-spec context:
   * V. Asgeirsson, C. Bauer and S. Grimme, Chem. Sci., 2017, 8, 4879.
     DOI: 10.1039/c7sc00601b
   
   for metadynamics refer to:
   * S. Grimme, J. Chem. Theory Comput., 2019, 155, 2847-2862
     DOI: 10.1021/acs.jctc.9b00143
   
   with help from (in alphabetical order)
   C. Bannwarth, F. Bohle, G. Brandenburg, E. Caldeweyher, M. Checinski,
   S. Dohm, S. Ehlert, S. Ehrlich, F. März, H. Neugebauer, J. Pisarek,
   P. Pracht, P. Shushkov, and S. Spicher.
   
 * started run on 2020/05/12 at 11:44:25.070     

           -------------------------------------------------
          |                Calculation Setup                |
           -------------------------------------------------

          program call               : xtb --input H1C1N1_1_S_2.input H1C1N1_1_S_2.xyz --ohess --molden --namespace H1C1N1_1_S_2 output.out
          calculation namespace      : H1C1N1_1_S_2
          coordinate file            : H1C1N1_1_S_2.xyz
          number of atoms            :                     3
          number of electrons        :                    10
          charge                     :                     0
          spin                       :                   1.0
          first test random number   :      0.41627445023353

   ID    Z sym.   atoms
    1    6 C      1
    2    7 N      2
    3    1 H      3

           -------------------------------------------------
          |                 G F N 2 - x T B                 |
           -------------------------------------------------

        Reference                      10.1021/acs.jctc.8b01176
      * Hamiltonian:
        H0-scaling (s, p, d)           1.850000    2.230000    2.230000
        zeta-weighting                 0.500000
      * Dispersion:
        s8                             2.700000
        a1                             0.520000
        a2                             5.000000
        s9                             5.000000
      * Repulsion:
        kExp                           1.500000    1.000000
        rExp                           1.000000
      * Coulomb:
        alpha                          2.000000
        third order                    shell-resolved
        anisotropic                    true
        a3                             3.000000
        a5                             4.000000
        cn-shift                       1.200000
        cn-exp                         4.000000
        max-rad                        5.000000


          ...................................................
          :                      SETUP                      :
          :.................................................:
          :  # basis functions                   9          :
          :  # atomic orbitals                   9          :
          :  # shells                            5          :
          :  # electrons                        10          :
          :  max. iterations                   250          :
          :  Hamiltonian                  GFN2-xTB          :
          :  restarted?                      false          :
          :  GBSA solvation                  false          :
          :  PC potential                    false          :
          :  electronic temp.          300.0000000     K    :
          :  accuracy                    1.0000000          :
          :  -> integral cutoff          0.2500000E+02      :
          :  -> integral neglect         0.1000000E-07      :
          :  -> SCF convergence          0.1000000E-05 Eh   :
          :  -> wf. convergence          0.1000000E-03 e    :
          :  Broyden damping             0.4000000          :
          ...................................................

 iter      E             dE          RMSdq      gap      omega  full diag
   1     -5.2254760 -0.522548E+01  0.733E+00    0.96       0.0  T
   2     -5.0979008  0.127575E+00  0.828E+00    0.44       1.0  T
   3     -5.2898786 -0.191978E+00  0.343E+00    0.68       1.0  T
   4     -5.2694194  0.204592E-01  0.223E+00    0.63       1.0  T
   5     -5.2900107 -0.205913E-01  0.848E-01    0.54       1.0  T
   6     -5.2909719 -0.961152E-03  0.261E-01    0.55       1.0  T
   7     -5.2910392 -0.673656E-04  0.126E-01    0.57       1.0  T
   8     -5.2910932 -0.539675E-04  0.368E-02    0.57       1.6  T
   9     -5.2910984 -0.519820E-05  0.743E-03    0.57       7.8  T
  10     -5.2910985 -0.156916E-06  0.368E-03    0.57      15.7  T
  11     -5.2910986 -0.513278E-07  0.117E-03    0.57      49.3  T
  12     -5.2910986 -0.495951E-08  0.918E-05    0.56     629.1  T
  13     -5.2910986 -0.266178E-10  0.357E-05    0.56    1619.4  T

   *** convergence criteria satisfied after 13 iterations ***

         #    Occupation            Energy/Eh            Energy/eV
      -------------------------------------------------------------
         1        2.0000           -0.6460027             -17.5786
         2        2.0000           -0.5742777             -15.6269
         3        2.0000           -0.5036167             -13.7041
         4        2.0000           -0.4729043             -12.8684
         5        1.0000           -0.4506874             -12.2638
         6        1.0000           -0.3445500              -9.3757 (HOMO)
         7        0.0000           -0.3237879              -8.8107 (LUMO)
         8                          0.0379283               1.0321
         9                          0.0958617               2.6085
      -------------------------------------------------------------
                  HL-Gap            0.0207621 Eh            0.5650 eV
             Fermi-level           -0.3979824 Eh          -10.8297 eV

 transition dipole moment (au) for excitation:           5           6
     X       Y       Z   
   0.4683   0.0275  -0.0000  total (au/Debye):    0.469   1.192
 dE (eV)             :    2.888
 oscillator strength :  0.22022E-01

 SCC (total)                   0 d,  0 h,  0 min,  0.002 sec
 SCC setup                      ...        0 min,  0.000 sec (  4.645%)
 Dispersion                     ...        0 min,  0.000 sec (  0.535%)
 integral evaluation            ...        0 min,  0.000 sec ( 18.578%)
 zeroth order Hamiltonian       ...        0 min,  0.000 sec (  0.591%)
 iterations                     ...        0 min,  0.001 sec ( 43.195%)
 molecular gradient             ...        0 min,  0.000 sec ( 15.764%)
 printout                       ...        0 min,  0.000 sec ( 16.172%)

         :::::::::::::::::::::::::::::::::::::::::::::::::::::
         ::                     SUMMARY                     ::
         :::::::::::::::::::::::::::::::::::::::::::::::::::::
         :: total energy              -5.265937874099 Eh    ::
         :: gradient norm              0.230014760578 Eh/a0 ::
         :: HOMO-LUMO gap              0.564965721019 eV    ::
         ::.................................................::
         :: SCC energy                -5.291098605289 Eh    ::
         :: -> isotropic ES           -0.002832198062 Eh    ::
         :: -> anisotropic ES          0.000593978607 Eh    ::
         :: -> anisotropic XC          0.005520168517 Eh    ::
         :: -> dispersion             -0.000499520802 Eh    ::
         :: repulsion energy           0.025160730861 Eh    ::
         :: add. restraining           0.000000000000 Eh    ::
         :::::::::::::::::::::::::::::::::::::::::::::::::::::

      ----------------------------------------------------------- 
     |                   =====================                   |
     |                        A N C O P T                        |
     |                   =====================                   |
     |               Approximate Normal Coordinate               |
     |                Rational Function Optimizer                |
      ----------------------------------------------------------- 

          ...................................................
          :                      SETUP                      :
          :.................................................:
          :   optimization level            normal          :
          :   max. optcycles                   200          :
          :   ANC micro-cycles                  20          :
          :   degrees of freedom                 3          :
          :.................................................:
          :   RF solver                   davidson          :
          :   write xtbopt.log                true          :
          :   linear?                        false          :
          :   energy convergence         0.5000000E-05 Eh   :
          :   grad. convergence          0.1000000E-02 Eh/α :
          :   maximium RF displ.         1.0000000          :
          :   Hlow (freq-cutoff)         0.1000000E-01      :
          :   Hmax (freq-cutoff)         5.0000000          :
          :   S6 in model hess.         20.0000000          :
          ...................................................

generating ANC from model Hessian ...
Using Lindh-Hessian (1995)
 Shifting diagonal of input Hessian by    0.0000000000000000     
 Lowest  eigenvalues of input Hessian
   -0.000000   -0.000000   -0.000000    0.000000    0.000000    0.000000
    0.139130    0.890608    1.121768
 Highest eigenvalues
    0.000000    0.000000    0.000000    0.139130    0.890608    1.121768


........................................................................
.............................. CYCLE    1 ..............................
........................................................................
   1     -5.2910986 -0.529110E+01  0.596E-06    0.56       0.0  T
   2     -5.2910986  0.545342E-12  0.133E-05    0.56    4336.0  T
   3     -5.2910986 -0.690115E-12  0.936E-07    0.56   61697.9  T
     SCC iter.                  ...        0 min,  0.000 sec
     gradient                   ...        0 min,  0.000 sec
 * total energy  :    -5.2659379 Eh     change       -0.1690825E-10 Eh
   gradient norm :     0.2300144 Eh/α   predicted     0.0000000E+00 (-100.00%)
   displ. norm   :     0.2266628 α      lambda       -0.5094827E-01
   maximum displ.:     0.1708946 α      in ANC's #2, #3, #1, ...

........................................................................
.............................. CYCLE    2 ..............................
........................................................................
   1     -5.3560145 -0.535601E+01  0.194E+00    0.96       0.0  T
   2     -5.3543167  0.169780E-02  0.150E+00    0.87       1.0  T
   3     -5.3569501 -0.263345E-02  0.100E+00    0.92       1.0  T
   4     -5.3584499 -0.149977E-02  0.147E-01    0.88       1.0  T
   5     -5.3584608 -0.109094E-04  0.364E-02    0.87       1.6  T
   6     -5.3584639 -0.310465E-05  0.172E-02    0.88       3.4  T
   7     -5.3584644 -0.540318E-06  0.211E-03    0.88      27.4  T
   8     -5.3584644  0.324951E-08  0.121E-03    0.88      47.8  T
   9     -5.3584644 -0.390382E-08  0.341E-04    0.88     169.5  T
  10     -5.3584644 -0.233803E-09  0.314E-05    0.88    1838.3  T
     SCC iter.                  ...        0 min,  0.000 sec
     gradient                   ...        0 min,  0.000 sec
 * total energy  :    -5.3060347 Eh     change       -0.4009683E-01 Eh
   gradient norm :     0.1032788 Eh/α   predicted    -0.2678289E-01 ( -33.20%)
   displ. norm   :     0.1872004 α      lambda       -0.1842913E-01
   maximum displ.:     0.1303512 α      in ANC's #2, #3, #1, ...

........................................................................
.............................. CYCLE    3 ..............................
........................................................................
   1     -5.4069945 -0.540699E+01  0.155E+00    1.32       0.0  T
   2     -5.4072031 -0.208633E-03  0.932E-01    1.27       1.0  T
   3     -5.4070437  0.159470E-03  0.655E-01    1.28       1.0  T
   4     -5.4077546 -0.710966E-03  0.751E-02    1.25       1.0  T
   5     -5.4077546 -0.379442E-08  0.124E-02    1.25       4.7  T
   6     -5.4077548 -0.182861E-06  0.784E-03    1.25       7.4  T
   7     -5.4077549 -0.985694E-07  0.949E-04    1.25      60.8  T
   8     -5.4077549 -0.279466E-09  0.161E-04    1.25     358.3  T
     SCC iter.                  ...        0 min,  0.000 sec
     gradient                   ...        0 min,  0.000 sec
 * total energy  :    -5.3025081 Eh     change        0.3526595E-02 Eh
   gradient norm :     0.1924929 Eh/α   predicted    -0.9537477E-02 (-370.44%)
   displ. norm   :     0.1120073 α      lambda       -0.2117987E-01
   maximum displ.:     0.0798022 α      in ANC's #2, #3, #1, ...

........................................................................
.............................. CYCLE    4 ..............................
........................................................................
   1     -5.3755505 -0.537555E+01  0.890E-01    0.94       0.0  T
   2     -5.3753755  0.175009E-03  0.660E-01    0.98       1.0  T
   3     -5.3759956 -0.620039E-03  0.409E-01    0.96       1.0  T
   4     -5.3762025 -0.206956E-03  0.524E-02    0.98       1.1  T
   5     -5.3762037 -0.120400E-05  0.166E-02    0.98       3.5  T
   6     -5.3762043 -0.578381E-06  0.302E-03    0.98      19.1  T
   7     -5.3762043 -0.575871E-09  0.807E-04    0.98      71.6  T
   8     -5.3762043 -0.178111E-09  0.935E-05    0.98     617.6  T
     SCC iter.                  ...        0 min,  0.000 sec
     gradient                   ...        0 min,  0.000 sec
 * total energy  :    -5.3106010 Eh     change       -0.8092931E-02 Eh
   gradient norm :     0.0256320 Eh/α   predicted    -0.1072280E-01 (  32.50%)
   displ. norm   :     0.0147531 α      lambda       -0.3364507E-03
   maximum displ.:     0.0086871 α      in ANC's #2, #3, #1, ...

........................................................................
.............................. CYCLE    5 ..............................
........................................................................
   1     -5.3800098 -0.538001E+01  0.106E-01    1.02       0.0  T
   2     -5.3800073  0.246730E-05  0.814E-02    1.01       1.0  T
   3     -5.3800191 -0.117147E-04  0.457E-02    1.01       1.3  T
   4     -5.3800210 -0.192049E-05  0.511E-03    1.01      11.3  T
   5     -5.3800210 -0.443262E-08  0.103E-03    1.01      56.2  T
   6     -5.3800210 -0.303599E-09  0.533E-04    1.01     108.3  T
   7     -5.3800210 -0.315524E-09  0.860E-05    1.01     671.1  T
     SCC iter.                  ...        0 min,  0.000 sec
     gradient                   ...        0 min,  0.000 sec
 * total energy  :    -5.3108079 Eh     change       -0.2068303E-03 Eh
   gradient norm :     0.0058276 Eh/α   predicted    -0.1682606E-03 ( -18.65%)
   displ. norm   :     0.0038120 α      lambda       -0.2203113E-04
   maximum displ.:     0.0027992 α      in ANC's #3, #2, #1, ...

........................................................................
.............................. CYCLE    6 ..............................
........................................................................
   1     -5.3811004 -0.538110E+01  0.321E-02    1.02       0.0  T
   2     -5.3811003  0.984893E-07  0.219E-02    1.02       2.6  T
   3     -5.3811007 -0.381210E-06  0.153E-02    1.02       3.8  T
   4     -5.3811010 -0.339398E-06  0.175E-03    1.02      33.1  T
   5     -5.3811010 -0.608991E-09  0.345E-04    1.02     167.5  T
   6     -5.3811010 -0.103461E-09  0.794E-05    1.02     727.2  T
     SCC iter.                  ...        0 min,  0.000 sec
     gradient                   ...        0 min,  0.000 sec
 * total energy  :    -5.3108184 Eh     change       -0.1053389E-04 Eh
   gradient norm :     0.0002789 Eh/α   predicted    -0.1101716E-04 (   4.59%)
   displ. norm   :     0.0004630 α      lambda       -0.6168079E-07
   maximum displ.:     0.0003442 α      in ANC's #1, #2, #3, ...

........................................................................
.............................. CYCLE    7 ..............................
........................................................................
   1     -5.3810244 -0.538102E+01  0.339E-03    1.02       0.0  T
   2     -5.3810244 -0.460251E-09  0.191E-03    1.02      30.2  T
   3     -5.3810244  0.368590E-09  0.476E-04    1.02     121.3  T
   4     -5.3810244 -0.591303E-09  0.171E-04    1.02     337.6  T
     SCC iter.                  ...        0 min,  0.000 sec
     gradient                   ...        0 min,  0.000 sec
 * total energy  :    -5.3108184 Eh     change       -0.2389023E-07 Eh
   gradient norm :     0.0001441 Eh/α   predicted    -0.2939577E-07 (  23.05%)
   displ. norm   :     0.0001576 α      lambda       -0.7672137E-08
   maximum displ.:     0.0001242 α      in ANC's #1, #3, #2, ...

   *** GEOMETRY OPTIMIZATION CONVERGED AFTER 7 ITERATIONS ***

------------------------------------------------------------------------
 total energy gain   :        -0.0448806 Eh      -28.1630 kcal/mol
 total RMSD          :         0.1771496 a0        0.0937 Å
 total power (kW/mol):       -16.8334124 (step)********** (real)
------------------------------------------------------------------------

 ANCopt (total)                0 d,  0 h,  0 min,  0.006 sec
 optimizer setup                ...        0 min,  0.000 sec (  1.019%)
 model hessian                  ...        0 min,  0.000 sec (  0.598%)
 ANC generation                 ...        0 min,  0.000 sec (  0.552%)
 coordinate transformation      ...        0 min,  0.000 sec (  0.243%)
 single point calculation       ...        0 min,  0.006 sec ( 90.123%)
 optimization log               ...        0 min,  0.000 sec (  1.931%)
 hessian update                 ...        0 min,  0.000 sec (  0.266%)
 rational function              ...        0 min,  0.000 sec (  1.834%)

================
 final structure:
================
3
 xtb: 6.2.2 (9d81278992624c895f80dd42a50cac0aa55982e2)
C         1.01811184168687   -0.09729829896252    0.00000000000000
N        -0.11061182630357    0.38864884727062    0.00000000000000
H        -0.90750001538331   -0.29135054830810    0.00000000000000

 Bond Distances (Angstroems)
 ---------------------------
C1-N2=1.2289         N2-C1=1.2289         N2-H3=1.0476         H3-N2=1.0476         
 N  H  Rav=1.0476 sigma=0.0000  Rmin=1.0476  Rmax=1.0476     1
 N  C  Rav=1.2289 sigma=0.0000  Rmin=1.2289  Rmax=1.2289     1

 selected bond angles (degree)
 --------------------
H3-N2-C1=116.23                

 selected dihedral angles (degree)
 ---------------------------------

           -------------------------------------------------
          |                Final Singlepoint                |
           -------------------------------------------------

          ...................................................
          :                      SETUP                      :
          :.................................................:
          :  # basis functions                   9          :
          :  # atomic orbitals                   9          :
          :  # shells                            5          :
          :  # electrons                        10          :
          :  max. iterations                   250          :
          :  Hamiltonian                  GFN2-xTB          :
          :  restarted?                      false          :
          :  GBSA solvation                  false          :
          :  PC potential                    false          :
          :  electronic temp.          300.0000000     K    :
          :  accuracy                    1.0000000          :
          :  -> integral cutoff          0.2500000E+02      :
          :  -> integral neglect         0.1000000E-07      :
          :  -> SCF convergence          0.1000000E-05 Eh   :
          :  -> wf. convergence          0.1000000E-03 e    :
          :  Broyden damping             0.4000000          :
          ...................................................

 iter      E             dE          RMSdq      gap      omega  full diag
   1     -5.3810244 -0.538102E+01  0.342E-05    1.02       0.0  T
   2     -5.3810244 -0.790479E-13  0.179E-05    1.02    3220.7  T
   3     -5.3810244  0.417444E-13  0.567E-06    1.02   10184.5  T

   *** convergence criteria satisfied after 3 iterations ***

         #    Occupation            Energy/Eh            Energy/eV
      -------------------------------------------------------------
         1        2.0000           -0.6579947             -17.9049
         2        2.0000           -0.5711200             -15.5410
         3        2.0000           -0.5019686             -13.6593
         4        2.0000           -0.4930244             -13.4159
         5        1.0000           -0.4189720             -11.4008
         6        1.0000           -0.2903527              -7.9009 (HOMO)
         7                         -0.2529283              -6.8825 (LUMO)
         8                          0.0842193               2.2917
         9                          0.5693769              15.4935
      -------------------------------------------------------------
                  HL-Gap            0.0374244 Eh            1.0184 eV
             Fermi-level           -0.3638194 Eh           -9.9000 eV

 transition dipole moment (au) for excitation:           5           6
     X       Y       Z   
   0.2551   0.1088   0.0000  total (au/Debye):    0.277   0.705
 dE (eV)             :    3.500
 oscillator strength :  0.93292E-02

 SCC (total)                   0 d,  0 h,  0 min,  0.001 sec
 SCC setup                      ...        0 min,  0.000 sec (  3.846%)
 Dispersion                     ...        0 min,  0.000 sec (  0.397%)
 integral evaluation            ...        0 min,  0.000 sec ( 31.141%)
 zeroth order Hamiltonian       ...        0 min,  0.000 sec (  0.447%)
 iterations                     ...        0 min,  0.000 sec ( 12.680%)
 molecular gradient             ...        0 min,  0.000 sec ( 24.020%)
 printout                       ...        0 min,  0.000 sec ( 26.526%)

         :::::::::::::::::::::::::::::::::::::::::::::::::::::
         ::                     SUMMARY                     ::
         :::::::::::::::::::::::::::::::::::::::::::::::::::::
         :: total energy              -5.310818431242 Eh    ::
         :: gradient norm              0.000143143475 Eh/a0 ::
         :: HOMO-LUMO gap              1.018369902811 eV    ::
         ::.................................................::
         :: SCC energy                -5.381024378682 Eh    ::
         :: -> isotropic ES            0.001903084433 Eh    ::
         :: -> anisotropic ES          0.000641904440 Eh    ::
         :: -> anisotropic XC          0.006217412247 Eh    ::
         :: -> dispersion             -0.000502560085 Eh    ::
         :: repulsion energy           0.070205947448 Eh    ::
         :: add. restraining           0.000000000000 Eh    ::
         :::::::::::::::::::::::::::::::::::::::::::::::::::::

           ------------------------------------------------- 
          |                Numerical Hessian                |
           ------------------------------------------------- 
step length          :   0.00500
SCC accuracy         :   0.30000
Hessian scale factor :   1.00000
frozen atoms in %    :   0.00000    0
RMS gradient         :   0.00014
estimated CPU  time      0.00 min
estimated wall time      0.00 min

writing file <hessian>.

 projected vibrational frequencies (cm-1)
eigval :       -0.00    -0.00    -0.00    -0.00     0.00     0.00
eigval :     1201.22  1823.95  2753.16
           -------------------------------------------------
          |                Property Printout                |
           -------------------------------------------------

    * Orbital Energies and Occupations

         #    Occupation            Energy/Eh            Energy/eV
      -------------------------------------------------------------
         1        2.0000           -0.6579947             -17.9049
         2        2.0000           -0.5711200             -15.5410
         3        2.0000           -0.5019686             -13.6593
         4        2.0000           -0.4930243             -13.4159
         5        1.0000           -0.4189721             -11.4008
         6        1.0000           -0.2903528              -7.9009 (HOMO)
         7                         -0.2529283              -6.8825 (LUMO)
         8                          0.0842193               2.2917
         9                          0.5693769              15.4935
      -------------------------------------------------------------
                  HL-Gap            0.0374244 Eh            1.0184 eV
             Fermi-level           -0.3638194 Eh           -9.9000 eV

     #   Z        covCN         q      C6AA      α(0)
     1   6 C      0.911    -0.028    36.280    10.080
     2   7 N      1.768    -0.155    25.114     7.420
     3   1 H      0.857     0.183     1.197     1.714

 Mol. C6AA /au·bohr⁶  :        146.606575
 Mol. C8AA /au·bohr⁸  :       3556.288327
 Mol. α(0) /au        :         19.214174


Wiberg/Mayer (AO) data.
largest (>0.10) Wiberg bond orders for each atom
          total WBO             WBO to atom ...
     1  C   2.101        N    2 2.100
     2  N   2.954        C    1 2.100    H    3 0.854
     3  H   0.855        N    2 0.854

MOs/occ written to file <molden.input>


molecular dipole:
                 x           y           z       tot (Debye)
 q only:       -0.335      -0.210       0.000
   full:       -0.277      -0.377       0.000       1.189
molecular quadrupole (traceless):
                xx          xy          yy          xz          yz          zz
 q only:        0.443       0.310      -0.243      -0.000      -0.000      -0.200
  q+dip:        1.701       0.483      -0.886      -0.000      -0.000      -0.815
   full:        1.233       0.780      -1.183      -0.000      -0.000      -0.050

           -------------------------------------------------
          |                Geometry Summary                 |
           -------------------------------------------------

      molecular mass/u    :       27.0253799
   center of mass at/Å    :        0.3613004       0.1473189      -0.0000015
  moments of inertia/u·Å² :        0.7688058E+00   0.1088299E+02   0.1165180E+02
rotational constants/cm⁻¹ :        0.2192704E+02   0.1548989E+01   0.1446784E+01

 * 1 selected distances

     #   Z        #   Z                                     value/Å
     1   6 C      2   7 N                                 1.2288864 (max)

 * 1 distinct bonds (by element types)

   Z      Z             #   av. dist./Å        max./Å        min./Å
   6 C    7 N           1     1.2288864     1.2288864     1.2288864
Molecule has the following symmetry elements: (sigma) 
It seems to be the Cs point group

           -------------------------------------------------
          |               Frequency Printout                |
           -------------------------------------------------
 projected vibrational frequencies (cm-1)
eigval :       -0.00    -0.00    -0.00    -0.00     0.00     0.00
eigval :     1201.22  1823.95  2753.16
 reduced masses (amu)
   1: 13.05   2: 12.22   3: 11.93   4: 12.01   5: 13.05   6:  1.01   7:  3.15   8: 12.90
   9:  1.76
 IR intensities (amu)
   1:  0.15   2:  0.09   3:  0.15   4:  0.05   5:  0.25   6:  0.26   7:  0.23   8:  0.24
   9:  0.06
 Raman intensities (amu)
   1:  0.00   2:  0.00   3:  0.00   4:  0.00   5:  0.00   6:  0.00   7:  0.00   8:  0.00
   9:  0.00
 output can be read by thermo (or use thermo option).
 writing <g98.out> molden fake output.
 recommended (thermochemical) frequency scaling factor: 1.0
           -------------------------------------------------
          |             Thermodynamic Functions             |
           -------------------------------------------------

cs  symmetry found (for desy threshold:  0.10E+00) used in thermo

          ...................................................
          :                      SETUP                      :
          :.................................................:
          :  # frequencies                           3      :
          :  # imaginary freq.                       0      :
          :  linear?                             false      :
          :  only rotor calc.                    false      :
          :  symmetry                               cs      :
          :  rotational number                       1      :
          :  scaling factor                  1.0000000      :
          :  rotor cutoff                   50.0000000 cm⁻¹ :
          :  imag. cutoff                  -20.0000000 cm⁻¹ :
          :.................................................:

    mode    ω/cm⁻¹     T·S(HO)/kcal·mol⁻¹    T·S(FR)/kcal·mol⁻¹   T·S(vib)
   ------------------------------------------------------------------------
   ------------------------------------------------------------------------

   temp. (K)  partition function   enthalpy   heat capacity  entropy
                                   cal/mol     cal/K/mol   cal/K/mol   J/K/mol
 298.15  VIB   1.00                   11.262      0.228      0.044
         ROT   754.                  888.752      2.981     16.148
         INT   757.                  900.015      3.209     16.192
         TR   0.136E+27             1481.254      4.968     35.802
         TOT                        2381.2687     8.1769    51.9938   217.5420

   temp. (K)  partition function   enthalpy   heat capacity  entropy
                                   cal/mol     cal/K/mol   cal/K/mol   J/K/mol
 120.00  VIB   1.00                    0.002      0.000      0.000
         ROT   193.                  357.707      2.981     13.435
         INT   193.                  357.709      2.981     13.435
         TR   0.347E+26              596.178      4.968     31.282
         TOT                         953.8867     7.9493    44.7174   187.0977

   temp. (K)  partition function   enthalpy   heat capacity  entropy
                                   cal/mol     cal/K/mol   cal/K/mol   J/K/mol
 100.00  VIB   1.00                    0.000      0.000     -0.000
         ROT   147.                  298.089      2.981     12.892
         INT   147.                  298.089      2.981     12.892
         TR   0.264E+26              496.815      4.968     30.377
         TOT                         794.9041     7.9491    43.2686   181.0357

   temp. (K)  partition function   enthalpy   heat capacity  entropy
                                   cal/mol     cal/K/mol   cal/K/mol   J/K/mol
  80.00  VIB   1.00                    0.000      0.000     -0.000
         ROT   105.                  238.471      2.981     12.226
         INT   105.                  238.471      2.981     12.226
         TR   0.189E+26              397.452      4.968     29.269
         TOT                         635.9232     7.9490    41.4953   173.6165

   temp. (K)  partition function   enthalpy   heat capacity  entropy
                                   cal/mol     cal/K/mol   cal/K/mol   J/K/mol
  60.00  VIB   1.00                    0.000      0.000     -0.000
         ROT   68.1                  178.853      2.981     11.369
         INT   68.1                  178.853      2.981     11.369
         TR   0.123E+26              298.089      4.968     27.840
         TOT                         476.9424     7.9490    39.2092   164.0514

   temp. (K)  partition function   enthalpy   heat capacity  entropy
                                   cal/mol     cal/K/mol   cal/K/mol   J/K/mol
  40.00  VIB   1.00                    0.000      0.000     -0.000
         ROT   37.1                  119.236      2.981     10.160
         INT   37.1                  119.236      2.981     10.160
         TR   0.668E+25              198.726      4.968     25.827
         TOT                         317.9616     7.9490    35.9872   150.5703

   temp. (K)  partition function   enthalpy   heat capacity  entropy
                                   cal/mol     cal/K/mol   cal/K/mol   J/K/mol
  20.00  VIB   1.00                    0.000      0.000     -0.000
         ROT   13.1                   59.618      2.981      8.094
         INT   13.1                   59.618      2.981      8.094
         TR   0.236E+25               99.363      4.968     22.385
         TOT                         158.9808     7.9490    30.4790   127.5241

   temp. (K)  partition function   enthalpy   heat capacity  entropy
                                   cal/mol     cal/K/mol   cal/K/mol   J/K/mol
  10.00  VIB   1.00                    0.000      0.000     -0.000
         ROT   4.63                   29.809      2.981      6.028
         INT   4.63                   29.809      2.981      6.028
         TR   0.835E+24               49.681      4.968     18.943
         TOT                          79.4904     7.9490    24.9708   104.4779

       T/K    H(0)-H(T)+PV         H(T)/Eh          T*S/Eh         G(T)/Eh
   ------------------------------------------------------------------------
    298.15    0.379479E-02    0.169588E-01    0.247039E-01   -0.774513E-02
    120.00    0.152012E-02    0.146841E-01    0.855141E-02    0.613271E-02
    100.00    0.126676E-02    0.144308E-01    0.689529E-02    0.753548E-02
     80.00    0.101341E-02    0.141774E-01    0.529016E-02    0.888725E-02
     60.00    0.760056E-03    0.139241E-01    0.374903E-02    0.101750E-01
     40.00    0.506704E-03    0.136707E-01    0.229397E-02    0.113767E-01
     20.00    0.253352E-03    0.134174E-01    0.971427E-03    0.124459E-01
     10.00    0.126676E-03    0.132907E-01    0.397935E-03    0.128927E-01 (used)
   ------------------------------------------------------------------------

         :::::::::::::::::::::::::::::::::::::::::::::::::::::
         ::                  THERMODYNAMIC                  ::
         :::::::::::::::::::::::::::::::::::::::::::::::::::::
         :: total free energy          -5.297925687027 Eh   ::
         ::.................................................::
         :: total energy               -5.310818431204 Eh   ::
         :: zero point energy           0.013164003282 Eh   ::
         :: G(RRHO) w/o ZPVE           -0.000271259105 Eh   ::
         :: G(RRHO) contrib.            0.012892744177 Eh   ::
         :::::::::::::::::::::::::::::::::::::::::::::::::::::

optimized geometry written to: xtbopt.xyz


           -------------------------------------------------
          | TOTAL ENERGY               -5.310818431204 Eh   |
          | TOTAL ENTHALPY             -5.297527751907 Eh   |
          | TOTAL FREE ENERGY          -5.297925687027 Eh   |
          | GRADIENT NORM               0.000143227408 Eh/α |
          | HOMO-LUMO GAP               1.018370349321 eV   |
           -------------------------------------------------

------------------------------------------------------------------------
 * finished run on 2020/05/12 at 11:44:25.112     
------------------------------------------------------------------------
 total:
 * wall-time:     0 d,  0 h,  0 min,  0.041 sec
 *  cpu-time:     0 d,  0 h,  0 min,  0.041 sec
 * ratio c/w:     0.999 speedup
 SCF:
 * wall-time:     0 d,  0 h,  0 min,  0.002 sec
 *  cpu-time:     0 d,  0 h,  0 min,  0.002 sec
 * ratio c/w:     1.000 speedup
 ANC optimizer:
 * wall-time:     0 d,  0 h,  0 min,  0.008 sec
 *  cpu-time:     0 d,  0 h,  0 min,  0.008 sec
 * ratio c/w:     1.000 speedup
 numerical hessian:
 * wall-time:     0 d,  0 h,  0 min,  0.014 sec
 *  cpu-time:     0 d,  0 h,  0 min,  0.014 sec
 * ratio c/w:     0.999 speedup

