5
 energy: -10.189636425419 gnorm: 0.000450135983 xtb: 6.2.2 (9d81278992624c895f80dd42a50cac0aa55982e2)
C        -1.29799598532487   -0.63596788988387    0.29284733282057
C        -0.00001692579947   -0.00003687814236   -0.00016594986199
C         1.29800568989931    0.63600315930011   -0.29269386846092
C        -1.32751822075219    0.64240124067909   -0.01828398716414
C         1.32752644197199   -0.64240063195821    0.01829647266473
