      -----------------------------------------------------------      
     |                   =====================                   |     
     |                           x T B                           |     
     |                   =====================                   |     
     |                         S. Grimme                         |     
     |          Mulliken Center for Theoretical Chemistry        |     
     |                    University of Bonn                     |     
      -----------------------------------------------------------      

   * xtb version 6.2.2 (9d81278992624c895f80dd42a50cac0aa55982e2) compiled by '@Darwin' on 04/03/2020

   xtb is free software: you can redistribute it and/or modify it under
   the terms of the GNU Lesser General Public License as published by
   the Free Software Foundation, either version 3 of the License, or
   (at your option) any later version.
   
   xtb is distributed in the hope that it will be useful,
   but WITHOUT ANY WARRANTY; without even the implied warranty of
   MERCHANTABILITY or FITNESS FOR A PARTICULAR PURPOSE.  See the
   GNU Lesser General Public License for more details.
   
   Cite this work as:
   * S. Grimme, C. Bannwarth, P. Shushkov, J. Chem. Theory Comput., 2017,
     13, 1989-2009. DOI: 10.1021/acs.jctc.7b00118
   * C. Bannwarth, S. Ehlert and S. Grimme., J. Chem. Theory Comput., 2019,
     15, 1652-1671. DOI: 10.1021/acs.jctc.8b01176
   * P. Pracht, E. Caldeweyher, S. Ehlert, S. Grimme, ChemRxiv, 2019, preprint.
     DOI: 10.26434/chemrxiv.8326202.v1
   
   for DFT-D4:
   * E. Caldeweyher, C. Bannwarth and S. Grimme, J. Chem. Phys., 2017,
     147, 034112. DOI: 10.1063/1.4993215
   * E. Caldeweyher, S. Ehlert, A. Hansen, H. Neugebauer, S. Spicher,
     C. Bannwarth and S. Grimme, J. Chem. Phys., 2019, 150, 154122.
     DOI: 10.1063/1.5090222
   
   for sTDA-xTB:
   * S. Grimme and C. Bannwarth, J. Chem. Phys., 2016, 145, 054103.
     DOI: 10.1063/1.4959605
   
   in the mass-spec context:
   * V. Asgeirsson, C. Bauer and S. Grimme, Chem. Sci., 2017, 8, 4879.
     DOI: 10.1039/c7sc00601b
   
   for metadynamics refer to:
   * S. Grimme, J. Chem. Theory Comput., 2019, 155, 2847-2862
     DOI: 10.1021/acs.jctc.9b00143
   
   with help from (in alphabetical order)
   C. Bannwarth, F. Bohle, G. Brandenburg, E. Caldeweyher, M. Checinski,
   S. Dohm, S. Ehlert, S. Ehrlich, F. März, H. Neugebauer, J. Pisarek,
   P. Pracht, P. Shushkov, and S. Spicher.
   
 * started run on 2020/05/12 at 11:44:35.388     

           -------------------------------------------------
          |                Calculation Setup                |
           -------------------------------------------------

          program call               : xtb --input C5_9_S_2.input C5_9_S_2.xyz --ohess --molden --namespace C5_9_S_2 output.out
          calculation namespace      : C5_9_S_2
          coordinate file            : C5_9_S_2.xyz
          number of atoms            :                     5
          number of electrons        :                    20
          charge                     :                     0
          spin                       :                   1.0
          first test random number   :      0.97179227250698

   ID    Z sym.   atoms
    1    6 C      1-5

           -------------------------------------------------
          |                 G F N 2 - x T B                 |
           -------------------------------------------------

        Reference                      10.1021/acs.jctc.8b01176
      * Hamiltonian:
        H0-scaling (s, p, d)           1.850000    2.230000    2.230000
        zeta-weighting                 0.500000
      * Dispersion:
        s8                             2.700000
        a1                             0.520000
        a2                             5.000000
        s9                             5.000000
      * Repulsion:
        kExp                           1.500000    1.000000
        rExp                           1.000000
      * Coulomb:
        alpha                          2.000000
        third order                    shell-resolved
        anisotropic                    true
        a3                             3.000000
        a5                             4.000000
        cn-shift                       1.200000
        cn-exp                         4.000000
        max-rad                        5.000000


          ...................................................
          :                      SETUP                      :
          :.................................................:
          :  # basis functions                  20          :
          :  # atomic orbitals                  20          :
          :  # shells                           10          :
          :  # electrons                        20          :
          :  max. iterations                   250          :
          :  Hamiltonian                  GFN2-xTB          :
          :  restarted?                      false          :
          :  GBSA solvation                  false          :
          :  PC potential                    false          :
          :  electronic temp.          300.0000000     K    :
          :  accuracy                    1.0000000          :
          :  -> integral cutoff          0.2500000E+02      :
          :  -> integral neglect         0.1000000E-07      :
          :  -> SCF convergence          0.1000000E-05 Eh   :
          :  -> wf. convergence          0.1000000E-03 e    :
          :  Broyden damping             0.4000000          :
          ...................................................

 iter      E             dE          RMSdq      gap      omega  full diag
   1    -10.1729742 -0.101730E+02  0.107E+01    1.11       0.0  T
   2    -10.1726168  0.357422E-03  0.652E+00    0.95       1.0  T
   3    -10.1427348  0.298820E-01  0.226E+00    1.57       1.0  T
   4    -10.1762669 -0.335321E-01  0.641E-01    1.13       1.0  T
   5    -10.1764569 -0.189966E-03  0.582E-01    1.12       1.0  T
   6    -10.1670897  0.936720E-02  0.944E-01    1.03       1.0  T
   7    -10.1769152 -0.982555E-02  0.441E-02    1.08       1.0  T
   8    -10.1769145  0.726800E-06  0.470E-02    1.09       1.0  T
   9    -10.1769215 -0.703233E-05  0.337E-02    1.09       1.3  T
  10    -10.1769273 -0.576798E-05  0.288E-03    1.08      15.5  T
  11    -10.1769273 -0.186699E-07  0.130E-03    1.08      34.3  T
  12    -10.1769273 -0.955678E-08  0.689E-04    1.08      64.9  T
  13    -10.1769273 -0.715476E-09  0.128E-04    1.08     350.4  T

   *** convergence criteria satisfied after 13 iterations ***

         #    Occupation            Energy/Eh            Energy/eV
      -------------------------------------------------------------
         1        2.0000           -0.7520539             -20.4644
       ...           ...                  ...                  ...
         5        2.0000           -0.5497020             -14.9582
         6        2.0000           -0.5465469             -14.8723
         7        2.0000           -0.5256191             -14.3028
         8        2.0000           -0.4680156             -12.7354
         9        1.9988           -0.4624858             -12.5849
        10        1.0012           -0.4496802             -12.2364
        11        1.0000           -0.4238218             -11.5328 (HOMO)
        12                         -0.3841076             -10.4521 (LUMO)
        13                         -0.3548948              -9.6572
        14                         -0.3176518              -8.6437
        15                         -0.2590728              -7.0497
        16                         -0.0799718              -2.1761
       ...                                ...                  ...
        20                          0.2139683               5.8224
      -------------------------------------------------------------
                  HL-Gap            0.0397143 Eh            1.0807 eV
             Fermi-level           -0.4300231 Eh          -11.7015 eV

 transition dipole moment (au) for excitation:          10          11
     X       Y       Z   
   0.0032   0.0073   0.0296  total (au/Debye):    0.031   0.078
 dE (eV)             :    0.704
 oscillator strength :  0.22826E-04

 SCC (total)                   0 d,  0 h,  0 min,  0.006 sec
 SCC setup                      ...        0 min,  0.000 sec (  1.472%)
 Dispersion                     ...        0 min,  0.000 sec (  0.342%)
 integral evaluation            ...        0 min,  0.001 sec ( 24.334%)
 zeroth order Hamiltonian       ...        0 min,  0.000 sec (  0.359%)
 iterations                     ...        0 min,  0.002 sec ( 27.940%)
 molecular gradient             ...        0 min,  0.001 sec ( 25.925%)
 printout                       ...        0 min,  0.001 sec ( 19.435%)

         :::::::::::::::::::::::::::::::::::::::::::::::::::::
         ::                     SUMMARY                     ::
         :::::::::::::::::::::::::::::::::::::::::::::::::::::
         :: total energy             -10.085066438902 Eh    ::
         :: gradient norm              0.169711518897 Eh/a0 ::
         :: HOMO-LUMO gap              1.080679937210 eV    ::
         ::.................................................::
         :: SCC energy               -10.176927329038 Eh    ::
         :: -> isotropic ES           -0.022177466563 Eh    ::
         :: -> anisotropic ES          0.001179220337 Eh    ::
         :: -> anisotropic XC          0.006722457308 Eh    ::
         :: -> dispersion             -0.002886340096 Eh    ::
         :: repulsion energy           0.091860839793 Eh    ::
         :: add. restraining           0.000000000000 Eh    ::
         :::::::::::::::::::::::::::::::::::::::::::::::::::::

      ----------------------------------------------------------- 
     |                   =====================                   |
     |                        A N C O P T                        |
     |                   =====================                   |
     |               Approximate Normal Coordinate               |
     |                Rational Function Optimizer                |
      ----------------------------------------------------------- 

          ...................................................
          :                      SETUP                      :
          :.................................................:
          :   optimization level            normal          :
          :   max. optcycles                   200          :
          :   ANC micro-cycles                  20          :
          :   degrees of freedom                 9          :
          :.................................................:
          :   RF solver                   davidson          :
          :   write xtbopt.log                true          :
          :   linear?                        false          :
          :   energy convergence         0.5000000E-05 Eh   :
          :   grad. convergence          0.1000000E-02 Eh/α :
          :   maximium RF displ.         1.0000000          :
          :   Hlow (freq-cutoff)         0.1000000E-01      :
          :   Hmax (freq-cutoff)         5.0000000          :
          :   S6 in model hess.         20.0000000          :
          ...................................................

generating ANC from model Hessian ...
Using Lindh-Hessian (1995)
 Shifting diagonal of input Hessian by    0.0000000000000000     
 Lowest  eigenvalues of input Hessian
   -0.000000   -0.000000   -0.000000   -0.000000    0.000000    0.000000
    0.038939    0.100084    0.132312    0.441767    0.639394    0.832148
    0.878046    1.153605    1.398483
 Highest eigenvalues
    0.441767    0.639394    0.832148    0.878046    1.153605    1.398483


........................................................................
.............................. CYCLE    1 ..............................
........................................................................
   1    -10.1769273 -0.101769E+02  0.679E-05    1.08       0.0  T
   2    -10.1769273  0.240549E-09  0.155E-04    1.08     289.0  T
   3    -10.1769273  0.727951E-11  0.157E-04    1.08     284.1  T
     SCC iter.                  ...        0 min,  0.001 sec
     gradient                   ...        0 min,  0.001 sec
 * total energy  :   -10.0850664 Eh     change       -0.3305942E-09 Eh
   gradient norm :     0.1697117 Eh/α   predicted     0.0000000E+00 (-100.00%)
   displ. norm   :     0.3272855 α      lambda       -0.3746236E-01
   maximum displ.:     0.2953651 α      in ANC's #3, #8, #5, ...

........................................................................
.............................. CYCLE    2 ..............................
........................................................................
   1    -10.2405130 -0.102405E+02  0.292E+00    1.93       0.0  T
   2    -10.2406772 -0.164170E-03  0.174E+00    1.93       1.0  T
   3    -10.2406358  0.413435E-04  0.253E-01    1.99       1.0  T
   4    -10.2408023 -0.166512E-03  0.132E-01    1.95       1.0  T
   5    -10.2407494  0.528786E-04  0.921E-02    1.95       1.0  T
   6    -10.2408053 -0.558976E-04  0.197E-02    1.95       2.3  T
   7    -10.2408044  0.899997E-06  0.229E-02    1.95       1.9  T
   8    -10.2408075 -0.309932E-05  0.448E-03    1.95      10.0  T
   9    -10.2408074  0.899999E-07  0.428E-03    1.95      10.4  T
  10    -10.2408076 -0.143566E-06  0.202E-04    1.95     221.8  T
  11    -10.2408076 -0.752287E-11  0.680E-05    1.95     657.6  T
     SCC iter.                  ...        0 min,  0.001 sec
     gradient                   ...        0 min,  0.001 sec
 * total energy  :   -10.1205579 Eh     change       -0.3549143E-01 Eh
   gradient norm :     0.1914466 Eh/α   predicted    -0.2073758E-01 ( -41.57%)
   displ. norm   :     0.4189096 α      lambda       -0.5477293E-01
   maximum displ.:     0.3921585 α      in ANC's #3, #8, #5, ...

........................................................................
.............................. CYCLE    3 ..............................
........................................................................
   1    -10.3173031 -0.103173E+02  0.211E+00    2.06       0.0  T
   2    -10.3173909 -0.878098E-04  0.121E+00    2.14       1.0  T
   3    -10.3164406  0.950340E-03  0.437E-01    2.01       1.0  T
   4    -10.3175405 -0.109989E-02  0.681E-02    2.12       1.0  T
   5    -10.3175424 -0.189323E-05  0.120E-02    2.11       3.7  T
   6    -10.3175398  0.261184E-05  0.209E-02    2.11       2.1  T
   7    -10.3175429 -0.314045E-05  0.375E-03    2.11      11.9  T
   8    -10.3175428  0.935600E-07  0.389E-03    2.11      11.5  T
   9    -10.3175429 -0.109020E-06  0.140E-04    2.11     319.4  T
  10    -10.3175429  0.201403E-10  0.903E-05    2.11     495.4  T
     SCC iter.                  ...        0 min,  0.001 sec
     gradient                   ...        0 min,  0.001 sec
 * total energy  :   -10.1628543 Eh     change       -0.4229642E-01 Eh
   gradient norm :     0.0990636 Eh/α   predicted    -0.3219238E-01 ( -23.89%)
   displ. norm   :     0.3607644 α      lambda       -0.2614753E-01
   maximum displ.:     0.3199301 α      in ANC's #3, #8, #5, ...

........................................................................
.............................. CYCLE    4 ..............................
........................................................................
   1    -10.3689147 -0.103689E+02  0.144E+00    2.28       0.0  T
   2    -10.3689349 -0.201624E-04  0.846E-01    2.30       1.0  T
   3    -10.3688777  0.571939E-04  0.115E-01    2.28       1.0  T
   4    -10.3689503 -0.726338E-04  0.443E-02    2.31       1.0  T
   5    -10.3689516 -0.131385E-05  0.698E-03    2.30       6.4  T
   6    -10.3689511  0.466005E-06  0.101E-02    2.30       4.4  T
   7    -10.3689519 -0.717784E-06  0.176E-03    2.30      25.3  T
   8    -10.3689519  0.219368E-09  0.451E-04    2.30      99.1  T
   9    -10.3689519 -0.138162E-08  0.590E-05    2.30     758.4  T
     SCC iter.                  ...        0 min,  0.001 sec
     gradient                   ...        0 min,  0.001 sec
 * total energy  :   -10.1772923 Eh     change       -0.1443806E-01 Eh
   gradient norm :     0.0788595 Eh/α   predicted    -0.1477532E-01 (   2.34%)
   displ. norm   :     0.1913988 α      lambda       -0.9317331E-02
   maximum displ.:     0.1349166 α      in ANC's #5, #3, #8, ...

........................................................................
.............................. CYCLE    5 ..............................
........................................................................
   1    -10.3607497 -0.103607E+02  0.638E-01    2.64       0.0  T
   2    -10.3607602 -0.105763E-04  0.382E-01    2.68       1.0  T
   3    -10.3606542  0.106056E-03  0.155E-01    2.63       1.0  T
   4    -10.3607758 -0.121640E-03  0.149E-02    2.67       3.0  T
   5    -10.3607757  0.162809E-06  0.489E-03    2.67       9.1  T
   6    -10.3607757 -0.912480E-07  0.336E-03    2.67      13.3  T
   7    -10.3607758 -0.794440E-07  0.641E-04    2.67      69.8  T
   8    -10.3607758  0.306448E-08  0.805E-04    2.67      55.6  T
     SCC iter.                  ...        0 min,  0.001 sec
     gradient                   ...        0 min,  0.001 sec
 * total energy  :   -10.1839771 Eh     change       -0.6684730E-02 Eh
   gradient norm :     0.0433181 Eh/α   predicted    -0.4829330E-02 ( -27.76%)
   displ. norm   :     0.2079282 α      lambda       -0.8054396E-02
   maximum displ.:     0.1918015 α      in ANC's #5, #8, #3, ...

........................................................................
.............................. CYCLE    6 ..............................
........................................................................
   1    -10.3692878 -0.103693E+02  0.700E-01    3.15       0.0  T
   2    -10.3693405 -0.527577E-04  0.431E-01    3.08       1.0  T
   3    -10.3691826  0.157923E-03  0.221E-01    3.16       1.0  T
   4    -10.3693966 -0.214002E-03  0.170E-02    3.11       2.6  T
   5    -10.3693956  0.105445E-05  0.122E-02    3.11       3.7  T
   6    -10.3693966 -0.103796E-05  0.254E-03    3.11      17.6  T
   7    -10.3693966 -0.412057E-08  0.242E-03    3.11      18.5  T
   8    -10.3693967 -0.411359E-07  0.335E-04    3.11     133.4  T
   9    -10.3693967 -0.778169E-10  0.214E-05    3.11    2085.9  T
     SCC iter.                  ...        0 min,  0.001 sec
     gradient                   ...        0 min,  0.001 sec
 * total energy  :   -10.1890539 Eh     change       -0.5076807E-02 Eh
   gradient norm :     0.0141571 Eh/α   predicted    -0.4201309E-02 ( -17.25%)
   displ. norm   :     0.0832376 α      lambda       -0.9851146E-03
   maximum displ.:     0.0745996 α      in ANC's #5, #8, #3, ...

........................................................................
.............................. CYCLE    7 ..............................
........................................................................
   1    -10.3740730 -0.103741E+02  0.267E-01    3.24       0.0  T
   2    -10.3740840 -0.109189E-04  0.164E-01    3.21       1.0  T
   3    -10.3740652  0.187898E-04  0.886E-02    3.24       1.0  T
   4    -10.3740940 -0.288655E-04  0.724E-03    3.22       6.2  T
   5    -10.3740934  0.656423E-06  0.961E-03    3.22       4.7  T
   6    -10.3740940 -0.659100E-06  0.132E-03    3.22      33.9  T
   7    -10.3740940 -0.741649E-08  0.820E-04    3.22      54.5  T
   8    -10.3740941 -0.414664E-08  0.196E-04    3.22     228.2  T
     SCC iter.                  ...        0 min,  0.001 sec
     gradient                   ...        0 min,  0.002 sec
 * total energy  :   -10.1896169 Eh     change       -0.5630495E-03 Eh
   gradient norm :     0.0024195 Eh/α   predicted    -0.4959714E-03 ( -11.91%)
   displ. norm   :     0.0215981 α      lambda       -0.3919934E-04
   maximum displ.:     0.0167166 α      in ANC's #5, #3, #8, ...

........................................................................
.............................. CYCLE    8 ..............................
........................................................................
   1    -10.3745597 -0.103746E+02  0.663E-02    3.22       0.0  T
   2    -10.3745597 -0.406463E-07  0.401E-02    3.22       1.1  T
   3    -10.3745596  0.103372E-06  0.525E-03    3.22       8.5  T
   4    -10.3745598 -0.127209E-06  0.171E-03    3.22      26.2  T
   5    -10.3745597  0.582376E-07  0.301E-03    3.22      14.8  T
   6    -10.3745598 -0.590321E-07  0.705E-04    3.22      63.4  T
   7    -10.3745598 -0.359192E-08  0.671E-05    3.22     666.4  T
     SCC iter.                  ...        0 min,  0.001 sec
     gradient                   ...        0 min,  0.001 sec
 * total energy  :   -10.1896363 Eh     change       -0.1938639E-04 Eh
   gradient norm :     0.0005467 Eh/α   predicted    -0.1960972E-04 (   1.15%)
   displ. norm   :     0.0031469 α      lambda       -0.9625196E-06
   maximum displ.:     0.0030441 α      in ANC's #3, #5, #8, ...

........................................................................
.............................. CYCLE    9 ..............................
........................................................................
   1    -10.3749822 -0.103750E+02  0.113E-02    3.23       0.0  T
   2    -10.3749822 -0.854218E-07  0.735E-03    3.23       6.1  T
   3    -10.3749823 -0.553483E-07  0.422E-03    3.23      10.6  T
   4    -10.3749823 -0.101894E-07  0.139E-03    3.23      32.2  T
   5    -10.3749823 -0.124119E-07  0.467E-04    3.23      95.7  T
   6    -10.3749823  0.179686E-08  0.622E-04    3.23      71.9  T
     SCC iter.                  ...        0 min,  0.001 sec
     gradient                   ...        0 min,  0.001 sec
 * total energy  :   -10.1896364 Eh     change       -0.1030545E-06 Eh
   gradient norm :     0.0004507 Eh/α   predicted    -0.4832251E-06 ( 368.90%)
   displ. norm   :     0.0014601 α      lambda       -0.3826019E-06
   maximum displ.:     0.0014043 α      in ANC's #3, #5, #8, ...

   *** GEOMETRY OPTIMIZATION CONVERGED AFTER 9 ITERATIONS ***

------------------------------------------------------------------------
 total energy gain   :        -0.1045700 Eh      -65.6187 kcal/mol
 total RMSD          :         0.6352467 a0        0.3362 Å
 total power (kW/mol):       -30.5053842 (step)-7842.8868 (real)
------------------------------------------------------------------------

 ANCopt (total)                0 d,  0 h,  0 min,  0.035 sec
 optimizer setup                ...        0 min,  0.000 sec (  0.174%)
 model hessian                  ...        0 min,  0.000 sec (  0.240%)
 ANC generation                 ...        0 min,  0.000 sec (  0.138%)
 coordinate transformation      ...        0 min,  0.000 sec (  0.054%)
 single point calculation       ...        0 min,  0.034 sec ( 97.346%)
 optimization log               ...        0 min,  0.000 sec (  0.572%)
 hessian update                 ...        0 min,  0.000 sec (  0.053%)
 rational function              ...        0 min,  0.000 sec (  0.600%)

================
 final structure:
================
5
 xtb: 6.2.2 (9d81278992624c895f80dd42a50cac0aa55982e2)
C        -1.29799367760911   -0.63597519727238    0.29284169198402
C        -0.00001692502711   -0.00003687794134   -0.00016594998544
C         1.29800338146319    0.63601046647159   -0.29268822752893
C        -1.32752152050778    0.64239432171982   -0.01828749989896
C         1.32752974168081   -0.64239371297769    0.01829998542931

 Bond Distances (Angstroems)
 ---------------------------
C1-C2=1.4748         C1-C4=1.3160         C2-C1=1.4748         C2-C3=1.4748         C2-C4=1.4749         C2-C5=1.4749         
C3-C2=1.4748         C3-C5=1.3160         C4-C1=1.3160         C4-C2=1.4749         C5-C2=1.4749         C5-C3=1.3160         
 C  C  Rav=1.4219 sigma=0.0749  Rmin=1.3160  Rmax=1.4749     6

 selected bond angles (degree)
 --------------------
C4-C1-C2= 63.51                C3-C2-C1=179.98                C4-C2-C1= 52.99                C4-C2-C3=127.01                
C5-C2-C1=127.01                C5-C2-C3= 52.99                C5-C2-C4=179.99                C5-C3-C2= 63.51                
C2-C4-C1= 63.50                C3-C5-C2= 63.50                

 selected dihedral angles (degree)
 ---------------------------------
C3-C2-C1-C4= 90.63            C5-C2-C1-C4=179.98            C5-C3-C2-C1= 89.37            C5-C3-C2-C4=179.98            
C1-C4-C2-C3=180.02            C1-C4-C2-C5=271.05            C3-C5-C2-C1=180.02            C3-C5-C2-C4=268.97            
           -------------------------------------------------
          |                Final Singlepoint                |
           -------------------------------------------------

          ...................................................
          :                      SETUP                      :
          :.................................................:
          :  # basis functions                  20          :
          :  # atomic orbitals                  20          :
          :  # shells                           10          :
          :  # electrons                        20          :
          :  max. iterations                   250          :
          :  Hamiltonian                  GFN2-xTB          :
          :  restarted?                      false          :
          :  GBSA solvation                  false          :
          :  PC potential                    false          :
          :  electronic temp.          300.0000000     K    :
          :  accuracy                    1.0000000          :
          :  -> integral cutoff          0.2500000E+02      :
          :  -> integral neglect         0.1000000E-07      :
          :  -> SCF convergence          0.1000000E-05 Eh   :
          :  -> wf. convergence          0.1000000E-03 e    :
          :  Broyden damping             0.4000000          :
          ...................................................

 iter      E             dE          RMSdq      gap      omega  full diag
   1    -10.3749823 -0.103750E+02  0.246E-04    3.23       0.0  T
   2    -10.3749823  0.232738E-10  0.136E-04    3.23     327.9  T
   3    -10.3749823  0.715557E-09  0.345E-04    3.23     129.8  T

   *** convergence criteria satisfied after 3 iterations ***

         #    Occupation            Energy/Eh            Energy/eV
      -------------------------------------------------------------
         1        2.0000           -0.7325065             -19.9325
       ...           ...                  ...                  ...
         5        2.0000           -0.5582197             -15.1899
         6        2.0000           -0.5243921             -14.2694
         7        2.0000           -0.5176257             -14.0853
         8        2.0000           -0.4759492             -12.9512
         9        1.9998           -0.4346640             -11.8278
        10        1.0002           -0.4186713             -11.3926
        11        1.0000           -0.4112969             -11.1920 (HOMO)
        12                         -0.2925970              -7.9620 (LUMO)
        13                         -0.2767924              -7.5319
        14                         -0.2674257              -7.2770
        15                         -0.2385737              -6.4919
        16                         -0.0140924              -0.3835
       ...                                ...                  ...
        20                          0.5785302              15.7426
      -------------------------------------------------------------
                  HL-Gap            0.1187000 Eh            3.2300 eV
             Fermi-level           -0.3893074 Eh          -10.5936 eV

 transition dipole moment (au) for excitation:          10          11
     X       Y       Z   
  -2.4862   0.0056   0.2600  total (au/Debye):    2.500   6.354
 dE (eV)             :    0.201
 oscillator strength :  0.43447E-01

 SCC (total)                   0 d,  0 h,  0 min,  0.004 sec
 SCC setup                      ...        0 min,  0.000 sec (  1.086%)
 Dispersion                     ...        0 min,  0.000 sec (  0.330%)
 integral evaluation            ...        0 min,  0.001 sec ( 31.425%)
 zeroth order Hamiltonian       ...        0 min,  0.000 sec (  0.347%)
 iterations                     ...        0 min,  0.000 sec (  9.246%)
 molecular gradient             ...        0 min,  0.001 sec ( 32.684%)
 printout                       ...        0 min,  0.001 sec ( 24.715%)

         :::::::::::::::::::::::::::::::::::::::::::::::::::::
         ::                     SUMMARY                     ::
         :::::::::::::::::::::::::::::::::::::::::::::::::::::
         :: total energy             -10.189636425419 Eh    ::
         :: gradient norm              0.000450135983 Eh/a0 ::
         :: HOMO-LUMO gap              3.229990238511 eV    ::
         ::.................................................::
         :: SCC energy               -10.374982318627 Eh    ::
         :: -> isotropic ES           -0.008305479233 Eh    ::
         :: -> anisotropic ES          0.001566410112 Eh    ::
         :: -> anisotropic XC          0.004992158328 Eh    ::
         :: -> dispersion             -0.002848308020 Eh    ::
         :: repulsion energy           0.185345849780 Eh    ::
         :: add. restraining           0.000000000000 Eh    ::
         :::::::::::::::::::::::::::::::::::::::::::::::::::::

           ------------------------------------------------- 
          |                Numerical Hessian                |
           ------------------------------------------------- 
step length          :   0.00500
SCC accuracy         :   0.30000
Hessian scale factor :   1.00000
frozen atoms in %    :   0.00000    0
RMS gradient         :   0.00045
estimated CPU  time      0.00 min
estimated wall time      0.00 min

writing file <hessian>.

 projected vibrational frequencies (cm-1)
eigval :       -0.00    -0.00    -0.00     0.00     0.00     0.00
eigval :     -687.41  -326.90   232.91   319.87   424.18   758.30
eigval :      931.20  1701.21  1810.62
           -------------------------------------------------
          |                Property Printout                |
           -------------------------------------------------

    * Orbital Energies and Occupations

         #    Occupation            Energy/Eh            Energy/eV
      -------------------------------------------------------------
         1        2.0000           -0.7325065             -19.9325
         2        2.0000           -0.7122090             -19.3802
         3        2.0000           -0.6048041             -16.4576
         4        2.0000           -0.5872615             -15.9802
         5        2.0000           -0.5582197             -15.1899
         6        2.0000           -0.5243921             -14.2694
         7        2.0000           -0.5176257             -14.0853
         8        2.0000           -0.4759492             -12.9512
         9        1.9998           -0.4346640             -11.8278
        10        1.0002           -0.4186713             -11.3926
        11        1.0000           -0.4112969             -11.1920 (HOMO)
        12                         -0.2925970              -7.9620 (LUMO)
        13                         -0.2767923              -7.5319
        14                         -0.2674257              -7.2770
        15                         -0.2385736              -6.4919
        16                         -0.0140924              -0.3835
        17                          0.0683724               1.8605
        18                          0.3928255              10.6893
        19                          0.4892117              13.3121
        20                          0.5785302              15.7426
      -------------------------------------------------------------
                  HL-Gap            0.1186999 Eh            3.2300 eV
             Fermi-level           -0.3893074 Eh          -10.5936 eV

     #   Z        covCN         q      C6AA      α(0)
     1   6 C      1.959    -0.043    32.232     9.168
     2   6 C      3.913     0.173    17.785     5.994
     3   6 C      1.959    -0.043    32.231     9.168
     4   6 C      1.959    -0.043    32.233     9.168
     5   6 C      1.959    -0.043    32.233     9.168

 Mol. C6AA /au·bohr⁶  :        723.886874
 Mol. C8AA /au·bohr⁸  :      20936.066330
 Mol. α(0) /au        :         42.667443


Wiberg/Mayer (AO) data.
largest (>0.10) Wiberg bond orders for each atom
          total WBO             WBO to atom ...
     1  C   2.938        C    4 1.735    C    2 0.973    C    3 0.158
     2  C   3.890        C    3 0.973    C    1 0.973    C    4 0.972    C    5 0.972
Molecule has the following symmetry elements: (i) 3*(C2) 3*(sigma) 
It seems to be the D2h point group
     3  C   2.938        C    5 1.735    C    2 0.973    C    1 0.158
     4  C   2.938        C    1 1.735    C    2 0.972    C    5 0.159
     5  C   2.938        C    3 1.735    C    2 0.972    C    4 0.159

MOs/occ written to file <molden.input>


molecular dipole:
                 x           y           z       tot (Debye)
 q only:       -0.000       0.000      -0.000
   full:       -0.000       0.000      -0.000       0.000
molecular quadrupole (traceless):
                xx          xy          yy          xz          yz          zz
 q only:       -0.925       0.013       0.293       0.165       0.092       0.632
  q+dip:       -4.428      -0.001       2.628       0.657      -0.199       1.799
   full:       -4.776       0.115       0.605       0.947       0.946       4.170

           -------------------------------------------------
          |                Geometry Summary                 |
           -------------------------------------------------

      molecular mass/u    :       60.0536795
   center of mass at/Å    :        0.0000002      -0.0000002      -0.0000000
  moments of inertia/u·Å² :        0.2080142E+02   0.8369985E+02   0.1045013E+03
rotational constants/cm⁻¹ :        0.8104077E+00   0.2014058E+00   0.1613151E+00

 * 2 selected distances

     #   Z        #   Z                                     value/Å
     1   6 C      4   6 C                                 1.3160174 (min)
     3   6 C      5   6 C                                 1.3160178 (max)

 * 1 distinct bonds (by element types)

   Z      Z             #   av. dist./Å        max./Å        min./Å
   6 C    6 C           2     1.3160176     1.3160178     1.3160174

           -------------------------------------------------
          |               Frequency Printout                |
           -------------------------------------------------
 projected vibrational frequencies (cm-1)
eigval :       -0.00    -0.00    -0.00     0.00     0.00     0.00
eigval :     -687.41  -326.90   232.91   319.87   424.18   758.30
eigval :      931.20  1701.21  1810.62
 reduced masses (amu)
   1: 12.01   2: 12.01   3: 12.01   4: 12.01   5: 12.01   6: 12.01   7: 12.01   8: 12.01
   9: 12.01  10: 12.01  11: 12.01  12: 12.01  13: 12.01  14: 12.01  15: 12.01
 IR intensities (amu)
   1:  0.00   2:  0.01   3:  0.00   4:  0.01   5:  0.01   6:  0.01   7:  3.74   8:  0.00
   9:  0.02  10:  0.33  11:  0.51  12:  0.00  13:  0.76  14:  0.00  15:  0.99
 Raman intensities (amu)
   1:  0.00   2:  0.00   3:  0.00   4:  0.00   5:  0.00   6:  0.00   7:  0.00   8:  0.00
   9:  0.00  10:  0.00  11:  0.00  12:  0.00  13:  0.00  14:  0.00  15:  0.00
 output can be read by thermo (or use thermo option).
 writing <g98.out> molden fake output.
 recommended (thermochemical) frequency scaling factor: 1.0
           -------------------------------------------------
          |             Thermodynamic Functions             |
           -------------------------------------------------

d2h symmetry found (for desy threshold:  0.10E+00) used in thermo

          ...................................................
          :                      SETUP                      :
          :.................................................:
          :  # frequencies                           7      :
          :  # imaginary freq.                       2      :
          :  linear?                             false      :
          :  only rotor calc.                    false      :
          :  symmetry                              d2h      :
          :  rotational number                       4      :
          :  scaling factor                  1.0000000      :
          :  rotor cutoff                   50.0000000 cm⁻¹ :
          :  imag. cutoff                  -20.0000000 cm⁻¹ :
          :.................................................:

    mode    ω/cm⁻¹     T·S(HO)/kcal·mol⁻¹    T·S(FR)/kcal·mol⁻¹   T·S(vib)
   ------------------------------------------------------------------------
       1    232.91    -0.00000 ( 99.79%)     0.01359 (  0.21%)     0.00003
   ------------------------------------------------------------------------

   temp. (K)  partition function   enthalpy   heat capacity  entropy
                                   cal/mol     cal/K/mol   cal/K/mol   J/K/mol
 298.15  VIB   2.25                  838.459      6.085      4.421
         ROT  0.815E+04              888.752      2.981     20.877
         INT  0.183E+05             1727.211      9.066     25.298
         TR   0.450E+27             1481.254      4.968     38.181
         TOT                        3208.4652    14.0345    63.4787   265.5950

   temp. (K)  partition function   enthalpy   heat capacity  entropy
                                   cal/mol     cal/K/mol   cal/K/mol   J/K/mol
 120.00  VIB   1.10                   71.479      2.081      0.779
         ROT  0.208E+04              357.707      2.981     18.164
         INT  0.228E+04              429.185      5.062     18.943
         TR   0.115E+27              596.178      4.968     33.661
         TOT                        1025.3633    10.0298    52.6042   220.0959

   temp. (K)  partition function   enthalpy   heat capacity  entropy
                                   cal/mol     cal/K/mol   cal/K/mol   J/K/mol
 100.00  VIB   1.05                   36.215      1.442      0.459
         ROT  0.158E+04              298.089      2.981     17.620
         INT  0.166E+04              334.304      4.423     18.080
         TR   0.875E+26              496.815      4.968     32.756
         TOT                         831.1187     9.3909    50.8356   212.6960

   temp. (K)  partition function   enthalpy   heat capacity  entropy
                                   cal/mol     cal/K/mol   cal/K/mol   J/K/mol
  80.00  VIB   1.02                   13.759      0.812      0.211
         ROT  0.113E+04              238.471      2.981     16.955
         INT  0.115E+04              252.230      3.793     17.166
         TR   0.626E+26              397.452      4.968     31.648
         TOT                         649.6819     8.7610    48.8141   204.2383

   temp. (K)  partition function   enthalpy   heat capacity  entropy
                                   cal/mol     cal/K/mol   cal/K/mol   J/K/mol
  60.00  VIB   1.00                    2.982      0.297      0.059
         ROT   735.                  178.853      2.981     16.098
         INT   739.                  181.836      3.278     16.157
         TR   0.406E+26              298.089      4.968     30.219
         TOT                         479.9245     8.2459    46.3760   194.0371

   temp. (K)  partition function   enthalpy   heat capacity  entropy
                                   cal/mol     cal/K/mol   cal/K/mol   J/K/mol
  40.00  VIB   1.00                    0.163      0.035      0.004
         ROT   400.                  119.236      2.981     14.889
         INT   400.                  119.398      3.016     14.893
         TR   0.221E+26              198.726      4.968     28.206
         TOT                         318.1243     7.9839    43.0992   180.3270

   temp. (K)  partition function   enthalpy   heat capacity  entropy
                                   cal/mol     cal/K/mol   cal/K/mol   J/K/mol
  20.00  VIB   1.00                    0.000      0.000     -0.002
         ROT   142.                   59.618      2.981     12.823
         INT   142.                   59.618      2.981     12.820
         TR   0.782E+25               99.363      4.968     24.764
         TOT                         158.9808     7.9491    37.5845   157.2534

   temp. (K)  partition function   enthalpy   heat capacity  entropy
                                   cal/mol     cal/K/mol   cal/K/mol   J/K/mol
  10.00  VIB   1.00                    0.000      0.000     -0.004
         ROT   50.0                   29.809      2.981     10.757
         INT   50.0                   29.809      2.981     10.752
         TR   0.277E+25               49.681      4.968     21.322
         TOT                          79.4904     7.9490    32.0743   134.1987

       T/K    H(0)-H(T)+PV         H(T)/Eh          T*S/Eh         G(T)/Eh
   ------------------------------------------------------------------------
    298.15    0.511301E-02    0.191882E-01    0.301608E-01   -0.109726E-01
    120.00    0.163402E-02    0.157092E-01    0.100596E-01    0.564956E-02
    100.00    0.132447E-02    0.153996E-01    0.810116E-02    0.729846E-02
     80.00    0.103533E-02    0.151105E-01    0.622322E-02    0.888727E-02
     60.00    0.764808E-03    0.148400E-01    0.443429E-02    0.104057E-01
     40.00    0.506963E-03    0.145821E-01    0.274732E-02    0.118348E-01
     20.00    0.253352E-03    0.143285E-01    0.119789E-02    0.131306E-01
     10.00    0.126676E-03    0.142018E-01    0.511136E-03    0.136907E-01 (used)
   ------------------------------------------------------------------------

         :::::::::::::::::::::::::::::::::::::::::::::::::::::
         ::                  THERMODYNAMIC                  ::
         :::::::::::::::::::::::::::::::::::::::::::::::::::::
         :: total free energy         -10.175945731927 Eh   ::
         ::.................................................::
         :: total energy              -10.189636426274 Eh   ::
         :: zero point energy           0.014075154184 Eh   ::
         :: G(RRHO) w/o ZPVE           -0.000384459836 Eh   ::
         :: G(RRHO) contrib.            0.013690694348 Eh   ::
         :::::::::::::::::::::::::::::::::::::::::::::::::::::
imag cut-off (cm-1) :    5.00
 found            2  significant imaginary frequencies
 writing imag mode distorted coords to xtbhess.xyz
 for further optimization.

optimized geometry written to: xtbopt.xyz


           -------------------------------------------------
          | TOTAL ENERGY              -10.189636426274 Eh   |
          | TOTAL ENTHALPY            -10.175434596075 Eh   |
          | TOTAL FREE ENERGY         -10.175945731927 Eh   |
          | GRADIENT NORM               0.000450107982 Eh/α |
          | HOMO-LUMO GAP               3.229988772727 eV   |
           -------------------------------------------------

------------------------------------------------------------------------
 * finished run on 2020/05/12 at 11:44:35.559     
------------------------------------------------------------------------
 total:
 * wall-time:     0 d,  0 h,  0 min,  0.171 sec
 *  cpu-time:     0 d,  0 h,  0 min,  0.171 sec
 * ratio c/w:     0.999 speedup
 SCF:
 * wall-time:     0 d,  0 h,  0 min,  0.006 sec
 *  cpu-time:     0 d,  0 h,  0 min,  0.006 sec
 * ratio c/w:     1.000 speedup
 ANC optimizer:
 * wall-time:     0 d,  0 h,  0 min,  0.040 sec
 *  cpu-time:     0 d,  0 h,  0 min,  0.040 sec
 * ratio c/w:     0.998 speedup
 numerical hessian:
 * wall-time:     0 d,  0 h,  0 min,  0.109 sec
 *  cpu-time:     0 d,  0 h,  0 min,  0.109 sec
 * ratio c/w:     0.999 speedup

