5
 energy: -10.085066439233 gnorm: 0.169711677880 xtb: 6.2.2 (9d81278992624c895f80dd42a50cac0aa55982e2)
C        -1.10263500000000   -0.67780600000000    0.43095400000000
C        -0.05828100000000   -0.13620700000000   -0.55426100000000
C         1.13178200000000    0.74589700000000   -0.15384200000000
C        -1.13553600000000    0.75138100000000    0.08321400000000
C         1.16467100000000   -0.68326600000000    0.19393500000000
5
 energy: -10.120557870486 gnorm: 0.191446598125 xtb: 6.2.2 (9d81278992624c895f80dd42a50cac0aa55982e2)
C        -1.16062958023067   -0.65723060596584    0.40377556877450
C        -0.04720327936849   -0.11031352317574   -0.44890641294799
C         1.18423971128532    0.71237514267118   -0.17934033786479
C        -1.19229619828920    0.71812400119466    0.06913265658089
C         1.21589034660304   -0.66295601472425    0.15533852545738
5
 energy: -10.162854288794 gnorm: 0.099063584253 xtb: 6.2.2 (9d81278992624c895f80dd42a50cac0aa55982e2)
C        -1.24781567804389   -0.62613587905535    0.37696397920738
C        -0.03607926596473   -0.08431464630366   -0.34311388843129
C         1.26586317417289    0.66828378817642   -0.20542389080543
C        -1.27776403136819    0.67443530834000    0.06051610319310
C         1.29579680120392   -0.63226957115741    0.11105769683624
5
 energy: -10.177292348231 gnorm: 0.078859467851 xtb: 6.2.2 (9d81278992624c895f80dd42a50cac0aa55982e2)
C        -1.30683281013977   -0.60881317082324    0.34496191143754
C        -0.02274844795761   -0.05316440918816   -0.21635162751970
C         1.31821104160265    0.63539337625869   -0.23679499679613
C        -1.33563459722466    0.64180793857442    0.04065972843046
C         1.34700581371939   -0.61522473482172    0.06752498444783
5
 energy: -10.183977077994 gnorm: 0.043318131311 xtb: 6.2.2 (9d81278992624c895f80dd42a50cac0aa55982e2)
C        -1.32253447990941   -0.62314675250898    0.32802821850908
C        -0.01406723927221   -0.03287806763489   -0.13379769436040
C         1.32956963133299    0.63958581174828   -0.26112625720310
C        -1.35177016204883    0.64607002022174    0.01918998540552
C         1.35880324989745   -0.62963201182615    0.04770574764890
5
 energy: -10.189053884813 gnorm: 0.014157133023 xtb: 6.2.2 (9d81278992624c895f80dd42a50cac0aa55982e2)
C        -1.30629847264473   -0.63338393314408    0.30498592984846
C        -0.00469672122760   -0.01098072907596   -0.04468864826616
C         1.30864871671126    0.63888308343446   -0.28260480692526
C        -1.33578229191148    0.64528839990114   -0.00618539899474
C         1.33812976907255   -0.63980782111557    0.02849292433770
5
 energy: -10.189616934293 gnorm: 0.002419479937 xtb: 6.2.2 (9d81278992624c895f80dd42a50cac0aa55982e2)
C        -1.29864935911066   -0.63566939675226    0.29536171029885
C        -0.00101358355464   -0.00237127992591   -0.00965576749049
C         1.29915627455271    0.63686537449756   -0.29049254069683
C        -1.32815081817246    0.64323657637359   -0.01587001704142
C         1.32865848628506   -0.64206227419297    0.02065661492989
5
 energy: -10.189636320679 gnorm: 0.000546668357 xtb: 6.2.2 (9d81278992624c895f80dd42a50cac0aa55982e2)
C        -1.29881217866263   -0.63603998464706    0.29283320986420
C         0.00002315560726    0.00005441210015    0.00021006482697
C         1.29880200424121    0.63602554237993   -0.29288598276789
C        -1.32831955101825    0.64240337574384   -0.01829651655025
C         1.32830756983241   -0.64244434557685    0.01813922462697
5
 energy: -10.189636423734 gnorm: 0.000450662077 xtb: 6.2.2 (9d81278992624c895f80dd42a50cac0aa55982e2)
C        -1.29799367760911   -0.63597519727238    0.29284169198402
C        -0.00001692502711   -0.00003687794134   -0.00016594998544
C         1.29800338146319    0.63601046647159   -0.29268822752893
C        -1.32752152050778    0.64239432171982   -0.01828749989896
C         1.32752974168081   -0.64239371297769    0.01829998542931
