 Entering Gaussian System
 *********************************************
 Gaussian 98:
 frequency output generated by the xtb code
 *********************************************
                         Standard orientation:
 --------------------------------------------------------------------
  Center     Atomic     Atomic              Coordinates (Angstroms)
  Number     Number      Type              X           Y           Z
 --------------------------------------------------------------------
    1          6             0       -1.297996   -0.635968    0.292847
    2          6             0       -0.000017   -0.000037   -0.000166
    3          6             0        1.298006    0.636003   -0.292694
    4          6             0       -1.327518    0.642401   -0.018284
    5          6             0        1.327526   -0.642401    0.018296
 --------------------------------------------------------------------
     1 basis functions        1 primitive gaussians
     1 alpha electrons        1 beta electrons

 Harmonic frequencies (cm**-1), IR intensities (KM/Mole),
 Raman scattering activities (A**4/amu), Raman depolarization ratios,
 reduced masses (AMU), force constants (mDyne/A) and normal coordinates:
                      1                      2                      3
                        a                      a                      a 
 Frequencies --  -687.4105              -326.8964               232.9113
 Red. masses --    12.0107                12.0107                12.0107
 Frc consts  --     0.0000                 0.0000                 0.0000
 IR Inten    --     3.7385                 0.0003                 0.0155
 Raman Activ --     0.0000                 0.0000                 0.0000
 Depolar     --     0.0000                 0.0000                 0.0000
 Atom AN      X      Y      Z        X      Y      Z        X      Y      Z
   1   6    -0.27  -0.18   0.07     0.44   0.22  -0.10     0.05   0.12   0.48
   2   6    -0.02   0.72  -0.18     0.00   0.00   0.00     0.00   0.00   0.00
   3   6    -0.27  -0.18   0.07    -0.44  -0.22   0.10     0.05   0.12   0.48
   4   6     0.28  -0.18   0.01    -0.45   0.22  -0.01    -0.05  -0.12  -0.48
   5   6     0.28  -0.18   0.01     0.45  -0.22   0.01    -0.05  -0.12  -0.48
                      4                      5                      6
                        a                      a                      a 
 Frequencies --   319.8681               424.1757               758.2951
 Red. masses --    12.0107                12.0107                12.0107
 Frc consts  --     0.0000                 0.0000                 0.0000
 IR Inten    --     0.3264                 0.5054                 0.0001
 Raman Activ --     0.0000                 0.0000                 0.0000
 Depolar     --     0.0000                 0.0000                 0.0000
 Atom AN      X      Y      Z        X      Y      Z        X      Y      Z
   1   6     0.42  -0.12  -0.01    -0.02  -0.05  -0.22     0.50  -0.05  -0.04
   2   6    -0.01   0.49  -0.12     0.09   0.21   0.86     0.00   0.00   0.00
   3   6     0.42  -0.12  -0.01    -0.02  -0.05  -0.22    -0.50   0.05   0.04
   4   6    -0.41  -0.12   0.07    -0.02  -0.05  -0.22     0.49   0.05  -0.06
   5   6    -0.41  -0.12   0.07    -0.02  -0.05  -0.22    -0.49  -0.05   0.06
                      7                      8                      9
                        a                      a                      a 
 Frequencies --   931.2000              1701.2108              1810.6176
 Red. masses --    12.0107                12.0107                12.0107
 Frc consts  --     0.0000                 0.0000                 0.0000
 IR Inten    --     0.7552                 0.0001                 0.9904
 Raman Activ --     0.0000                 0.0000                 0.0000
 Depolar     --     0.0000                 0.0000                 0.0000
 Atom AN      X      Y      Z        X      Y      Z        X      Y      Z
   1   6    -0.19   0.26  -0.04    -0.04  -0.48   0.12     0.11   0.41  -0.11
   2   6     0.75  -0.00  -0.08    -0.00  -0.00  -0.00    -0.48   0.00   0.05
   3   6    -0.19   0.26  -0.04     0.04   0.48  -0.12     0.11   0.41  -0.11
   4   6    -0.18  -0.26   0.08    -0.07   0.48  -0.11     0.13  -0.41   0.09
   5   6    -0.18  -0.26   0.08     0.07  -0.48   0.11     0.13  -0.41   0.09
