$hessian                                                                        
        0.0823732498   0.0506451947  -0.0200209552  -0.1381245005   0.0516690623
        0.0001150097  -0.0321425952   0.0190975901  -0.0002198142   0.1211385585
       -0.0860544225   0.0081688960  -0.0332447126  -0.0353574246   0.0119568637
        0.0506451947   0.5745955543  -0.1440441645  -0.2163947015   0.0245144466
        0.0127153882   0.0191035847  -0.0353370023   0.0092091485   0.1125963964
       -0.5915238200   0.1330294383   0.0340495257   0.0277508215  -0.0109098105
       -0.0200209552  -0.1440441645   0.0477672326   0.0659602117  -0.0154871878
       -0.0194941596  -0.0002244189   0.0092012123   0.0080136920  -0.0406404422
        0.1539483051  -0.0356352012  -0.0050743953  -0.0036181652  -0.0006515638
       -0.1381245005  -0.2163947015   0.0659602117   0.5675657851   0.0025811994
       -0.0534057167  -0.1381370451  -0.2164152543   0.0658931043  -0.1456471604
        0.2151145457  -0.0392133182  -0.1456570792   0.2151142107  -0.0392342811
        0.0516690623   0.0245144466  -0.0154871878   0.0025811994  -0.0968275586
        0.0396147029   0.0516603315   0.0245056932  -0.0154636642  -0.0529463524
        0.0238973358  -0.0043241632  -0.0529642408   0.0239100830  -0.0043396877
        0.0001150097   0.0127153882  -0.0194941596  -0.0534057167   0.0396147029
        0.0612990279   0.0000684164   0.0126852459  -0.0194794351   0.0266391696
       -0.0325258607  -0.0111642348   0.0265831210  -0.0324894763  -0.0111611984
       -0.0321425952   0.0191035847  -0.0002244189  -0.1381370451   0.0516603315
        0.0000684164   0.0823806403   0.0506626459  -0.0200138001  -0.0332493006
       -0.0353627887   0.0119647535   0.1211483006  -0.0860637734   0.0082050491
        0.0190975901  -0.0353370023   0.0092012123  -0.2164152543   0.0245056932
        0.0126852459   0.0506626459   0.5746433131  -0.1439756137   0.0340538759
        0.0277420878  -0.0109171213   0.1126011424  -0.5915540918   0.1330062768
       -0.0002198142   0.0092091485   0.0080136920   0.0658931043  -0.0154636642
       -0.0194794351  -0.0200138001  -0.1439756137   0.0477283798  -0.0050765767
       -0.0036224201  -0.0006486582  -0.0405829133   0.1538525495  -0.0356139785
        0.1211385585   0.1125963964  -0.0406404422  -0.1456471604  -0.0529463524
        0.0266391696  -0.0332493006   0.0340538759  -0.0050765767   0.0881824454
       -0.0769677510   0.0107062049  -0.0304245429  -0.0167361688   0.0083716444
       -0.0860544225  -0.5915238200   0.1539483051   0.2151145457   0.0238973358
       -0.0325258607  -0.0353627887   0.0277420878  -0.0036224201  -0.0769677510
        0.5751252975  -0.1307410965  -0.0167295835  -0.0352409010   0.0129410723
        0.0081688960   0.1330294383  -0.0356352012  -0.0392133182  -0.0043241632
       -0.0111642348   0.0119647535  -0.0109171213  -0.0006486582   0.0107062049
       -0.1307410965   0.0412599406   0.0083734638   0.0129529427   0.0061881536
       -0.0332447126   0.0340495257  -0.0050743953  -0.1456570792  -0.0529642408
        0.0265831210   0.1211483006   0.1126011424  -0.0405829133  -0.0304245429
       -0.0167295835   0.0083734638   0.0881780341  -0.0769568438   0.0107007238
       -0.0353574246   0.0277508215  -0.0036181652   0.2151142107   0.0239100830
       -0.0324894763  -0.0860637734  -0.5915540918   0.1538525495  -0.0167361688
       -0.0352409010   0.0129529427  -0.0769568438   0.5751340882  -0.1306978508
        0.0119568637  -0.0109098105  -0.0006515638  -0.0392342811  -0.0043396877
       -0.0111611984   0.0082050491   0.1330062768  -0.0356139785   0.0083716444
        0.0129410723   0.0061881536   0.0107007238  -0.1306978508   0.0412385871
