[Molden Format]
[Title]
[Atoms] AU
C      1     6 -0.24528566955520E+01 -0.12018050244334E+01  0.55340120401352E+00
C      2     6 -0.31985122477509E-04 -0.69689582574824E-04 -0.31359976048853E-03
C      3     6  0.24528750345382E+01  0.12018716739644E+01 -0.55311119843078E+00
C      4     6 -0.25086456299203E+01  0.12139622943720E+01 -0.34551725000694E-01
C      5     6  0.25086611657727E+01 -0.12139611440564E+01  0.34575319175148E-01
[GTO]
           1 0
 s           4   1.0000000000000000     
   51.049363095579913      -0.16312063210127389     
   8.7911227406887544      -0.19911024581000730     
  0.70640422258929825       0.31882047753655751     
  0.26922813413411617       0.12706504184240380     
 p           4   1.0000000000000000     
   5.8263656140800002       0.73716451545209605     
   1.5106896018720002       0.68216371614850257     
  0.53256483288000001       0.35783053929253711     
  0.21202323690600003        5.3983030275847881E-002

           2 0
 s           4   1.0000000000000000     
   51.049363095579913      -0.16312063210127389     
   8.7911227406887544      -0.19911024581000730     
  0.70640422258929825       0.31882047753655751     
  0.26922813413411617       0.12706504184240380     
 p           4   1.0000000000000000     
   5.8263656140800002       0.73716451545209605     
   1.5106896018720002       0.68216371614850257     
  0.53256483288000001       0.35783053929253711     
  0.21202323690600003        5.3983030275847881E-002

           3 0
 s           4   1.0000000000000000     
   51.049363095579913      -0.16312063210127389     
   8.7911227406887544      -0.19911024581000730     
  0.70640422258929825       0.31882047753655751     
  0.26922813413411617       0.12706504184240380     
 p           4   1.0000000000000000     
   5.8263656140800002       0.73716451545209605     
   1.5106896018720002       0.68216371614850257     
  0.53256483288000001       0.35783053929253711     
  0.21202323690600003        5.3983030275847881E-002

           4 0
 s           4   1.0000000000000000     
   51.049363095579913      -0.16312063210127389     
   8.7911227406887544      -0.19911024581000730     
  0.70640422258929825       0.31882047753655751     
  0.26922813413411617       0.12706504184240380     
 p           4   1.0000000000000000     
   5.8263656140800002       0.73716451545209605     
   1.5106896018720002       0.68216371614850257     
  0.53256483288000001       0.35783053929253711     
  0.21202323690600003        5.3983030275847881E-002

           5 0
 s           4   1.0000000000000000     
   51.049363095579913      -0.16312063210127389     
   8.7911227406887544      -0.19911024581000730     
  0.70640422258929825       0.31882047753655751     
  0.26922813413411617       0.12706504184240380     
 p           4   1.0000000000000000     
   5.8263656140800002       0.73716451545209605     
   1.5106896018720002       0.68216371614850257     
  0.53256483288000001       0.35783053929253711     
  0.21202323690600003        5.3983030275847881E-002

[MO]
Sym=     1a
Ene=  -0.73250649364088982     
Spin= Alpha
Occup=     2.00000000
           1  0.24676418846375009     
           2   8.3795576193190210E-002
           3   9.3453049128271778E-002
           4  -3.1791738403884620E-002
           5  0.44808953132276813     
           6   5.1067219007462174E-006
           7   1.1434090376304389E-005
           8   4.3642181423046785E-005
           9  0.24676690958602496     
          10  -8.3800167660368866E-002
          11  -9.3461235646409416E-002
          12   3.1764272825485287E-002
          13  0.24675252044468898     
          14   8.8101685388467396E-002
          15  -9.3859856640171088E-002
          16   1.3799133905028503E-002
          17  0.24675153580653211     
          18  -8.8100967383782230E-002
          19   9.3857513444415522E-002
          20  -1.3806018240876090E-002
Sym=     2a
Ene=  -0.71220898090278983     
Spin= Alpha
Occup=     2.00000000
           1  0.29547442949086061     
           2   2.7954843925730929E-002
           3  0.11117133554672666     
           4  -3.0278205464311970E-002
           5   6.1054929765987457E-007
           6 -0.32087856674571530     
           7   7.7819829798186869E-004
           8   3.3547095730479669E-002
           9 -0.29547419180959505     
          10   2.7957817093394708E-002
          11  0.11118061880940962     
          12  -3.0243881781574666E-002
          13  0.29547576333957798     
          14   3.3088175800452313E-002
          15 -0.11131055248435615     
          16   2.3870317779850860E-002
          17 -0.29547428157471461     
          18   3.3089200524944587E-002
          19 -0.11130664628528206     
          20   2.3879965296688125E-002
Sym=     3a
Ene=  -0.60480406054238522     
Spin= Alpha
Occup=     2.00000000
           1  0.28847428287293747     
           2  0.11194684433896712     
           3 -0.14314938752064715     
           4   2.3391221884921855E-002
           5  -2.2379640489882323E-005
           6   1.0965888355028401E-002
           7 -0.47832307660037537     
           8  0.11639544224585702     
           9 -0.28844636849263255     
          10  0.11198057793753043     
          11 -0.14315902208919726     
          12   2.3424866725050508E-002
          13 -0.28845385527037898     
          14 -0.10534304442941216     
          15 -0.14259329529651144     
          16   4.6133791695741506E-002
          17  0.28848281513746454     
          18 -0.10531672895794288     
          19 -0.14258315516231290     
          20   4.6098196722710698E-002
Sym=     4a
Ene=  -0.58726147248324145     
Spin= Alpha
Occup=     2.00000000
           1  0.24396333722493854     
           2 -0.27389446490896435     
           3  0.11228844342873254     
           4   1.2746889500741001E-003
           5 -0.37602999093942641     
           6   8.9646476528028316E-006
           7   5.1544580653737196E-005
           8   8.1688850548766666E-005
           9  0.24399809723884539     
          10  0.27389904154768069     
          11 -0.11223550157371959     
          12  -1.1453095378794178E-003
          13  0.24412274882643217     
          14 -0.26869148433552431     
          15 -0.11088912387136522     
          16   5.5586237435281224E-002
          17  0.24408782428207171     
          18  0.26871636082999689     
          19  0.11094761771101175     
          20  -5.5435387606999752E-002
Sym=     5a
Ene=  -0.55821967140872697     
Spin= Alpha
Occup=     2.00000000
           1   3.3399187184706090E-007
           2   3.1762175373388976E-002
           3   7.3963249562756156E-002
           4  0.30109341352656060     
           5  -3.0666041107071781E-005
           6   5.5477977175925758E-002
           7  0.12966814083911543     
           8  0.52764012907403179     
           9   3.7006941868123401E-007
          10   3.1555068441019428E-002
          11   7.4027638558822342E-002
          12  0.30110492536408956     
          13  -8.6474989670412284E-005
          14   3.1743014949135201E-002
          15   7.4002373282217329E-002
          16  0.30104497064397634     
          17  -8.6501891225956536E-005
          18   3.1565234277339385E-002
          19   7.3967425227395397E-002
          20  0.30106756097209303     
Sym=     6a
Ene=  -0.52439205844424619     
Spin= Alpha
Occup=     2.00000000
           1 -0.42169494291054360     
           2   1.2941366294229472E-002
           3  0.24490041606846824     
           4  -6.1515034509394641E-002
           5   2.9978825102257758E-005
           6  -2.9992298423221603E-005
           7   9.6575735309220182E-006
           8   4.2066759040747770E-005
           9 -0.42166502984695547     
          10  -1.2868668621663347E-002
          11 -0.24490085240705045     
          12   6.1567952859074820E-002
          13  0.42162058336448122     
          14  -2.4056554152561613E-002
          15  0.24502741935745573     
          16  -5.7658308619266241E-002
          17  0.42164955402645210     
          18   2.4128418302998830E-002
          19 -0.24499986619743563     
          20   5.7700145033073684E-002
Sym=     7a
Ene=  -0.51762573575775295     
Spin= Alpha
Occup=     2.00000000
           1  0.15331742835761700     
           2 -0.36870539278134773     
           3   6.5435696083701783E-002
           4   2.2825818508073744E-002
           5   7.9255806483504356E-008
           6  0.33698965041531576     
           7  -8.5936747048823679E-004
           8  -3.5221143588885007E-002
           9 -0.15339428507932892     
          10 -0.36874011684011482     
          11   6.5322569406936079E-002
          12   2.2577859514569497E-002
          13  0.15334763035911991     
          14 -0.36573117389004567     
          15  -6.3626036431198643E-002
          16   5.4239201379634394E-002
          17 -0.15327128269373275     
          18 -0.36575109835545844     
          19  -6.3743466609290242E-002
          20   5.3972658857378515E-002
Sym=     8a
Ene=  -0.47594915548950251     
Spin= Alpha
Occup=     2.00000000
           1   1.0855515025413085E-005
           2   4.6398926812405455E-002
           3  0.10812635786898547     
           4  0.43993553650641543     
           5   2.7846561866511966E-008
           6  -5.1201827195406248E-005
           7   2.4776082472124095E-005
           8  -7.4253132271675970E-007
           9  -1.0910772773633179E-005
          10  -4.6117646709457845E-002
          11 -0.10811170697562562     
          12 -0.43997131684269986     
          13  -4.8878261690193124E-005
          14   4.6424992351656563E-002
          15  0.10811513223493653     
          16  0.43991419420065042     
          17   4.8891998172476792E-005
          18  -4.6086757495940329E-002
          19 -0.10811163803474652     
          20 -0.43994680572780770     
Sym=     9a
Ene=  -0.43466403199980747     
Spin= Alpha
Occup=     1.99977889
           1  0.27572302524442416     
           2 -0.29023141662650820     
           3 -0.19855012151499238     
           4   7.9331906928257701E-002
           5  -2.4733544180994069E-006
           6  -1.0053814130458326E-002
           7  0.43655519510636448     
           8 -0.10622681615541313     
           9 -0.27569060239677007     
          10 -0.29023296768430218     
          11 -0.19851693016242800     
          12   7.9279868931235550E-002
          13 -0.27596202806905240     
          14  0.29944148160159667     
          15 -0.20032346378516522     
          16   1.7671018889835407E-002
          17  0.27599487555968111     
          18  0.29946180864117899     
          19 -0.20033300756030636     
          20   1.7819886559716589E-002
Sym=    10a
Ene=  -0.41867127751182254     
Spin= Alpha
Occup=     1.00022101
           1 -0.28200945014063389     
           2  -2.5454537681273799E-003
           3  0.40948279694402745     
           4 -0.10037908168971262     
           5   1.8470542503418397E-002
           6  -9.1106017857995734E-007
           7   2.5845300106877280E-005
           8  -7.6649634084859798E-006
           9 -0.28203844900279085     
          10   2.5063700115438162E-003
          11 -0.40951619263800781     
          12  0.10035964958600366     
          13 -0.28203793484926393     
          14   1.6386487120625997E-002
          15 -0.40952253458399362     
          16   9.8944471588288480E-002
          17 -0.28201486499040468     
          18  -1.6344233340040253E-002
          19  0.40951779515857661     
          20  -9.8894115886555251E-002
Sym=    11a
Ene=  -0.41129690450122347     
Spin= Alpha
Occup=     1.00000009
           1  0.26732607112069834     
           2   3.2631814488659244E-003
           3 -0.42057375116453538     
           4  0.10305333406841155     
           5  -7.6536206288483207E-008
           6  -3.2046944307321280E-002
           7   3.0536079125647914E-004
           8   3.2944983858758624E-003
           9 -0.26732085724486898     
          10   3.2590812662410440E-003
          11 -0.42058742798555482     
          12  0.10297715201196221     
          13  0.26710241988478051     
          14  -1.5793142463880253E-002
          15  0.42043020152022736     
          16 -0.10167489573094014     
          17 -0.26710135984152589     
          18  -1.5793776084313191E-002
          19  0.42043229339669125     
          20 -0.10164680947300300     
Sym=    12a
Ene=  -0.29259700125147542     
Spin= Alpha
Occup=     0.00000000
           1  -8.2444820978780794E-007
           2  -3.5541351921167863E-002
           3  -8.3431620400038736E-002
           4 -0.33949933229444013     
           5  -2.2804099617386732E-004
           6   9.0557076553754376E-002
           7  0.21165811234117923     
           8  0.86127039716898623     
           9  -8.2413640769731205E-007
          10  -3.5836706219756022E-002
          11  -8.3399496082561489E-002
          12 -0.33936291245789107     
          13   1.1351269295585560E-005
          14  -3.5866213712309782E-002
          15  -8.3610852252655035E-002
          16 -0.34014638015768495     
          17   1.1363764172644825E-005
          18  -3.5676462615596968E-002
          19  -8.3605158744663663E-002
          20 -0.34028207327963073     
Sym=    13a
Ene=  -0.27679234988325208     
Spin= Alpha
Occup=     0.00000000
           1  -1.3552323937475407E-006
           2   5.7419846774747700E-002
           3  0.13401907188572421     
           4  0.54520148077500685     
           5  -2.4481404079065287E-008
           6   1.0916462122124210E-005
           7   3.6838664489577236E-005
           8   8.6415178497386419E-005
           9   1.3496243013385721E-006
          10  -5.7240204810362190E-002
          11 -0.13397497447291556     
          12 -0.54530874375778671     
          13  -5.8833382453995812E-007
          14  -5.7429449121537073E-002
          15 -0.13404220463574709     
          16 -0.54528219412589252     
          17   5.8403556818839685E-007
          18   5.7234195708631003E-002
          19  0.13396027823989584     
          20  0.54526232655596862     
Sym=    14a
Ene=  -0.26742570274482280     
Spin= Alpha
Occup=     0.00000000
           1   1.7075928683665206E-006
           2   5.7820487969565078E-002
           3  0.13516055989708572     
           4  0.54987355814764405     
           5   4.5002383474236562E-006
           6  -7.1241021659044896E-005
           7  -1.6652743806605766E-004
           8  -6.7754001788851502E-004
           9   1.7175615439916878E-006
          10   5.7811262972283589E-002
          11  0.13510440032244639     
          12  0.54987733186119514     
          13  -8.9397609735063717E-008
          14  -5.7772862641088725E-002
          15 -0.13504580164367716     
          16 -0.54940002637318930     
          17  -8.3467606618368797E-008
          18  -5.7759907822433974E-002
          19 -0.13498778749292908     
          20 -0.54940941073695249     
Sym=    15a
Ene=  -0.23857363670042572     
Spin= Alpha
Occup=     0.00000000
           1  -2.4396021909520015E-002
           2 -0.57803198500102604     
           3   1.6908080966469154E-002
           4   5.6549345244722167E-002
           5  -1.9084523455497517E-004
           6   1.5922126960653685E-005
           7   5.4772299213666651E-005
           8   2.2306328968556396E-004
           9  -2.4391907686728199E-002
          10  0.57800755932615155     
          11  -1.6937905991970467E-002
          12  -5.6682979879790346E-002
          13   2.4460727465451578E-002
          14  0.57752050807102162     
          15   1.4127162737443502E-002
          16  -6.4278031222667772E-002
          17   2.4465000399925534E-002
          18 -0.57754577942651442     
          19  -1.4168810255010447E-002
          20   6.4123408636504398E-002
Sym=    16a
Ene=   -1.4092436280656316E-002
Spin= Alpha
Occup=     0.00000000
           1  0.19908808645627085     
           2  0.41495473057415250     
           3   9.1619986901422326E-002
           4  -6.6153337678963003E-002
           5  -1.1141492765330787     
           6  -3.0341806433571874E-005
           7  -8.8120175187872459E-006
           8  -3.0722884638948746E-004
           9  0.19908256755763187     
          10 -0.41488577697001572     
          11  -9.1654989046552865E-002
          12   6.6139101656261787E-002
          13  0.19905576983874865     
          14  0.41883065441018102     
          15  -9.3732769882924796E-002
          16  -2.1004636569677979E-002
          17  0.19905980228161904     
          18 -0.41889819139934464     
          19   9.3700316425062422E-002
          20   2.1015282065777310E-002
Sym=    17a
Ene=    6.8372395089762811E-002
Spin= Alpha
Occup=     0.00000000
           1  -7.4268855038972618E-003
           2  0.50287975089715709     
           3 -0.28401429030231023     
           4   1.6836034283315642E-002
           5   8.6130083398471591E-005
           6  -1.9294125101489899E-002
           7  0.82551228971910529     
           8 -0.20084183791422677     
           9   7.3941657757426987E-003
          10  0.50295824566227454     
          11 -0.28396361314011220     
          12   1.6987726077959609E-002
          13   7.2823752131526689E-003
          14 -0.49007485838363946     
          15 -0.28149655821280223     
          16  0.12080870819106028     
          17  -7.3157976895650029E-003
          18 -0.49003378539617798     
          19 -0.28155683112816376     
          20  0.12061438855148347     
Sym=    18a
Ene=   0.39282554792423546     
Spin= Alpha
Occup=     0.00000000
           1 -0.33355288008930056     
           2 -0.40118871579635412     
           3 -0.12879476580868049     
           4   7.3942745563453163E-002
           5  -2.2641202485224252E-006
           6  -1.2909448363906135     
           7   3.1441984567298037E-003
           8  0.13496188827872663     
           9  0.33349426671675314     
          10 -0.40122923282757611     
          11 -0.12876294508904595     
          12   7.3721437427285028E-002
          13 -0.33412171838685212     
          14 -0.40710126318781564     
          15  0.13152067712542256     
          16   1.0574268680581990E-002
          17  0.33418227462346473     
          18 -0.40710641356033422     
          19  0.13156154525178798     
          20   1.0381724875034644E-002
Sym=    19a
Ene=   0.48921172717751449     
Spin= Alpha
Occup=     0.00000000
           1  0.56243221869835236     
           2  -1.4982393302981985E-002
           3  0.66971325000773607     
           4 -0.16304355217583250     
           5  -9.7853082688959100E-005
           6  -8.6255617453216696E-005
           7  -5.6780558080144247E-006
           8  -4.0653424141414255E-006
           9  0.56247981436619920     
          10   1.4929482917843316E-002
          11 -0.66975043921264144     
          12  0.16298600601122187     
          13 -0.56244137764193836     
          14  -1.5943155396916327E-002
          15  0.66972561691147947     
          16 -0.16294582646073583     
          17 -0.56240297810957818     
          18   1.5893570463091103E-002
          19 -0.66972985780414274     
          20  0.16287933295420129     
Sym=    20a
Ene=   0.57853018855168581     
Spin= Alpha
Occup=     0.00000000
           1  0.61788390922413472     
           2  0.16206356654114595     
           3  0.60140629822032343     
           4 -0.16490791394072840     
           5   1.6273018331787458E-005
           6  -9.6426495931989376E-003
           7  0.45444937657241813     
           8 -0.11066754750454287     
           9 -0.61788595965860071     
          10  0.16208039070126629     
          11  0.60143402221999731     
          12 -0.16477302375992153     
          13 -0.61746085862667022     
          14 -0.18937895295030466     
          15  0.60211696419183180     
          16 -0.12806620994768589     
          17  0.61744958363367264     
          18 -0.18937516537436483     
          19  0.60211454325813796     
          20 -0.12805138773690616     
