$hessian                                                                        
        1.2874900118  -0.0000050556  -0.0000033704  -1.2874900118   0.0000050556
        0.0000033704
       -0.0000050556   0.0000714286   0.0000000000   0.0000050556  -0.0000714286
       -0.0000000000
       -0.0000033704   0.0000000000   0.0000714286   0.0000033704  -0.0000000000
       -0.0000714286
       -1.2874900118   0.0000050556   0.0000033704   1.2874900118  -0.0000050556
       -0.0000033704
        0.0000050556  -0.0000714286  -0.0000000000  -0.0000050556   0.0000714286
        0.0000000000
        0.0000033704  -0.0000000000  -0.0000714286  -0.0000033704   0.0000000000
        0.0000714286
