[Molden Format]
[Title]
[Atoms] AU
C      1     6  0.10967579513844E+01 -0.57426112047780E-05 -0.38284074698850E-05
C      2     6 -0.10967579513844E+01  0.57426112047780E-05  0.38284074698850E-05
[GTO]
           1 0
 s           4   1.0000000000000000     
   51.049363095579913      -0.16312063210127389     
   8.7911227406887544      -0.19911024581000730     
  0.70640422258929825       0.31882047753655751     
  0.26922813413411617       0.12706504184240380     
 p           4   1.0000000000000000     
   5.8263656140800002       0.73716451545209605     
   1.5106896018720002       0.68216371614850257     
  0.53256483288000001       0.35783053929253711     
  0.21202323690600003        5.3983030275847881E-002

           2 0
 s           4   1.0000000000000000     
   51.049363095579913      -0.16312063210127389     
   8.7911227406887544      -0.19911024581000730     
  0.70640422258929825       0.31882047753655751     
  0.26922813413411617       0.12706504184240380     
 p           4   1.0000000000000000     
   5.8263656140800002       0.73716451545209605     
   1.5106896018720002       0.68216371614850257     
  0.53256483288000001       0.35783053929253711     
  0.21202323690600003        5.3983030275847881E-002

[MO]
Sym=     1a
Ene=  -0.66924811622844771     
Spin= Alpha
Occup=     2.00000000
           1  0.50464222621858323     
           2 -0.20999707496714695     
           3   1.0991804180843347E-006
           4   7.3278694527614520E-007
           5  0.50464222622955457     
           6  0.20999707496932996     
           7  -1.0991804174126997E-006
           8  -7.3278694528269785E-007
Sym=     2a
Ene=  -0.51059167991395527     
Spin= Alpha
Occup=     2.00000000
           1 -0.54829196944862990     
           2 -0.39987729552138829     
           3   2.0962555065450207E-006
           4   1.3975036680806089E-006
           5  0.54829196946391923     
           6 -0.39987729555438734     
           7   2.0962555058845345E-006
           8   1.3975036681948692E-006
Sym=     3a
Ene=  -0.48555803411492737     
Spin= Alpha
Occup=     2.00000000
           1  -2.2484964336404540E-009
           2  -3.8367877033676413E-006
           3 -0.43940976422389083     
           4 -0.43939685118737615     
           5   2.2484974327078723E-009
           6  -3.8367877044117585E-006
           7 -0.43940976424194378     
           8 -0.43939685120542810     
Sym=     4a
Ene=  -0.48555803410887294     
Spin= Alpha
Occup=     2.00000000
           1   4.4966646402519715E-010
           2   7.6729890972315979E-007
           3  0.43939685119585170     
           4 -0.43940976423906580     
           5  -4.4966744664251662E-010
           6   7.6729891057455368E-007
           7  0.43939685121390282     
           8 -0.43940976425711903     
Sym=     5a
Ene=  -0.37267062684234131     
Spin= Alpha
Occup=     0.00000000
           1 -0.40049437295028828     
           2 -0.62044643612662176     
           3   3.2491807707255338E-006
           4   2.1661205147997820E-006
           5 -0.40049437291923246     
           6  0.62044643611033279     
           7  -3.2491807720225555E-006
           8  -2.1661205147455893E-006
Sym=     6a
Ene=  -0.19780851362934176     
Spin= Alpha
Occup=     0.00000000
           1   1.1059602942264716E-010
           2   1.0392384803161773E-006
           3  0.59541608648203326     
           4 -0.59542455450354836     
           5   1.1059576471532647E-010
           6  -1.0392384801002251E-006
           7 -0.59541608646871136     
           8  0.59542455449022635     
Sym=     7a
Ene=  -0.19780851360955068     
Spin= Alpha
Occup=     0.00000000
           1   5.5300073854292098E-010
           2   5.1963845490283380E-006
           3  0.59542455449754628     
           4  0.59541608648510125     
           5   5.5300052454942181E-010
           6  -5.1963845487557577E-006
           7 -0.59542455448422471     
           8 -0.59541608647177890     
Sym=     8a
Ene=    1.1595342685722447     
Spin= Alpha
Occup=     0.00000000
           1  -1.0769802118130165     
           2   1.0981833665061684     
           3  -5.7502480315250722E-006
           4  -3.8334986876832843E-006
           5   1.0769802118116398     
           6   1.0981833665029377     
           7  -5.7502480315066154E-006
           8  -3.8334986876718469E-006
