$hessian                                                                        
        0.8046427785  -0.0000031601  -0.0000021068  -0.8046427785   0.0000031601
        0.0000021068
       -0.0000031601  -0.0001766906  -0.0000000128   0.0000031601   0.0001766906
        0.0000000128
       -0.0000021068  -0.0000000128  -0.0001767444   0.0000021068   0.0000000128
        0.0001767444
       -0.8046427785   0.0000031601   0.0000021068   0.8046427785  -0.0000031601
       -0.0000021068
        0.0000031601   0.0001766906   0.0000000128  -0.0000031601  -0.0001766906
       -0.0000000128
        0.0000021068   0.0000000128   0.0001767444  -0.0000021068  -0.0000000128
       -0.0001767444
