[Molden Format]
[Title]
[Atoms] AU
O      1     8  0.11428533557693E+01 -0.59839661777467E-05 -0.39893107851989E-05
O      2     8 -0.11428533557693E+01  0.59839661777467E-05  0.39893107851989E-05
[GTO]
           1 0
 s           4   1.0000000000000000     
   69.137961906196551      -0.20478756370077797     
   11.906129132707308      -0.24997023136827334     
  0.95670827744340703       0.40025880240639616     
  0.36462520496073686       0.15952206667693555     
 p           4   1.0000000000000000     
   8.2124193257781641        1.1321556799186829     
   2.1293576997098116        1.0476840782254817     
  0.75066448202360914       0.54956508217158984     
  0.29885246543283073        8.2908486592766617E-002

           2 0
 s           4   1.0000000000000000     
   69.137961906196551      -0.20478756370077797     
   11.906129132707308      -0.24997023136827334     
  0.95670827744340703       0.40025880240639616     
  0.36462520496073686       0.15952206667693555     
 p           4   1.0000000000000000     
   8.2124193257781641        1.1321556799186829     
   2.1293576997098116        1.0476840782254817     
  0.75066448202360914       0.54956508217158984     
  0.29885246543283073        8.2908486592766617E-002

[MO]
Sym=     1a
Ene=  -0.82717504436766243     
Spin= Alpha
Occup=     2.00000000
           1  0.49830960900792687     
           2 -0.27846291365995407     
           3   1.4642587812532906E-006
           4   9.7617252111689057E-007
           5  0.49830960945710018     
           6  0.27846291354862990     
           7  -1.4642587810968487E-006
           8  -9.7617252071201729E-007
Sym=     2a
Ene=  -0.73688372065753982     
Spin= Alpha
Occup=     2.00000000
           1 -0.65927168007605608     
           2 -0.26896671250442050     
           3   1.3824323574155011E-006
           4   9.2162157208605516E-007
           5  0.65927168031604155     
           6 -0.26896671340712336     
           7   1.3824323627911760E-006
           8   9.2162157544050246E-007
Sym=     3a
Ene=  -0.66150238663749217     
Spin= Alpha
Occup=     2.00000000
           1   5.4022711098087504E-009
           2  -7.9988534150267989E-007
           3 -0.46102973906631722     
           4  0.46135415478847003     
           5  -5.4022655891656062E-009
           6  -7.9988534984323333E-007
           7 -0.46102973947185111     
           8  0.46135415519428674     
Sym=     4a
Ene=  -0.66150238659098959     
Spin= Alpha
Occup=     2.00000000
           1   2.7060830788278747E-008
           2  -4.0067542215865298E-006
           3 -0.46135415477305636     
           4 -0.46102973905785816     
           5  -2.7060827223698699E-008
           6  -4.0067542301515000E-006
           7 -0.46135415517887451     
           8 -0.46102973946339110     
Sym=     5a
Ene=  -0.63814591533723164     
Spin= Alpha
Occup=     2.00000000
           1 -0.43220059001080424     
           2 -0.57194490016869215     
           3   2.9859784580008202E-006
           4   1.9906523093071176E-006
           5 -0.43220058908980979     
           6  0.57194489994622932     
           7  -2.9859784667209897E-006
           8  -1.9906523064678225E-006
Sym=     6a
Ene=  -0.44279193731334932     
Spin= Alpha
Occup=     1.00000002
           1  -2.0780167726248009E-009
           2   9.5894922316345002E-007
           3  0.55048580988954288     
           4 -0.55072836868041242     
           5  -2.0780166036934661E-009
           6  -9.5894922262265019E-007
           7 -0.55048580954982163     
           8  0.55072836834054151     
Sym=     7a
Ene=  -0.44279193725016264     
Spin= Alpha
Occup=     0.99999998
           1   1.0401998319181113E-008
           2  -4.8002439634880271E-006
           3 -0.55072836867227959     
           4 -0.55048580988977691     
           5   1.0401997894075602E-008
           6   4.8002439607356655E-006
           7  0.55072836833240768     
           8  0.55048580955005666     
Sym=     8a
Ene=   0.12472454217120033     
Spin= Alpha
Occup=     0.00000000
           1 -0.62313803463283712     
           2  0.92918646007726879     
           3  -4.8618664907195504E-006
           4  -3.2412443270782455E-006
           5  0.62313803465853046     
           6  0.92918645998626315     
           7  -4.8618664902513106E-006
           8  -3.2412443267855795E-006
