2
 energy: -7.893734748159 gnorm: 0.164442286227 xtb: 6.2.2 (9d81278992624c895f80dd42a50cac0aa55982e2)
O         0.65800000000000    0.00000000000000    0.00000000000000
O        -0.65800000000000    0.00000000000000    0.00000000000000
2
 energy: -7.906129874509 gnorm: 0.042746806628 xtb: 6.2.2 (9d81278992624c895f80dd42a50cac0aa55982e2)
O         0.61556154777375    0.00000000000000    0.00000000000000
O        -0.61556154777375    0.00000000000000    0.00000000000000
2
 energy: -7.906647958106 gnorm: 0.018654165739 xtb: 6.2.2 (9d81278992624c895f80dd42a50cac0aa55982e2)
O         0.60067818347441    0.00000000000000    0.00000000000000
O        -0.60067818347441    0.00000000000000    0.00000000000000
2
 energy: -7.906751912815 gnorm: 0.001254157755 xtb: 6.2.2 (9d81278992624c895f80dd42a50cac0aa55982e2)
O         0.60519922267752    0.00000000000000    0.00000000000000
O        -0.60519922267752    0.00000000000000    0.00000000000000
2
 energy: -7.906752299720 gnorm: 0.000578075321 xtb: 6.2.2 (9d81278992624c895f80dd42a50cac0aa55982e2)
O         0.60477200739977    0.00000000000000    0.00000000000000
O        -0.60477200739977    0.00000000000000    0.00000000000000
