2
 energy: -7.906752299720 gnorm: 0.000578075402 xtb: 6.2.2 (9d81278992624c895f80dd42a50cac0aa55982e2)
O         0.60477200738780   -0.00000316657883   -0.00000211105255
O        -0.60477200738780    0.00000316657883    0.00000211105255
