5
 energy: -10.328734391317 gnorm: 0.000348305410 xtb: 6.2.2 (9d81278992624c895f80dd42a50cac0aa55982e2)
C         1.23556407236854    0.05913023012732   -0.59293302803523
C        -0.00030272668347    0.00327893138799   -0.24246176312214
C        -1.23581254061731   -0.05696250694406    0.10782882025547
C         2.46205807384854    0.11474899935356   -0.93845670885632
C        -2.46151110630337   -0.12019776759066    0.45496867976741
