$hessian                                                                        
        1.2818730327  -0.0000048200  -0.0000032133  -1.2818730327   0.0000048200
        0.0000032133
       -0.0000048200   0.0001331795   0.0000000000   0.0000048200  -0.0001331795
       -0.0000000000
       -0.0000032133   0.0000000000   0.0001331797   0.0000032133  -0.0000000000
       -0.0001331797
       -1.2818730327   0.0000048200   0.0000032133   1.2818730327  -0.0000048200
       -0.0000032133
        0.0000048200  -0.0001331795  -0.0000000000  -0.0000048200   0.0001331795
        0.0000000000
        0.0000032133  -0.0000000000  -0.0001331797  -0.0000032133   0.0000000000
        0.0001331797
