      -----------------------------------------------------------      
     |                   =====================                   |     
     |                           x T B                           |     
     |                   =====================                   |     
     |                         S. Grimme                         |     
     |          Mulliken Center for Theoretical Chemistry        |     
     |                    University of Bonn                     |     
      -----------------------------------------------------------      

   * xtb version 6.2.2 (9d81278992624c895f80dd42a50cac0aa55982e2) compiled by '@Darwin' on 04/03/2020

   xtb is free software: you can redistribute it and/or modify it under
   the terms of the GNU Lesser General Public License as published by
   the Free Software Foundation, either version 3 of the License, or
   (at your option) any later version.
   
   xtb is distributed in the hope that it will be useful,
   but WITHOUT ANY WARRANTY; without even the implied warranty of
   MERCHANTABILITY or FITNESS FOR A PARTICULAR PURPOSE.  See the
   GNU Lesser General Public License for more details.
   
   Cite this work as:
   * S. Grimme, C. Bannwarth, P. Shushkov, J. Chem. Theory Comput., 2017,
     13, 1989-2009. DOI: 10.1021/acs.jctc.7b00118
   * C. Bannwarth, S. Ehlert and S. Grimme., J. Chem. Theory Comput., 2019,
     15, 1652-1671. DOI: 10.1021/acs.jctc.8b01176
   * P. Pracht, E. Caldeweyher, S. Ehlert, S. Grimme, ChemRxiv, 2019, preprint.
     DOI: 10.26434/chemrxiv.8326202.v1
   
   for DFT-D4:
   * E. Caldeweyher, C. Bannwarth and S. Grimme, J. Chem. Phys., 2017,
     147, 034112. DOI: 10.1063/1.4993215
   * E. Caldeweyher, S. Ehlert, A. Hansen, H. Neugebauer, S. Spicher,
     C. Bannwarth and S. Grimme, J. Chem. Phys., 2019, 150, 154122.
     DOI: 10.1063/1.5090222
   
   for sTDA-xTB:
   * S. Grimme and C. Bannwarth, J. Chem. Phys., 2016, 145, 054103.
     DOI: 10.1063/1.4959605
   
   in the mass-spec context:
   * V. Asgeirsson, C. Bauer and S. Grimme, Chem. Sci., 2017, 8, 4879.
     DOI: 10.1039/c7sc00601b
   
   for metadynamics refer to:
   * S. Grimme, J. Chem. Theory Comput., 2019, 155, 2847-2862
     DOI: 10.1021/acs.jctc.9b00143
   
   with help from (in alphabetical order)
   C. Bannwarth, F. Bohle, G. Brandenburg, E. Caldeweyher, M. Checinski,
   S. Dohm, S. Ehlert, S. Ehrlich, F. März, H. Neugebauer, J. Pisarek,
   P. Pracht, P. Shushkov, and S. Spicher.
   
 * started run on 2020/05/12 at 11:43:53.495     

           -------------------------------------------------
          |                Calculation Setup                |
           -------------------------------------------------

          program call               : xtb --input C1O1_0_S_0.input C1O1_0_S_0.xyz --ohess --molden --namespace C1O1_0_S_0 output.out
          calculation namespace      : C1O1_0_S_0
          coordinate file            : C1O1_0_S_0.xyz
          number of atoms            :                     2
          number of electrons        :                    10
          charge                     :                     0
          spin                       :                   0.0
          first test random number   :      0.69388782028175

   ID    Z sym.   atoms
    1    8 O      1
    2    6 C      2

           -------------------------------------------------
          |                 G F N 2 - x T B                 |
           -------------------------------------------------

        Reference                      10.1021/acs.jctc.8b01176
      * Hamiltonian:
        H0-scaling (s, p, d)           1.850000    2.230000    2.230000
        zeta-weighting                 0.500000
      * Dispersion:
        s8                             2.700000
        a1                             0.520000
        a2                             5.000000
        s9                             5.000000
      * Repulsion:
        kExp                           1.500000    1.000000
        rExp                           1.000000
      * Coulomb:
        alpha                          2.000000
        third order                    shell-resolved
        anisotropic                    true
        a3                             3.000000
        a5                             4.000000
        cn-shift                       1.200000
        cn-exp                         4.000000
        max-rad                        5.000000


          ...................................................
          :                      SETUP                      :
          :.................................................:
          :  # basis functions                   8          :
          :  # atomic orbitals                   8          :
          :  # shells                            4          :
          :  # electrons                        10          :
          :  max. iterations                   250          :
          :  Hamiltonian                  GFN2-xTB          :
          :  restarted?                      false          :
          :  GBSA solvation                  false          :
          :  PC potential                    false          :
          :  electronic temp.          300.0000000     K    :
          :  accuracy                    1.0000000          :
          :  -> integral cutoff          0.2500000E+02      :
          :  -> integral neglect         0.1000000E-07      :
          :  -> SCF convergence          0.1000000E-05 Eh   :
          :  -> wf. convergence          0.1000000E-03 e    :
          :  Broyden damping             0.4000000          :
          ...................................................

 iter      E             dE          RMSdq      gap      omega  full diag
   1     -6.0088049 -0.600880E+01  0.143E+01    3.60       0.0  T
   2     -5.9678023  0.410026E-01  0.815E+00    3.66       1.0  T
   3     -5.8548176  0.112985E+00  0.105E+01    3.69       1.0  T
   4     -6.0352816 -0.180464E+00  0.145E+00    3.85       1.0  T
   5     -6.0384595 -0.317791E-02  0.450E-01    3.87       1.0  T
   6     -6.0356991  0.276045E-02  0.106E+00    3.92       1.0  T
   7     -6.0382792 -0.258016E-02  0.314E-01    3.90       1.0  T
   8     -6.0385341 -0.254880E-03  0.457E-02    3.90       1.5  T
   9     -6.0385393 -0.513758E-05  0.133E-02    3.90       5.3  T
  10     -6.0385397 -0.392316E-06  0.569E-03    3.90      12.4  T
  11     -6.0385397 -0.724203E-07  0.527E-04    3.90     134.1  T
  12     -6.0385397 -0.422332E-09  0.667E-06    3.90   10604.8  T

   *** convergence criteria satisfied after 12 iterations ***

         #    Occupation            Energy/Eh            Energy/eV
      -------------------------------------------------------------
         1        2.0000           -0.7734477             -21.0466
         2        2.0000           -0.6618710             -18.0104
         3        2.0000           -0.5819001             -15.8343
         4        2.0000           -0.5819001             -15.8343
         5        2.0000           -0.5420060             -14.7487 (HOMO)
         6                         -0.3985200             -10.8443 (LUMO)
         7                         -0.3985200             -10.8443
         8                          0.0264648               0.7201
      -------------------------------------------------------------
                  HL-Gap            0.1434860 Eh            3.9045 eV
             Fermi-level           -0.4702630 Eh          -12.7965 eV

 SCC (total)                   0 d,  0 h,  0 min,  0.001 sec
 SCC setup                      ...        0 min,  0.000 sec (  6.831%)
 Dispersion                     ...        0 min,  0.000 sec (  0.635%)
 integral evaluation            ...        0 min,  0.000 sec ( 24.200%)
 zeroth order Hamiltonian       ...        0 min,  0.000 sec (  0.863%)
 iterations                     ...        0 min,  0.000 sec ( 45.683%)
 molecular gradient             ...        0 min,  0.000 sec ( 16.938%)
 printout                       ...        0 min,  0.000 sec (  3.809%)

         :::::::::::::::::::::::::::::::::::::::::::::::::::::
         ::                     SUMMARY                     ::
         :::::::::::::::::::::::::::::::::::::::::::::::::::::
         :: total energy              -6.030292075487 Eh    ::
         :: gradient norm              0.380808682677 Eh/a0 ::
         :: HOMO-LUMO gap              3.904453870850 eV    ::
         ::.................................................::
         :: SCC energy                -6.038539724882 Eh    ::
         :: -> isotropic ES           -0.003278322296 Eh    ::
         :: -> anisotropic ES         -0.000166739611 Eh    ::
         :: -> anisotropic XC          0.002776135342 Eh    ::
         :: -> dispersion             -0.000259813666 Eh    ::
         :: repulsion energy           0.008247649390 Eh    ::
         :: add. restraining           0.000000000000 Eh    ::
         :::::::::::::::::::::::::::::::::::::::::::::::::::::

      ----------------------------------------------------------- 
     |                   =====================                   |
     |                        A N C O P T                        |
     |                   =====================                   |
     |               Approximate Normal Coordinate               |
     |                Rational Function Optimizer                |
      ----------------------------------------------------------- 

          ...................................................
          :                      SETUP                      :
          :.................................................:
          :   optimization level            normal          :
          :   max. optcycles                   200          :
          :   ANC micro-cycles                  20          :
          :   degrees of freedom                 1          :
          :.................................................:
          :   RF solver                   davidson          :
          :   write xtbopt.log                true          :
          :   linear (good luck)              true          :
          :   energy convergence         0.5000000E-05 Eh   :
          :   grad. convergence          0.1000000E-02 Eh/α :
          :   maximium RF displ.         1.0000000          :
          :   Hlow (freq-cutoff)         0.1000000E-01      :
          :   Hmax (freq-cutoff)         5.0000000          :
          :   S6 in model hess.         20.0000000          :
          ...................................................

generating ANC from model Hessian ...
Using Lindh-Hessian (1995)
 Shifting diagonal of input Hessian by    9.9885601763318628E-003
 Lowest  eigenvalues of input Hessian
   -0.000000    0.000000    0.000000    0.010000    0.010000    1.161007
 Highest eigenvalues
   -0.000000    0.000000    0.000000    0.010000    0.010000    1.161007


........................................................................
.............................. CYCLE    1 ..............................
........................................................................
   1     -6.0385397 -0.603854E+01  0.386E-06    3.90       0.0  T
   2     -6.0385397  0.107470E-12  0.745E-06    3.90    9493.5  T
   3     -6.0385397 -0.135891E-12  0.693E-07    3.90  100000.0  T
     SCC iter.                  ...        0 min,  0.000 sec
     gradient                   ...        0 min,  0.000 sec
 * total energy  :    -6.0302921 Eh     change       -0.4242828E-11 Eh
   gradient norm :     0.3808087 Eh/α   predicted     0.0000000E+00 (-100.00%)
   displ. norm   :     0.2987285 α      lambda       -0.1137584E+00
   maximum displ.:     0.2987285 α      in ANC's #1, #1, #1, ...

........................................................................
.............................. CYCLE    2 ..............................
........................................................................
   1     -6.1506902 -0.615069E+01  0.410E+00    5.13       0.0  T
   2     -6.1540141 -0.332389E-02  0.328E+00    5.04       1.0  T
   3     -6.1676387 -0.136246E-01  0.145E+00    5.02       1.0  T
   4     -6.1675522  0.864454E-04  0.302E-01    4.93       1.0  T
   5     -6.1677074 -0.155111E-03  0.406E-02    4.92       1.7  T
   6     -6.1677099 -0.250022E-05  0.142E-02    4.92       5.0  T
   7     -6.1677098  0.188788E-07  0.131E-02    4.92       5.4  T
   8     -6.1677101 -0.274025E-06  0.481E-05    4.92    1471.3  T
   9     -6.1677101 -0.369216E-11  0.707E-06    4.92    9997.6  T
     SCC iter.                  ...        0 min,  0.000 sec
     gradient                   ...        0 min,  0.000 sec
 * total energy  :    -6.1180296 Eh     change       -0.8773754E-01 Eh
   gradient norm :     0.1265079 Eh/α   predicted    -0.6195505E-01 ( -29.39%)
   displ. norm   :     0.1454649 α      lambda       -0.1840248E-01
   maximum displ.:     0.1454649 α      in ANC's #1, #1, #1, ...

........................................................................
.............................. CYCLE    3 ..............................
........................................................................
   1     -6.2211227 -0.622112E+01  0.213E+00    5.89       0.0  T
   2     -6.2236192 -0.249649E-02  0.126E+00    5.82       1.0  T
   3     -6.2245441 -0.924932E-03  0.696E-01    5.82       1.0  T
   4     -6.2245709 -0.267407E-04  0.517E-02    5.78       1.4  T
   5     -6.2245736 -0.275029E-05  0.121E-02    5.78       5.9  T
   6     -6.2245738 -0.174420E-06  0.304E-03    5.78      23.2  T
   7     -6.2245738 -0.795670E-08  0.109E-03    5.78      64.8  T
   8     -6.2245738 -0.176913E-08  0.424E-06    5.78   16688.7  T
   9     -6.2245738 -0.310862E-13  0.423E-07    5.78  100000.0  T
     SCC iter.                  ...        0 min,  0.000 sec
     gradient                   ...        0 min,  0.000 sec
 * total energy  :    -6.1101684 Eh     change        0.7861189E-02 Eh
   gradient norm :     0.2872822 Eh/α   predicted    -0.9395934E-02 (-219.52%)
   displ. norm   :     0.0999824 α      lambda       -0.2872317E-01
   maximum displ.:     0.0999824 α      in ANC's #1, #1, #1, ...

........................................................................
.............................. CYCLE    4 ..............................
........................................................................
   1     -6.1840872 -0.618409E+01  0.154E+00    5.07       0.0  T
   2     -6.1851726 -0.108541E-02  0.104E+00    5.13       1.0  T
   3     -6.1863002 -0.112767E-02  0.512E-01    5.12       1.0  T
   4     -6.1863381 -0.378783E-04  0.242E-02    5.15       2.9  T
   5     -6.1863392 -0.107744E-05  0.120E-02    5.15       5.9  T
   6     -6.1863393 -0.616404E-07  0.239E-03    5.15      29.6  T
   7     -6.1863393 -0.534615E-08  0.510E-04    5.15     138.7  T
   8     -6.1863393 -0.369624E-09  0.159E-06    5.15   44471.5  T
     SCC iter.                  ...        0 min,  0.000 sec
     gradient                   ...        0 min,  0.000 sec
 * total energy  :    -6.1216717 Eh     change       -0.1150327E-01 Eh
   gradient norm :     0.0296247 Eh/α   predicted    -0.1450515E-01 (  26.10%)
   displ. norm   :     0.0093456 α      lambda       -0.2768644E-03
   maximum displ.:     0.0093456 α      in ANC's #1, #1, #1, ...

........................................................................
.............................. CYCLE    5 ..............................
........................................................................
   1     -6.1900690 -0.619007E+01  0.140E-01    5.21       0.0  T
   2     -6.1900779 -0.888338E-05  0.956E-02    5.21       1.0  T
   3     -6.1900871 -0.921606E-05  0.470E-02    5.21       1.5  T
   4     -6.1900874 -0.232618E-06  0.168E-03    5.21      42.0  T
   5     -6.1900874 -0.100763E-08  0.797E-04    5.21      88.7  T
   6     -6.1900874 -0.135970E-09  0.155E-04    5.21     455.4  T
     SCC iter.                  ...        0 min,  0.000 sec
     gradient                   ...        0 min,  0.000 sec
 * total energy  :    -6.1218417 Eh     change       -0.1700461E-03 Eh
   gradient norm :     0.0065730 Eh/α   predicted    -0.1384429E-03 ( -18.59%)
   displ. norm   :     0.0026648 α      lambda       -0.1751707E-04
   maximum displ.:     0.0026648 α      in ANC's #1, #1, #1, ...

........................................................................
.............................. CYCLE    6 ..............................
........................................................................
   1     -6.1911490 -0.619115E+01  0.400E-02    5.22       0.0  T
   2     -6.1911498 -0.739171E-06  0.271E-02    5.22       2.6  T
   3     -6.1911505 -0.730462E-06  0.134E-02    5.22       5.3  T
   4     -6.1911505 -0.191914E-07  0.448E-04    5.22     157.9  T
   5     -6.1911505 -0.593374E-10  0.122E-04    5.22     580.7  T
     SCC iter.                  ...        0 min,  0.000 sec
     gradient                   ...        0 min,  0.000 sec
 * total energy  :    -6.1218502 Eh     change       -0.8492260E-05 Eh
   gradient norm :     0.0002152 Eh/α   predicted    -0.8758063E-05 (   3.13%)
   displ. norm   :     0.0001267 α      lambda       -0.1920370E-07
   maximum displ.:     0.0001267 α      in ANC's #1, #1, #1, ...

........................................................................
.............................. CYCLE    7 ..............................
........................................................................
   1     -6.1911000 -0.619110E+01  0.189E-03    5.22       0.0  T
   2     -6.1911000 -0.165722E-08  0.129E-03    5.22      55.0  T
   3     -6.1911000 -0.163720E-08  0.634E-04    5.22     111.6  T
   4     -6.1911000 -0.416156E-10  0.186E-05    5.22    3809.5  T
     SCC iter.                  ...        0 min,  0.000 sec
     gradient                   ...        0 min,  0.000 sec
 * total energy  :    -6.1218502 Eh     change       -0.6670171E-08 Eh
   gradient norm :     0.0001097 Eh/α   predicted    -0.9089690E-08 (  36.27%)
   displ. norm   :     0.0000428 α      lambda       -0.6062249E-08
   maximum displ.:     0.0000428 α      in ANC's #1, #1, #1, ...

   *** GEOMETRY OPTIMIZATION CONVERGED AFTER 7 ITERATIONS ***

------------------------------------------------------------------------
 total energy gain   :        -0.0915582 Eh      -57.4536 kcal/mol
 total RMSD          :         0.2517970 a0        0.1332 Å
 total power (kW/mol):       -34.3408483 (step)********** (real)
------------------------------------------------------------------------

 ANCopt (total)                0 d,  0 h,  0 min,  0.004 sec
 optimizer setup                ...        0 min,  0.000 sec (  1.203%)
 model hessian                  ...        0 min,  0.000 sec (  0.375%)
 ANC generation                 ...        0 min,  0.000 sec (  0.508%)
 coordinate transformation      ...        0 min,  0.000 sec (  0.259%)
 single point calculation       ...        0 min,  0.004 sec ( 89.669%)
 optimization log               ...        0 min,  0.000 sec (  1.948%)
 hessian update                 ...        0 min,  0.000 sec (  0.265%)
 rational function              ...        0 min,  0.000 sec (  1.777%)

================
 final structure:
================
2
 xtb: 6.2.2 (9d81278992624c895f80dd42a50cac0aa55982e2)
O         0.56367674322730    0.00000000000000    0.00000000000000
C        -0.56367674322730    0.00000000000000    0.00000000000000

 Bond Distances (Angstroems)
 ---------------------------
O1-C2=1.1274         C2-O1=1.1274         
 O  C  Rav=1.1274 sigma=0.0000  Rmin=1.1274  Rmax=1.1274     1

 selected bond angles (degree)
 --------------------


 selected dihedral angles (degree)
 ---------------------------------

           -------------------------------------------------
          |                Final Singlepoint                |
           -------------------------------------------------

          ...................................................
          :                      SETUP                      :
          :.................................................:
          :  # basis functions                   8          :
          :  # atomic orbitals                   8          :
          :  # shells                            4          :
          :  # electrons                        10          :
          :  max. iterations                   250          :
          :  Hamiltonian                  GFN2-xTB          :
          :  restarted?                      false          :
          :  GBSA solvation                  false          :
          :  PC potential                    false          :
          :  electronic temp.          300.0000000     K    :
          :  accuracy                    1.0000000          :
          :  -> integral cutoff          0.2500000E+02      :
          :  -> integral neglect         0.1000000E-07      :
          :  -> SCF convergence          0.1000000E-05 Eh   :
          :  -> wf. convergence          0.1000000E-03 e    :
          :  Broyden damping             0.4000000          :
          ...................................................

 iter      E             dE          RMSdq      gap      omega  full diag
   1     -6.1911000 -0.619110E+01  0.346E-06    5.22       0.0  T
   2     -6.1911000  0.888178E-15  0.220E-06    5.22   32195.0  T
   3     -6.1911000 -0.444089E-14  0.164E-06    5.22   43167.7  T

   *** convergence criteria satisfied after 3 iterations ***

         #    Occupation            Energy/Eh            Energy/eV
      -------------------------------------------------------------
         1        2.0000           -0.7973433             -21.6968
         2        2.0000           -0.6560974             -17.8533
         3        2.0000           -0.6143476             -16.7172
         4        2.0000           -0.6143476             -16.7172
         5        2.0000           -0.4732073             -12.8766 (HOMO)
         6                         -0.2814001              -7.6573 (LUMO)
         7                         -0.2814001              -7.6573
         8                          0.8069605              21.9585
      -------------------------------------------------------------
                  HL-Gap            0.1918072 Eh            5.2193 eV
             Fermi-level           -0.3773037 Eh          -10.2670 eV

 SCC (total)                   0 d,  0 h,  0 min,  0.001 sec
 SCC setup                      ...        0 min,  0.000 sec (  8.087%)
 Dispersion                     ...        0 min,  0.000 sec (  0.483%)
 integral evaluation            ...        0 min,  0.000 sec ( 31.020%)
 zeroth order Hamiltonian       ...        0 min,  0.000 sec (  0.513%)
 iterations                     ...        0 min,  0.000 sec ( 21.515%)
 molecular gradient             ...        0 min,  0.000 sec ( 34.339%)
 printout                       ...        0 min,  0.000 sec (  3.440%)

         :::::::::::::::::::::::::::::::::::::::::::::::::::::
         ::                     SUMMARY                     ::
         :::::::::::::::::::::::::::::::::::::::::::::::::::::
         :: total energy              -6.121850243718 Eh    ::
         :: gradient norm              0.000109735002 Eh/a0 ::
         :: HOMO-LUMO gap              5.219340089714 eV    ::
         ::.................................................::
         :: SCC energy                -6.191100026479 Eh    ::
         :: -> isotropic ES           -0.001810608131 Eh    ::
         :: -> anisotropic ES         -0.000071042635 Eh    ::
         :: -> anisotropic XC          0.002300311492 Eh    ::
         :: -> dispersion             -0.000259841036 Eh    ::
         :: repulsion energy           0.069249782761 Eh    ::
         :: add. restraining           0.000000000000 Eh    ::
         :::::::::::::::::::::::::::::::::::::::::::::::::::::

           ------------------------------------------------- 
          |                Numerical Hessian                |
           ------------------------------------------------- 
step length          :   0.00500
SCC accuracy         :   0.30000
Hessian scale factor :   1.00000
frozen atoms in %    :   0.00000    0
RMS gradient         :   0.00011

writing file <hessian>.

 vibrational frequencies (cm-1)
eigval :        0.00     0.00     0.00     0.00     0.00  2222.02
           -------------------------------------------------
          |                Property Printout                |
           -------------------------------------------------

    * Orbital Energies and Occupations
Molecule has the following symmetry elements: (Cinf) (sigma) 
It seems to be the Cinfv point group

         #    Occupation            Energy/Eh            Energy/eV
      -------------------------------------------------------------
         1        2.0000           -0.7973433             -21.6968
         2        2.0000           -0.6560974             -17.8533
         3        2.0000           -0.6143476             -16.7172
         4        2.0000           -0.6143476             -16.7172
         5        2.0000           -0.4732073             -12.8766 (HOMO)
         6                         -0.2814001              -7.6573 (LUMO)
         7                         -0.2814001              -7.6573
         8                          0.8069605              21.9585
      -------------------------------------------------------------
                  HL-Gap            0.1918072 Eh            5.2193 eV
             Fermi-level           -0.3773037 Eh          -10.2670 eV

     #   Z        covCN         q      C6AA      α(0)
     1   8 O      0.856    -0.049    15.782     5.326
     2   6 C      0.856     0.049    33.653     9.680

 Mol. C6AA /au·bohr⁶  :         94.582317
 Mol. C8AA /au·bohr⁸  :       2382.506821
 Mol. α(0) /au        :         15.006153


Wiberg/Mayer (AO) data.
largest (>0.10) Wiberg bond orders for each atom
          total WBO             WBO to atom ...
     1  O   2.611        C    2 2.611
     2  C   2.611        O    1 2.611

MOs/occ written to file <molden.input>


molecular dipole:
                 x           y           z       tot (Debye)
 q only:       -0.104       0.000       0.000
   full:        0.242      -0.000      -0.000       0.615
molecular quadrupole (traceless):
                xx          xy          yy          xz          yz          zz
 q only:       -0.000       0.000       0.000       0.000      -0.000       0.000
  q+dip:       -0.746       0.000       0.373       0.000      -0.000       0.373
   full:       -2.220       0.000       1.110       0.000      -0.000       1.110

           -------------------------------------------------
          |                Geometry Summary                 |
           -------------------------------------------------

      molecular mass/u    :       28.0101408
   center of mass at/Å    :        0.0802681      -0.0000004      -0.0000003
  moments of inertia/u·Å² :       -0.1292362E-14   0.8719235E+01   0.8719235E+01
rotational constants/cm⁻¹ :       -0.1304405E+17   0.1933384E+01   0.1933384E+01

 * 1 selected distances

     #   Z        #   Z                                     value/Å
     0 *** --     0 *** --                                0.0000000 (max)

 * 0 distinct bonds (by element types)

   Z      Z             #   av. dist./Å        max./Å        min./Å

           -------------------------------------------------
          |               Frequency Printout                |
           -------------------------------------------------
 vibrational frequencies (cm-1)
eigval :        0.00     0.00     0.00     0.00     0.00  2222.02
 reduced masses (amu)
   1: 14.29   2: 14.29   3: 14.29   4: 13.72   5: 13.72   6: 13.72
 IR intensities (amu)
   1:  0.01   2:  0.01   3:  0.04   4:  0.16   5:  0.16   6:  0.61
 Raman intensities (amu)
   1:  0.00   2:  0.00   3:  0.00   4:  0.00   5:  0.00   6:  0.00
 output can be read by thermo (or use thermo option).
 writing <g98.out> molden fake output.
 recommended (thermochemical) frequency scaling factor: 1.0
           -------------------------------------------------
          |             Thermodynamic Functions             |
           -------------------------------------------------

cin symmetry found (for desy threshold:  0.10E+00) used in thermo

          ...................................................
          :                      SETUP                      :
          :.................................................:
          :  # frequencies                           1      :
          :  # imaginary freq.                       0      :
          :  linear?                              true      :
          :  only rotor calc.                    false      :
          :  symmetry                              cin      :
          :  rotational number                       1      :
          :  scaling factor                  1.0000000      :
          :  rotor cutoff                   50.0000000 cm⁻¹ :
          :  imag. cutoff                  -20.0000000 cm⁻¹ :
          :.................................................:

    mode    ω/cm⁻¹     T·S(HO)/kcal·mol⁻¹    T·S(FR)/kcal·mol⁻¹   T·S(vib)
   ------------------------------------------------------------------------
   ------------------------------------------------------------------------

   temp. (K)  partition function   enthalpy   heat capacity  entropy
                                   cal/mol     cal/K/mol   cal/K/mol   J/K/mol
 298.15  VIB   1.00                    0.140      0.005      0.001
         ROT   107.                  592.502      1.987     11.277
         INT   107.                  592.642      1.992     11.277
         TR   0.143E+27             1481.254      4.968     35.908
         TOT                        2073.8955     6.9604    47.1856   197.4247

   temp. (K)  partition function   enthalpy   heat capacity  entropy
                                   cal/mol     cal/K/mol   cal/K/mol   J/K/mol
 120.00  VIB   1.00                    0.000      0.000     -0.000
         ROT   43.1                  238.471      1.987      9.468
         INT   43.1                  238.471      1.987      9.468
         TR   0.366E+26              596.178      4.968     31.389
         TOT                         834.6492     6.9554    40.8572   170.9464

   temp. (K)  partition function   enthalpy   heat capacity  entropy
                                   cal/mol     cal/K/mol   cal/K/mol   J/K/mol
 100.00  VIB   1.00                    0.000      0.000     -0.000
         ROT   35.9                  198.726      1.987      9.106
         INT   35.9                  198.726      1.987      9.106
         TR   0.279E+26              496.815      4.968     30.484
         TOT                         695.5410     6.9554    39.5895   165.6424

   temp. (K)  partition function   enthalpy   heat capacity  entropy
                                   cal/mol     cal/K/mol   cal/K/mol   J/K/mol
  80.00  VIB   1.00                    0.000      0.000     -0.000
         ROT   28.8                  158.981      1.987      8.662
         INT   28.8                  158.981      1.987      8.662
         TR   0.199E+26              397.452      4.968     29.376
         TOT                         556.4328     6.9554    38.0380   159.1509

   temp. (K)  partition function   enthalpy   heat capacity  entropy
                                   cal/mol     cal/K/mol   cal/K/mol   J/K/mol
  60.00  VIB   1.00                    0.000      0.000     -0.000
         ROT   21.6                  119.236      1.987      8.091
         INT   21.6                  119.236      1.987      8.091
         TR   0.129E+26              298.089      4.968     27.947
         TOT                         417.3246     6.9554    36.0377   150.7819

   temp. (K)  partition function   enthalpy   heat capacity  entropy
                                   cal/mol     cal/K/mol   cal/K/mol   J/K/mol
  40.00  VIB   1.00                    0.000      0.000     -0.000
         ROT   14.4                   79.490      1.987      7.285
         INT   14.4                   79.490      1.987      7.285
         TR   0.705E+25              198.726      4.968     25.934
         TOT                         278.2164     6.9554    33.2185   138.9864

   temp. (K)  partition function   enthalpy   heat capacity  entropy
                                   cal/mol     cal/K/mol   cal/K/mol   J/K/mol
  20.00  VIB   1.00                    0.000      0.000     -0.000
         ROT   7.19                   39.745      1.987      5.907
         INT   7.19                   39.745      1.987      5.907
         TR   0.249E+25               99.363      4.968     22.492
         TOT                         139.1082     6.9554    28.3991   118.8218

   temp. (K)  partition function   enthalpy   heat capacity  entropy
                                   cal/mol     cal/K/mol   cal/K/mol   J/K/mol
  10.00  VIB   1.00                    0.000      0.000     -0.000
         ROT   3.59                   19.873      1.987      4.530
         INT   3.59                   19.873      1.987      4.530
         TR   0.881E+24               49.681      4.968     19.050
         TOT                          69.5541     6.9554    23.5797    98.6573

       T/K    H(0)-H(T)+PV         H(T)/Eh          T*S/Eh         G(T)/Eh
   ------------------------------------------------------------------------
    298.15    0.330496E-02    0.836709E-02    0.224194E-01   -0.140523E-01
    120.00    0.133010E-02    0.639223E-02    0.781321E-02   -0.142098E-02
    100.00    0.110842E-02    0.617055E-02    0.630899E-02   -0.138441E-03
     80.00    0.886732E-03    0.594886E-02    0.484939E-02    0.109947E-02
     60.00    0.665049E-03    0.572718E-02    0.344579E-02    0.228139E-02
     40.00    0.443366E-03    0.550550E-02    0.211748E-02    0.338801E-02
     20.00    0.221683E-03    0.528381E-02    0.905137E-03    0.437868E-02
     10.00    0.110842E-03    0.517297E-02    0.375766E-03    0.479721E-02 (used)
   ------------------------------------------------------------------------

         :::::::::::::::::::::::::::::::::::::::::::::::::::::
         ::                  THERMODYNAMIC                  ::
         :::::::::::::::::::::::::::::::::::::::::::::::::::::
         :: total free energy          -6.117053036906 Eh   ::
         ::.................................................::
         :: total energy               -6.121850243718 Eh   ::
         :: zero point energy           0.005062131020 Eh   ::
         :: G(RRHO) w/o ZPVE           -0.000264924208 Eh   ::
         :: G(RRHO) contrib.            0.004797206812 Eh   ::
         :::::::::::::::::::::::::::::::::::::::::::::::::::::

optimized geometry written to: xtbopt.xyz


           -------------------------------------------------
          | TOTAL ENERGY               -6.121850243718 Eh   |
          | TOTAL ENTHALPY             -6.116677271184 Eh   |
          | TOTAL FREE ENERGY          -6.117053036906 Eh   |
          | GRADIENT NORM               0.000109744463 Eh/α |
          | HOMO-LUMO GAP               5.219340131193 eV   |
           -------------------------------------------------

------------------------------------------------------------------------
 * finished run on 2020/05/12 at 11:43:53.526     
------------------------------------------------------------------------
 total:
 * wall-time:     0 d,  0 h,  0 min,  0.030 sec
 *  cpu-time:     0 d,  0 h,  0 min,  0.030 sec
 * ratio c/w:     0.998 speedup
 SCF:
 * wall-time:     0 d,  0 h,  0 min,  0.001 sec
 *  cpu-time:     0 d,  0 h,  0 min,  0.001 sec
 * ratio c/w:     0.999 speedup
 ANC optimizer:
 * wall-time:     0 d,  0 h,  0 min,  0.006 sec
 *  cpu-time:     0 d,  0 h,  0 min,  0.006 sec
 * ratio c/w:     1.000 speedup
 numerical hessian:
 * wall-time:     0 d,  0 h,  0 min,  0.010 sec
 *  cpu-time:     0 d,  0 h,  0 min,  0.009 sec
 * ratio c/w:     0.997 speedup

