[Molden Format]
[Title]
[Atoms] AU
O      1     8  0.10651945686709E+01 -0.55773457193513E-05 -0.37182304795996E-05
C      2     6 -0.10651945686709E+01  0.55773457193513E-05  0.37182304795996E-05
[GTO]
           1 0
 s           4   1.0000000000000000     
   69.137961906196551      -0.20478756370077797     
   11.906129132707308      -0.24997023136827334     
  0.95670827744340703       0.40025880240639616     
  0.36462520496073686       0.15952206667693555     
 p           4   1.0000000000000000     
   8.2124193257781641        1.1321556799186829     
   2.1293576997098116        1.0476840782254817     
  0.75066448202360914       0.54956508217158984     
  0.29885246543283073        8.2908486592766617E-002

           2 0
 s           4   1.0000000000000000     
   51.049363095579913      -0.16312063210127389     
   8.7911227406887544      -0.19911024581000730     
  0.70640422258929825       0.31882047753655751     
  0.26922813413411617       0.12706504184240380     
 p           4   1.0000000000000000     
   5.8263656140800002       0.73716451545209605     
   1.5106896018720002       0.68216371614850257     
  0.53256483288000001       0.35783053929253711     
  0.21202323690600003        5.3983030275847881E-002

[MO]
Sym=     1a
Ene=  -0.79734328596107773     
Spin= Alpha
Occup=     2.00000000
           1  0.64432625174287084     
           2 -0.24745125930327044     
           3   1.3074971526895352E-006
           4   8.7166476847602124E-007
           5  0.34965195857913484     
           6  0.20005068277704446     
           7  -1.0445386108041070E-006
           8  -6.9635907393339981E-007
Sym=     2a
Ene=  -0.65609739714041992     
Spin= Alpha
Occup=     2.00000000
           1  0.61341087075898382     
           2  0.61900291243967587     
           3  -3.2038878158149646E-006
           4  -2.1359252125678040E-006
           5 -0.43602229294012201     
           6   7.2815923207900021E-002
           7  -3.6481655089711397E-007
           8  -2.4321103465908831E-007
Sym=     3a
Ene=  -0.61434759544205586     
Spin= Alpha
Occup=     2.00000000
           1  -3.9630599823202212E-008
           2   4.8068405381155054E-006
           3  0.55426931282675418     
           4  0.55404870201132039     
           5   1.7381131730911917E-008
           6   2.7769214750620546E-006
           7  0.31939993065173311     
           8  0.31927280277813547     
Sym=     4a
Ene=  -0.61434759543584916     
Spin= Alpha
Occup=     2.00000000
           1   7.9179174692548964E-009
           2  -9.6037307181028504E-007
           3 -0.55404870202692080     
           4  0.55426931285068193     
           5  -3.4726291268006472E-009
           6  -5.5480946144554545E-007
           7 -0.31927280277615999     
           8  0.31939993065459110     
Sym=     5a
Ene=  -0.47320730369675956     
Spin= Alpha
Occup=     2.00000000
           1  0.16815138847725217     
           2  0.42073546444832688     
           3  -2.2017156327613162E-006
           4  -1.4678104220268826E-006
           5  0.64503218392764050     
           6 -0.66248602163381631     
           7   3.4643486088237939E-006
           8   2.3095657393120455E-006
Sym=     6a
Ene=  -0.28140008324095189     
Spin= Alpha
Occup=     0.00000000
           1  -1.1308491966871992E-009
           2   8.3306986979527657E-007
           3  0.47775295003451823     
           4 -0.47774757515600935     
           5  -4.6549892072292038E-010
           6  -1.1486049547766452E-006
           7 -0.65830592238982288     
           8  0.65829851623073365     
Sym=     7a
Ene=  -0.28140008322056270     
Spin= Alpha
Occup=     0.00000000
           1  -5.6540799549939850E-009
           2   4.1652275120020001E-006
           3  0.47774757516148303     
           4  0.47775295004725837     
           5  -2.3274270289767527E-009
           6  -5.7428567888025595E-006
           7 -0.65829851621582502     
           8 -0.65830592238493146     
Sym=     8a
Ene=   0.80696047591261277     
Spin= Alpha
Occup=     0.00000000
           1  0.92987474475631293     
           2 -0.96596448893124276     
           3   5.0566282708273067E-006
           4   3.3710855138829976E-006
           5 -0.91313087800067572     
           6  -1.0919784740288823     
           7   5.7170373479058506E-006
           8   3.8113582319436386E-006
