2
 energy: -6.030292075491 gnorm: 0.380808745963 xtb: 6.2.2 (9d81278992624c895f80dd42a50cac0aa55982e2)
O         0.69692200000000    0.00000000000000    0.00000000000000
C        -0.69692200000000    0.00000000000000    0.00000000000000
2
 energy: -6.118029614754 gnorm: 0.126507934826 xtb: 6.2.2 (9d81278992624c895f80dd42a50cac0aa55982e2)
O         0.58514232886936    0.00000000000000    0.00000000000000
C        -0.58514232886936    0.00000000000000    0.00000000000000
2
 energy: -6.110168425379 gnorm: 0.287282172571 xtb: 6.2.2 (9d81278992624c895f80dd42a50cac0aa55982e2)
O         0.53071155447489    0.00000000000000    0.00000000000000
C        -0.53071155447489    0.00000000000000    0.00000000000000
2
 energy: -6.121671698656 gnorm: 0.029624727292 xtb: 6.2.2 (9d81278992624c895f80dd42a50cac0aa55982e2)
O         0.56812345571377    0.00000000000000    0.00000000000000
C        -0.56812345571377    0.00000000000000    0.00000000000000
2
 energy: -6.121841744785 gnorm: 0.006573039376 xtb: 6.2.2 (9d81278992624c895f80dd42a50cac0aa55982e2)
O         0.56462646477250    0.00000000000000    0.00000000000000
C        -0.56462646477250    0.00000000000000    0.00000000000000
2
 energy: -6.121850237045 gnorm: 0.000215195687 xtb: 6.2.2 (9d81278992624c895f80dd42a50cac0aa55982e2)
O         0.56362932744377    0.00000000000000    0.00000000000000
C        -0.56362932744377    0.00000000000000    0.00000000000000
2
 energy: -6.121850243715 gnorm: 0.000109698018 xtb: 6.2.2 (9d81278992624c895f80dd42a50cac0aa55982e2)
O         0.56367674322730    0.00000000000000    0.00000000000000
C        -0.56367674322730    0.00000000000000    0.00000000000000
