4
 energy: -10.026218927779 gnorm: 0.300635780975 xtb: 6.2.2 (9d81278992624c895f80dd42a50cac0aa55982e2)
C        -1.66307900000000   -0.18281600000000   -0.50409700000000
O        -0.61166200000000   -0.06728600000000    0.40403900000000
C         0.52605500000000    0.05787300000000   -0.39172700000000
C         1.74868600000000    0.19222800000000    0.49178500000000
4
 energy: -10.114716709124 gnorm: 0.224330060568 xtb: 6.2.2 (9d81278992624c895f80dd42a50cac0aa55982e2)
C        -1.55178435263942   -0.17057711573168   -0.52709142230970
O        -0.66097380367952   -0.07270895150127    0.41806100502802
C         0.52698454982338    0.05796463166611   -0.26684431290290
C         1.68577360649556    0.18532043556685    0.37587473018458
4
 energy: -10.046536801935 gnorm: 0.946838162039 xtb: 6.2.2 (9d81278992624c895f80dd42a50cac0aa55982e2)
C        -1.43827754100754   -0.15810029666374   -0.48612810315572
O        -0.72855276707162   -0.08013469643731    0.36247459464322
C         0.61537101371843    0.06767066113328   -0.12236395672497
C         1.55145929436072    0.17056333196776    0.24601746523747
4
 energy: -10.155412756878 gnorm: 0.108133327890 xtb: 6.2.2 (9d81278992624c895f80dd42a50cac0aa55982e2)
C        -1.46571333159241   -0.16111231439907   -0.54162120495355
O        -0.76354125307912   -0.08398470308612    0.39985513187516
C         0.52629577372246    0.05787728742589   -0.12890199393392
C         1.70295881094907    0.18721873005929    0.27066806701232
4
 energy: -10.162336132885 gnorm: 0.102715569547 xtb: 6.2.2 (9d81278992624c895f80dd42a50cac0aa55982e2)
C        -1.46179485308242   -0.16067720604517   -0.59586987159352
O        -0.83644891127216   -0.09200279192290    0.42585520788701
C         0.53988986608046    0.05936299376037   -0.01993207145401
C         1.75835389827413    0.19331600420770    0.18994673516051
4
 energy: -10.166538100221 gnorm: 0.059712435556 xtb: 6.2.2 (9d81278992624c895f80dd42a50cac0aa55982e2)
C        -1.47646649541064   -0.16229032599368   -0.58771204662905
O        -0.84962627355988   -0.09345055713275    0.40472054810665
C         0.56451256362349    0.06206763400341    0.00300169488154
C         1.76158020534703    0.19367224912302    0.17998980364086
4
 energy: -10.170715971261 gnorm: 0.107975926253 xtb: 6.2.2 (9d81278992624c895f80dd42a50cac0aa55982e2)
C        -1.55319168932159   -0.17072963719732   -0.57634289137000
O        -0.88366574341669   -0.09718589557340    0.34211201160060
C         0.64488259666613    0.07089999502671    0.08528397766489
C         1.79197483607215    0.19701453774401    0.14894690210451
4
 energy: -10.173936406668 gnorm: 0.072141315218 xtb: 6.2.2 (9d81278992624c895f80dd42a50cac0aa55982e2)
C        -1.57436370286556   -0.17305863781137   -0.59059552255498
O        -0.91577138644978   -0.10071222752403    0.32305082667781
C         0.65887889466685    0.07243565498562    0.15241918545726
C         1.83125619464849    0.20133421034978    0.11512551041991
4
 energy: -10.176840067906 gnorm: 0.050195406804 xtb: 6.2.2 (9d81278992624c895f80dd42a50cac0aa55982e2)
C        -1.63784536270008   -0.18004174637404   -0.60871689097226
O        -0.92019708684071   -0.10119217297829    0.29490889228020
C         0.68812063980339    0.07564953677331    0.22642144938886
C         1.86992180973740    0.20558338257901    0.08738654930320
4
 energy: -10.179099334893 gnorm: 0.048642898140 xtb: 6.2.2 (9d81278992624c895f80dd42a50cac0aa55982e2)
C        -1.67357935783130   -0.18395521404686   -0.59260974349966
O        -0.89683750682776   -0.09863647192345    0.26305411969168
C         0.69957996597391    0.07689228581738    0.22382202742510
C         1.87083689868516    0.20569840015293    0.10573359638288
4
 energy: -10.183388016056 gnorm: 0.091413883723 xtb: 6.2.2 (9d81278992624c895f80dd42a50cac0aa55982e2)
C        -1.72320431925808   -0.18943018092478   -0.55987191634505
O        -0.84064953802652   -0.09243872341338    0.19767690995271
C         0.69755428886875    0.07668643280423    0.22082778552798
C         1.86629956841586    0.20518147153393    0.14136722086436
4
 energy: -10.188166299827 gnorm: 0.244163085664 xtb: 6.2.2 (9d81278992624c895f80dd42a50cac0aa55982e2)
C        -1.80365953497999   -0.19828001660846   -0.44903465878775
O        -0.62433157602680   -0.06864485578479    0.02010714370749
C         0.62354902025295    0.06854993665146    0.15085439081786
C         1.80444209075384    0.19837393574179    0.27807312426240
4
 energy: -10.201626168602 gnorm: 0.130912130577 xtb: 6.2.2 (9d81278992624c895f80dd42a50cac0aa55982e2)
C        -1.73843064675413   -0.19110793670300   -0.47636038512136
O        -0.71828664796756   -0.07897764149900    0.07315014152446
C         0.63634463443186    0.06995651006198    0.18034014366512
C         1.82037266028983    0.20012806814003    0.22287009993179
4
 energy: -10.209968166566 gnorm: 0.061152233159 xtb: 6.2.2 (9d81278992624c895f80dd42a50cac0aa55982e2)
C        -1.70890647591500   -0.18786897206811   -0.43253051950901
O        -0.66592057804547   -0.07321215637929    0.01810457334333
C         0.58505305434650    0.06432290000849    0.15504246373133
C         1.78977399961397    0.19675722843891    0.25938348243435
4
 energy: -10.208707901996 gnorm: 0.072088927414 xtb: 6.2.2 (9d81278992624c895f80dd42a50cac0aa55982e2)
C        -1.78071236313070   -0.19574919102793   -0.37613892316527
O        -0.62936384810338   -0.06919715855638   -0.14341887661922
C         0.58392443714047    0.06417047776717    0.25282916043779
C         1.82615177409361    0.20077487181714    0.26672863934670
4
 energy: -10.213492865482 gnorm: 0.011374455055 xtb: 6.2.2 (9d81278992624c895f80dd42a50cac0aa55982e2)
C        -1.73772520215769   -0.19103773519471   -0.40145689098827
O        -0.64773887331423   -0.07120877675060   -0.06087769141791
C         0.57891638133861    0.06364242150229    0.19420653641343
C         1.80654769413332    0.19860309044302    0.26812804599276
4
 energy: -10.213613592474 gnorm: 0.008363068955 xtb: 6.2.2 (9d81278992624c895f80dd42a50cac0aa55982e2)
C        -1.74259734526257   -0.19156855050367   -0.39881721298423
O        -0.64821091666985   -0.07126496924703   -0.06505361672438
C         0.58083773832975    0.06384855479978    0.19228831116142
C         1.80997052360267    0.19898396495092    0.27158251854719
4
 energy: -10.213818160332 gnorm: 0.016062624104 xtb: 6.2.2 (9d81278992624c895f80dd42a50cac0aa55982e2)
C        -1.75323980216207   -0.19273447927021   -0.38689052677235
O        -0.64697956601344   -0.07113329065519   -0.07761539072822
C         0.58350568283031    0.06413783461478    0.17660547911889
C         1.81671368534520    0.19972893531062    0.28790043838167
4
 energy: -10.213904024971 gnorm: 0.012535834208 xtb: 6.2.2 (9d81278992624c895f80dd42a50cac0aa55982e2)
C        -1.75814571712424   -0.19327972172937   -0.37941226498470
O        -0.65152353769499   -0.07162769465260   -0.08347793043147
C         0.58805631327504    0.06464448489645    0.16602147699359
C         1.82161294154419    0.20026193148552    0.29686871842259
4
 energy: -10.214015094645 gnorm: 0.015632926674 xtb: 6.2.2 (9d81278992624c895f80dd42a50cac0aa55982e2)
C        -1.75978548790412   -0.19346176170364   -0.37034545541911
O        -0.64886632823241   -0.07133415131369   -0.08942843688979
C         0.58842165806328    0.06468693101718    0.15132723996098
C         1.82023015807325    0.20010798200015    0.30844665234792
4
 energy: -10.214165074633 gnorm: 0.011416335195 xtb: 6.2.2 (9d81278992624c895f80dd42a50cac0aa55982e2)
C        -1.75932225835775   -0.19340528600291   -0.35726039271221
O        -0.64517082716706   -0.07093312309511   -0.09841769367672
C         0.58975882613283    0.06482857061954    0.13377624276830
C         1.81473425939197    0.19950883847848    0.32190184362062
4
 energy: -10.214207685995 gnorm: 0.002903544805 xtb: 6.2.2 (9d81278992624c895f80dd42a50cac0aa55982e2)
C        -1.75913776423318   -0.19338445233021   -0.35552604957677
O        -0.64425588741928   -0.07083512616804   -0.10008072749435
C         0.59155348558408    0.06502948060793    0.13274745057817
C         1.81184016606838    0.19918909789032    0.32285932649295
4
 energy: -10.214220558813 gnorm: 0.002195250411 xtb: 6.2.2 (9d81278992624c895f80dd42a50cac0aa55982e2)
C        -1.75988788337832   -0.19348430934175   -0.35346412734418
O        -0.64423672745145   -0.07078093332060   -0.10241696442666
C         0.59263379374682    0.06509440500115    0.13117952432084
C         1.81149081708295    0.19916983766120    0.32470156744999
4
 energy: -10.214241877457 gnorm: 0.004397083747 xtb: 6.2.2 (9d81278992624c895f80dd42a50cac0aa55982e2)
C        -1.76231412249854   -0.19310810322080   -0.34698021270781
O        -0.64374108830383   -0.07269913968080   -0.10965807169454
C         0.59468437106202    0.06740541783680    0.12594255574830
C         1.81137083974034    0.19840082506481    0.33069572865405
4
 energy: -10.213683352980 gnorm: 0.016820774708 xtb: 6.2.2 (9d81278992624c895f80dd42a50cac0aa55982e2)
C        -1.77004043064396   -0.20353798449585   -0.32171306806754
O        -0.64532820581553   -0.04354811905362   -0.13760622621127
C         0.60598347961740    0.03771095247210    0.10525213496653
C         1.80938515684207    0.20937415107730    0.35406715931231
4
 energy: -10.214259657751 gnorm: 0.004254568228 xtb: 6.2.2 (9d81278992624c895f80dd42a50cac0aa55982e2)
C        -1.76409794712050   -0.19400722693210   -0.33962218913755
O        -0.64290541369427   -0.07045847578129   -0.11743974982997
C         0.59626889386780    0.06531575469209    0.11964204643886
C         1.81073446694698    0.19914894802130    0.33741989252867
4
 energy: -10.214264668753 gnorm: 0.002652536910 xtb: 6.2.2 (9d81278992624c895f80dd42a50cac0aa55982e2)
C        -1.76405444732943   -0.19389656719964   -0.33865278118149
O        -0.64231645540645   -0.07071852416618   -0.11823673103408
C         0.59589004657143    0.06561742414462    0.11858210886343
C         1.81048085616445    0.19899666722120    0.33830740335215
4
 energy: -10.214269428048 gnorm: 0.000528291022 xtb: 6.2.2 (9d81278992624c895f80dd42a50cac0aa55982e2)
C        -1.76417907309883   -0.19391854098237   -0.33518240688196
O        -0.64094633818423   -0.07054454248160   -0.12132513691591
C         0.59552328652015    0.06555434674302    0.11500335988484
C         1.80960212476291    0.19890773672095    0.34150418391304
