 Entering Gaussian System
 *********************************************
 Gaussian 98:
 frequency output generated by the xtb code
 *********************************************
                         Standard orientation:
 --------------------------------------------------------------------
  Center     Atomic     Atomic              Coordinates (Angstroms)
  Number     Number      Type              X           Y           Z
 --------------------------------------------------------------------
    1          6             0       -1.764181   -0.193910   -0.335176
    2          8             0       -0.640947   -0.070541   -0.121323
    3          6             0        0.595524    0.065551    0.115001
    4          6             0        1.809604    0.198899    0.341498
 --------------------------------------------------------------------
     1 basis functions        1 primitive gaussians
     1 alpha electrons        1 beta electrons

 Harmonic frequencies (cm**-1), IR intensities (KM/Mole),
 Raman scattering activities (A**4/amu), Raman depolarization ratios,
 reduced masses (AMU), force constants (mDyne/A) and normal coordinates:
                      1                      2                      3
                        a                      a                      a 
 Frequencies --   192.0202               192.3286               539.6513
 Red. masses --    12.8517                12.8542                13.6761
 Frc consts  --     0.0000                 0.0000                 0.0000
 IR Inten    --     0.5917                 0.5915                 0.3095
 Raman Activ --     0.0000                 0.0000                 0.0000
 Depolar     --     0.0000                 0.0000                 0.0000
 Atom AN      X      Y      Z        X      Y      Z        X      Y      Z
   1   6    -0.06   0.53   0.00     0.10   0.01  -0.52    -0.03   0.28  -0.01
   2   8     0.05  -0.46  -0.00    -0.08  -0.01   0.45     0.06  -0.64   0.03
   3   6     0.06  -0.50  -0.00    -0.09  -0.01   0.50    -0.07   0.67  -0.03
   4   6    -0.06   0.50   0.00     0.09   0.01  -0.49     0.02  -0.21   0.01
                      4                      5                      6
                        a                      a                      a 
 Frequencies --   539.8152               915.1764              1970.3928
 Red. masses --    13.6788                12.7258                13.2869
 Frc consts  --     0.0000                 0.0000                 0.0000
 IR Inten    --     0.3101                 0.4211                 0.7987
 Raman Activ --     0.0000                 0.0000                 0.0000
 Depolar     --     0.0000                 0.0000                 0.0000
 Atom AN      X      Y      Z        X      Y      Z        X      Y      Z
   1   6    -0.05   0.01   0.28    -0.52  -0.06  -0.10     0.61   0.07   0.12
   2   8     0.12  -0.02  -0.63    -0.41  -0.05  -0.08    -0.55  -0.06  -0.11
   3   6    -0.13   0.02   0.66     0.40   0.04   0.08    -0.36  -0.04  -0.07
   4   6     0.04  -0.01  -0.21     0.59   0.06   0.11     0.39   0.04   0.07
                      7
                        a 
 Frequencies --  2020.8861
 Red. masses --    12.7816
 Frc consts  --     0.0000
 IR Inten    --     1.8859
 Raman Activ --     0.0000
 Depolar     --     0.0000
 Atom AN      X      Y      Z        X      Y      Z        X      Y      Z
   1   6    -0.31  -0.03  -0.06
   2   8     0.43   0.05   0.08
   3   6    -0.66  -0.07  -0.12
   4   6     0.48   0.05   0.09
