$hessian                                                                        
        0.9318348085   0.1007309822   0.1746316454  -0.8758966555  -0.0926657132
       -0.1606135875  -0.0785259813  -0.0110177716  -0.0189557373   0.0226614876
        0.0028723089   0.0048900497
        0.1007309822   0.0263832465   0.0191931630  -0.0927560401  -0.0427640840
       -0.0176670888  -0.0108251805   0.0195374859  -0.0020659362   0.0028580753
       -0.0031622597   0.0005346150
        0.1746316454   0.0191931630   0.0485852901  -0.1607692427  -0.0176669355
       -0.0632612259  -0.0187097329  -0.0020756502   0.0171578418   0.0048609620
        0.0005340525  -0.0025632952
       -0.8758966555  -0.0927560401  -0.1607692427   1.2635440777   0.1303040685
        0.2258686162  -0.2836084927  -0.0241487523  -0.0424205225  -0.1041398997
       -0.0132156924  -0.0225599591
       -0.0926657132  -0.0427640840  -0.0176669355   0.1303040685   0.0926547666
        0.0248356023  -0.0244307384  -0.0649795609  -0.0046850891  -0.0132183264
        0.0151091243  -0.0024704837
       -0.1606135875  -0.0176670888  -0.0632612259   0.2258686162   0.0248356023
        0.1215727259  -0.0426166124  -0.0046529771  -0.0704976185  -0.0226570429
       -0.0024804410   0.0123150874
       -0.0785259813  -0.0108251805  -0.0187097329  -0.2836084927  -0.0244307384
       -0.0426166124   1.1131390600   0.1150109799   0.1971176398  -0.7509503282
       -0.0800101174  -0.1359660195
       -0.0110177716   0.0195374859  -0.0020756502  -0.0241487523  -0.0649795609
       -0.0046529771   0.1150109799   0.0774583698   0.0216274345  -0.0798389871
       -0.0320537103  -0.0149180115
       -0.0189557373  -0.0020659362   0.0171578418  -0.0424205225  -0.0046850891
       -0.0704976185   0.1971176398   0.0216274345   0.1018962374  -0.1357320245
       -0.0149242823  -0.0486300908
        0.0226614876   0.0028580753   0.0048609620  -0.1041398997  -0.0132183264
       -0.0226570429  -0.7509503282  -0.0798389871  -0.1357320245   0.8324017934
        0.0903509047   0.1536315682
        0.0028723089  -0.0031622597   0.0005340525  -0.0132156924   0.0151091243
       -0.0024804410  -0.0800101174  -0.0320537103  -0.0149242823   0.0903509047
        0.0201296263   0.0168820281
        0.0048900497   0.0005346150  -0.0025632952  -0.0225599591  -0.0024704837
        0.0123150874  -0.1359660195  -0.0149180115  -0.0486300908   0.1536315682
        0.0168820281   0.0389043491
