$hessian                                                                        
        0.4833249897  -0.2268528305   0.0420421102  -0.2952988585   0.4387730470
       -0.0264465300  -0.1880261312  -0.2119202166  -0.0155955802
       -0.2268528305   0.2764441283  -0.0201631216   0.3045691221  -0.1886461703
        0.0266086767  -0.0777162917  -0.0877979580  -0.0064455551
        0.0420421102  -0.0201631216   0.0036581297  -0.0261067834   0.0381229659
       -0.0023363937  -0.0159353268  -0.0179598443  -0.0013217360
       -0.2952988585   0.3045691221  -0.0261067834   0.3433424195  -0.2473253314
        0.0300838583  -0.0480435610  -0.0572437907  -0.0039770750
        0.4387730470  -0.1886461703   0.0381229659  -0.2473253314   0.4174323895
       -0.0222765217  -0.1914477156  -0.2287862192  -0.0158464443
       -0.0264465300   0.0266086767  -0.0023363937   0.0300838583  -0.0222765217
        0.0026374983  -0.0036373283  -0.0043321551  -0.0003011046
       -0.1880261312  -0.0777162917  -0.0159353268  -0.0480435610  -0.1914477156
       -0.0036373283   0.2360696921   0.2691640073   0.0195726551
       -0.2119202166  -0.0877979580  -0.0179598443  -0.0572437907  -0.2287862192
       -0.0043321551   0.2691640073   0.3165841772   0.0222919994
       -0.0155955802  -0.0064455551  -0.0013217360  -0.0039770750  -0.0158464443
       -0.0003011046   0.0195726551   0.0222919994   0.0016228406
