[Molden Format]
[Title]
[Atoms] AU
C      1     6  0.14503741905562E+01 -0.23142558022311E+00  0.12502414691275E+00
C      2     6 -0.43745052233076E+00  0.14070357613820E+01 -0.41093360072740E-01
O      3     8 -0.10129217784929E+01 -0.11756101811655E+01 -0.83928897120653E-01
[GTO]
           1 0
 s           4   1.0000000000000000     
   51.049363095579913      -0.16312063210127389     
   8.7911227406887544      -0.19911024581000730     
  0.70640422258929825       0.31882047753655751     
  0.26922813413411617       0.12706504184240380     
 p           4   1.0000000000000000     
   5.8263656140800002       0.73716451545209605     
   1.5106896018720002       0.68216371614850257     
  0.53256483288000001       0.35783053929253711     
  0.21202323690600003        5.3983030275847881E-002

           2 0
 s           4   1.0000000000000000     
   51.049363095579913      -0.16312063210127389     
   8.7911227406887544      -0.19911024581000730     
  0.70640422258929825       0.31882047753655751     
  0.26922813413411617       0.12706504184240380     
 p           4   1.0000000000000000     
   5.8263656140800002       0.73716451545209605     
   1.5106896018720002       0.68216371614850257     
  0.53256483288000001       0.35783053929253711     
  0.21202323690600003        5.3983030275847881E-002

           3 0
 s           4   1.0000000000000000     
   69.137961906196551      -0.20478756370077797     
   11.906129132707308      -0.24997023136827334     
  0.95670827744340703       0.40025880240639616     
  0.36462520496073686       0.15952206667693555     
 p           4   1.0000000000000000     
   8.2124193257781641        1.1321556799186829     
   2.1293576997098116        1.0476840782254817     
  0.75066448202360914       0.54956508217158984     
  0.29885246543283073        8.2908486592766617E-002

[MO]
Sym=     1a
Ene=  -0.79159736172054629     
Spin= Alpha
Occup=     2.00000000
           1 -0.25608946794745074     
           2  0.16887602708596899     
           3   1.1616407060429410E-002
           4   1.4459647355531628E-002
           5 -0.25608645328652052     
           6  -1.2915409032822921E-002
           7  0.16939077288269871     
           8  -1.5369225018171807E-003
           9 -0.58772851698686313     
          10 -0.13872999365517297     
          11 -0.16100912446826446     
          12  -1.1494966812027553E-002
Sym=     2a
Ene=  -0.68804973292909788     
Spin= Alpha
Occup=     2.00000000
           1  0.30677174893446785     
           2  -2.5021052027585675E-002
           3  0.17709081427372672     
           4  -2.5950274578486567E-003
           5  0.30677720357321142     
           6  0.17820720980720964     
           7   7.0070027147714779E-004
           8   1.5287884059529563E-002
           9 -0.66708211015071284     
          10  0.27073026189040883     
          11  0.31421867271697879     
          12   2.2432440948501435E-002
Sym=     3a
Ene=  -0.64624280121187905     
Spin= Alpha
Occup=     2.00000000
           1  0.33456527609154790     
           2   2.0635817795738956E-003
           3 -0.23981010045983459     
           4   7.8414535131652717E-004
           5 -0.33456217516760733     
           6  0.23673394026545899     
           7   3.2555866329435086E-002
           8   2.0228634346181648E-002
           9  -9.2387096624967720E-006
          10  0.50609185737730633     
          11 -0.43922769717450361     
          12   4.4533080410826320E-002
Sym=     4a
Ene=  -0.60890256508906393     
Spin= Alpha
Occup=     2.00000000
           1   1.7036790761389461E-008
           2   3.1797680180586180E-002
           3  -9.3820901580646439E-004
           4 -0.37061528443351155     
           5   1.6452439111103269E-008
           6   3.1797249574425319E-002
           7  -9.3820882062281878E-004
           8 -0.37061010419482204     
           9  -6.3693201504019121E-008
          10   6.1021744704084016E-002
          11  -1.8005222359482134E-003
          12 -0.71123416490132108     
Sym=     5a
Ene=  -0.55681867197124113     
Spin= Alpha
Occup=     2.00000000
           1 -0.25145958037506611     
           2 -0.20418973268797860     
           3 -0.37934908177566984     
           4  -1.6558530034718039E-002
           5 -0.25145707967816761     
           6 -0.34455933221109303     
           7 -0.25752321997787775     
           8  -2.8910225934242240E-002
           9 -0.24979502945706603     
          10  0.36847791024482240     
          11  0.42766580193310089     
          12   3.0531615623871904E-002
Sym=     6a
Ene=  -0.49623067359066853     
Spin= Alpha
Occup=     2.00000000
           1  0.46398485406381801     
           2  0.44347362810693147     
           3   9.7867172764880533E-003
           4   3.8023922202648747E-002
           5 -0.46399618208272314     
           6   5.4351278605745255E-002
           7 -0.44184891520643682     
           8   5.7817382079806438E-003
           9   1.5971880763552307E-006
          10 -0.33682584423062484     
          11  0.29233205925154437     
          12  -2.9638691387581972E-002
Sym=     7a
Ene=  -0.44325003121022544     
Spin= Alpha
Occup=     1.00000000
           1 -0.41261586391646654     
           2 -0.41807401914456793     
           3  0.41797791877754759     
           4  -3.6927631054631017E-002
           5 -0.41260883947502081     
           6  0.47243205887536016     
           7 -0.35487897130671170     
           8   4.1431624457881212E-002
           9   1.5490147306770230E-002
          10   3.6483219218847495E-003
          11   4.2216920851748992E-003
          12   3.0234788923574570E-004
Sym=     8a
Ene=  -0.41142588340886044     
Spin= Alpha
Occup=     1.00000000
           1   1.2514334170112844E-008
           2   4.5790662153823894E-002
           3  -1.3511302784902398E-003
           4 -0.53370947922483192     
           5   1.5137751333517902E-008
           6   4.5791613662141642E-002
           7  -1.3511419487812523E-003
           8 -0.53372077449829569     
           9   2.5606830215073101E-008
          10  -6.1995015035258394E-002
          11   1.8292438369178570E-003
          12  0.72257806403194347     
Sym=     9a
Ene=  -0.30572344462189255     
Spin= Alpha
Occup=     0.00000000
           1  -2.4930488543569156E-009
           2  -6.8326679979055407E-002
           3   2.0160765938885255E-003
           4  0.79637635327588907     
           5   3.7085743591288387E-009
           6   6.8326185307879872E-002
           7  -2.0160583036885906E-003
           8 -0.79637063729212687     
           9   1.3886156158276341E-010
          10   8.3781960261658081E-007
          11  -2.2966991551828462E-008
          12  -9.7848605713310013E-006
Sym=    10a
Ene=  -0.10690844479723842     
Spin= Alpha
Occup=     0.00000000
           1  -4.4038912844799799E-002
           2  0.32197550688542065     
           3  0.71765043132548934     
           4   2.5807744850005601E-002
           5   4.4058120273818377E-002
           6 -0.66112205538683588     
           7 -0.42336155148790638     
           8  -5.5650502464296772E-002
           9  -2.0856556160734099E-005
          10  0.49850947363091774     
          11 -0.43269940180374766     
          12   4.3866007973760147E-002
Sym=    11a
Ene=    2.5589084189680807E-002
Spin= Alpha
Occup=     0.00000000
           1 -0.31441316966611116     
           2  0.52606085664589242     
           3  0.29743022771693012     
           4   4.4381460967933162E-002
           5 -0.31442034063644447     
           6  0.21727491883308087     
           7  0.56534465965125735     
           8   1.7210321578260499E-002
           9  0.66801759643454095     
          10  0.55889109024324246     
          11  0.64861572786268540     
          12   4.6309151736515862E-002
Sym=    12a
Ene=   0.47584253474563876     
Spin= Alpha
Occup=     0.00000000
           1 -0.82448079508962913     
           2  0.78227116422663967     
           3 -0.52152483138514882     
           4   6.8436768531770054E-002
           5  0.82447089460040834     
           6  0.62707413521400890     
           7 -0.70164038839222886     
           8   5.5577307388776802E-002
           9   1.1135721163529419E-005
          10  0.19278790158645365     
          11 -0.16730317216001839     
          12   1.6964156145921991E-002
