3
 energy: -8.013594561119 gnorm: 0.149024578497 xtb: 6.2.2 (9d81278992624c895f80dd42a50cac0aa55982e2)
C         0.81663900000000   -0.18133600000000    0.07052700000000
C        -0.29663100000000    0.78486500000000   -0.02743600000000
O        -0.52000700000000   -0.60352900000000   -0.04309000000000
3
 energy: -8.029251264321 gnorm: 0.062353013769 xtb: 6.2.2 (9d81278992624c895f80dd42a50cac0aa55982e2)
C         0.78216485312884   -0.14098753946227    0.06746704478687
C        -0.25187488567137    0.75644998998679   -0.02352403110251
O        -0.53028896745746   -0.61546245052452   -0.04394201368436
3
 energy: -8.030290679628 gnorm: 0.052021498385 xtb: 6.2.2 (9d81278992624c895f80dd42a50cac0aa55982e2)
C         0.75763146076423   -0.11114203593504    0.06528657713490
C        -0.21890847652772    0.73639262136324   -0.02064476433442
O        -0.53872198423652   -0.62525058542820   -0.04464081280048
3
 energy: -8.031274742345 gnorm: 0.006450308771 xtb: 6.2.2 (9d81278992624c895f80dd42a50cac0aa55982e2)
C         0.76885282927037   -0.12431254151622    0.06628268924172
C        -0.23351317997257    0.74563624736673   -0.02192123568900
O        -0.53533864929779   -0.62132370585051   -0.04436045355272
3
 energy: -8.031293570792 gnorm: 0.000576662984 xtb: 6.2.2 (9d81278992624c895f80dd42a50cac0aa55982e2)
C         0.76765269725219   -0.12273661787696    0.06617573121984
C        -0.23178539852743    0.74467688747976   -0.02177056460818
O        -0.53586629872477   -0.62194026960280   -0.04440416661165
3
 energy: -8.031293711568 gnorm: 0.000315801996 xtb: 6.2.2 (9d81278992624c895f80dd42a50cac0aa55982e2)
C         0.76750545040235   -0.12246125126307    0.06616240086185
C        -0.23149269144762    0.74457015480069   -0.02174518022951
O        -0.53601175895473   -0.62210890353763   -0.04441622063234
