 Entering Gaussian System
 *********************************************
 Gaussian 98:
 frequency output generated by the xtb code
 *********************************************
                         Standard orientation:
 --------------------------------------------------------------------
  Center     Atomic     Atomic              Coordinates (Angstroms)
  Number     Number      Type              X           Y           Z
 --------------------------------------------------------------------
    1          6             0        0.767505   -0.122465    0.066160
    2          6             0       -0.231489    0.744571   -0.021746
    3          8             0       -0.536015   -0.622106   -0.044413
 --------------------------------------------------------------------
     1 basis functions        1 primitive gaussians
     1 alpha electrons        1 beta electrons

 Harmonic frequencies (cm**-1), IR intensities (KM/Mole),
 Raman scattering activities (A**4/amu), Raman depolarization ratios,
 reduced masses (AMU), force constants (mDyne/A) and normal coordinates:
                      1                      2                      3
                        a                      a                      a 
 Frequencies --   165.7597              1160.1842              1703.2652
 Red. masses --    13.0147                14.1468                12.2688
 Frc consts  --     0.0000                 0.0000                 0.0000
 IR Inten    --     1.5023                 0.9803                 0.0231
 Raman Activ --     0.0000                 0.0000                 0.0000
 Depolar     --     0.0000                 0.0000                 0.0000
 Atom AN      X      Y      Z        X      Y      Z        X      Y      Z
   1   6    -0.57  -0.22  -0.05    -0.10  -0.47  -0.01    -0.60   0.33  -0.05
   2   6     0.13   0.60   0.01    -0.45  -0.17  -0.04     0.41  -0.55   0.04
   3   8     0.38  -0.33   0.03     0.48   0.55   0.04     0.17   0.19   0.01
