      -----------------------------------------------------------      
     |                   =====================                   |     
     |                           x T B                           |     
     |                   =====================                   |     
     |                         S. Grimme                         |     
     |          Mulliken Center for Theoretical Chemistry        |     
     |                    University of Bonn                     |     
      -----------------------------------------------------------      

   * xtb version 6.2.2 (9d81278992624c895f80dd42a50cac0aa55982e2) compiled by '@Darwin' on 04/03/2020

   xtb is free software: you can redistribute it and/or modify it under
   the terms of the GNU Lesser General Public License as published by
   the Free Software Foundation, either version 3 of the License, or
   (at your option) any later version.
   
   xtb is distributed in the hope that it will be useful,
   but WITHOUT ANY WARRANTY; without even the implied warranty of
   MERCHANTABILITY or FITNESS FOR A PARTICULAR PURPOSE.  See the
   GNU Lesser General Public License for more details.
   
   Cite this work as:
   * S. Grimme, C. Bannwarth, P. Shushkov, J. Chem. Theory Comput., 2017,
     13, 1989-2009. DOI: 10.1021/acs.jctc.7b00118
   * C. Bannwarth, S. Ehlert and S. Grimme., J. Chem. Theory Comput., 2019,
     15, 1652-1671. DOI: 10.1021/acs.jctc.8b01176
   * P. Pracht, E. Caldeweyher, S. Ehlert, S. Grimme, ChemRxiv, 2019, preprint.
     DOI: 10.26434/chemrxiv.8326202.v1
   
   for DFT-D4:
   * E. Caldeweyher, C. Bannwarth and S. Grimme, J. Chem. Phys., 2017,
     147, 034112. DOI: 10.1063/1.4993215
   * E. Caldeweyher, S. Ehlert, A. Hansen, H. Neugebauer, S. Spicher,
     C. Bannwarth and S. Grimme, J. Chem. Phys., 2019, 150, 154122.
     DOI: 10.1063/1.5090222
   
   for sTDA-xTB:
   * S. Grimme and C. Bannwarth, J. Chem. Phys., 2016, 145, 054103.
     DOI: 10.1063/1.4959605
   
   in the mass-spec context:
   * V. Asgeirsson, C. Bauer and S. Grimme, Chem. Sci., 2017, 8, 4879.
     DOI: 10.1039/c7sc00601b
   
   for metadynamics refer to:
   * S. Grimme, J. Chem. Theory Comput., 2019, 155, 2847-2862
     DOI: 10.1021/acs.jctc.9b00143
   
   with help from (in alphabetical order)
   C. Bannwarth, F. Bohle, G. Brandenburg, E. Caldeweyher, M. Checinski,
   S. Dohm, S. Ehlert, S. Ehrlich, F. März, H. Neugebauer, J. Pisarek,
   P. Pracht, P. Shushkov, and S. Spicher.
   
 * started run on 2020/05/12 at 11:43:50.504     

           -------------------------------------------------
          |                Calculation Setup                |
           -------------------------------------------------

          program call               : xtb --input C2O1_0_S_0.input C2O1_0_S_0.xyz --ohess --molden --namespace C2O1_0_S_0 output.out
          calculation namespace      : C2O1_0_S_0
          coordinate file            : C2O1_0_S_0.xyz
          number of atoms            :                     3
          number of electrons        :                    14
          charge                     :                     0
          spin                       :                   0.0
          first test random number   :      0.85956548326413

   ID    Z sym.   atoms
    1    6 C      1, 2
    2    8 O      3

           -------------------------------------------------
          |                 G F N 2 - x T B                 |
           -------------------------------------------------

        Reference                      10.1021/acs.jctc.8b01176
      * Hamiltonian:
        H0-scaling (s, p, d)           1.850000    2.230000    2.230000
        zeta-weighting                 0.500000
      * Dispersion:
        s8                             2.700000
        a1                             0.520000
        a2                             5.000000
        s9                             5.000000
      * Repulsion:
        kExp                           1.500000    1.000000
        rExp                           1.000000
      * Coulomb:
        alpha                          2.000000
        third order                    shell-resolved
        anisotropic                    true
        a3                             3.000000
        a5                             4.000000
        cn-shift                       1.200000
        cn-exp                         4.000000
        max-rad                        5.000000


          ...................................................
          :                      SETUP                      :
          :.................................................:
          :  # basis functions                  12          :
          :  # atomic orbitals                  12          :
          :  # shells                            6          :
          :  # electrons                        14          :
          :  max. iterations                   250          :
          :  Hamiltonian                  GFN2-xTB          :
          :  restarted?                      false          :
          :  GBSA solvation                  false          :
          :  PC potential                    false          :
          :  electronic temp.          300.0000000     K    :
          :  accuracy                    1.0000000          :
          :  -> integral cutoff          0.2500000E+02      :
          :  -> integral neglect         0.1000000E-07      :
          :  -> SCF convergence          0.1000000E-05 Eh   :
          :  -> wf. convergence          0.1000000E-03 e    :
          :  Broyden damping             0.4000000          :
          ...................................................

 iter      E             dE          RMSdq      gap      omega  full diag
   1     -8.0097235 -0.800972E+01  0.113E+01    0.46       0.0  T
   2     -7.9386322  0.710913E-01  0.716E+00    0.54       1.0  T
   3     -7.1561737  0.782458E+00  0.128E+01    0.57       1.0  T
   4     -7.9214637 -0.765290E+00  0.600E+00    0.41       1.0  T
   5     -8.0305859 -0.109122E+00  0.155E+00    0.41       1.0  T
   6     -8.0326218 -0.203590E-02  0.114E+00    0.40       1.0  T
   7     -8.0323405  0.281346E-03  0.664E-01    0.38       1.0  T
   8     -8.0345089 -0.216839E-02  0.119E-01    0.39       1.0  T
   9     -8.0345101 -0.118667E-05  0.951E-02    0.39       1.0  T
  10     -8.0345236 -0.135879E-04  0.915E-03    0.39       6.3  T
  11     -8.0345238 -0.202546E-06  0.441E-03    0.40      13.1  T
  12     -8.0345239 -0.458007E-07  0.199E-03    0.40      29.0  T
  13     -8.0345239 -0.280236E-09  0.102E-03    0.40      56.5  T
  14     -8.0345239 -0.465493E-08  0.143E-04    0.40     403.1  T
  15     -8.0345239 -0.201528E-10  0.412E-05    0.40    1403.0  T

   *** convergence criteria satisfied after 15 iterations ***

         #    Occupation            Energy/Eh            Energy/eV
      -------------------------------------------------------------
         1        2.0000           -0.7571572             -20.6033
         2        2.0000           -0.6933906             -18.8681
         3        2.0000           -0.6262151             -17.0402
         4        2.0000           -0.5760318             -15.6746
         5        2.0000           -0.5623607             -15.3026
         6        2.0000           -0.5352742             -14.5656
         7        1.9990           -0.4573763             -12.4458 (HOMO)
         8        0.0010           -0.4428575             -12.0508 (LUMO)
         9                         -0.4028807             -10.9629
        10                         -0.3346662              -9.1067
        11                          0.0507043               1.3797
        12                          0.0582709               1.5856
      -------------------------------------------------------------
                  HL-Gap            0.0145187 Eh            0.3951 eV
             Fermi-level           -0.4501169 Eh          -12.2483 eV

 SCC (total)                   0 d,  0 h,  0 min,  0.003 sec
 SCC setup                      ...        0 min,  0.000 sec (  3.896%)
 Dispersion                     ...        0 min,  0.000 sec (  0.477%)
 integral evaluation            ...        0 min,  0.001 sec ( 29.125%)
 zeroth order Hamiltonian       ...        0 min,  0.000 sec (  0.592%)
 iterations                     ...        0 min,  0.001 sec ( 41.608%)
 molecular gradient             ...        0 min,  0.001 sec ( 21.484%)
 printout                       ...        0 min,  0.000 sec (  2.412%)

         :::::::::::::::::::::::::::::::::::::::::::::::::::::
         ::                     SUMMARY                     ::
         :::::::::::::::::::::::::::::::::::::::::::::::::::::
         :: total energy              -8.011341391618 Eh    ::
         :: gradient norm              0.331381434132 Eh/a0 ::
         :: HOMO-LUMO gap              0.395074797708 eV    ::
         ::.................................................::
         :: SCC energy                -8.034523900262 Eh    ::
         :: -> isotropic ES            0.000380941253 Eh    ::
         :: -> anisotropic ES         -0.000949859693 Eh    ::
         :: -> anisotropic XC          0.004545569055 Eh    ::
         :: -> dispersion             -0.000839575385 Eh    ::
         :: repulsion energy           0.023182507780 Eh    ::
         :: add. restraining           0.000000000000 Eh    ::
         :::::::::::::::::::::::::::::::::::::::::::::::::::::

      ----------------------------------------------------------- 
     |                   =====================                   |
     |                        A N C O P T                        |
     |                   =====================                   |
     |               Approximate Normal Coordinate               |
     |                Rational Function Optimizer                |
      ----------------------------------------------------------- 

          ...................................................
          :                      SETUP                      :
          :.................................................:
          :   optimization level            normal          :
          :   max. optcycles                   200          :
          :   ANC micro-cycles                  20          :
          :   degrees of freedom                 3          :
          :.................................................:
          :   RF solver                   davidson          :
          :   write xtbopt.log                true          :
          :   linear?                        false          :
          :   energy convergence         0.5000000E-05 Eh   :
          :   grad. convergence          0.1000000E-02 Eh/α :
          :   maximium RF displ.         1.0000000          :
          :   Hlow (freq-cutoff)         0.1000000E-01      :
          :   Hmax (freq-cutoff)         5.0000000          :
          :   S6 in model hess.         20.0000000          :
          ...................................................

generating ANC from model Hessian ...
Using Lindh-Hessian (1995)
 Shifting diagonal of input Hessian by    0.0000000000000000     
 Lowest  eigenvalues of input Hessian
   -0.000000   -0.000000   -0.000000    0.000000    0.000000    0.000000
    0.108407    0.783031    1.221677
 Highest eigenvalues
    0.000000    0.000000    0.000000    0.108407    0.783031    1.221677


........................................................................
.............................. CYCLE    1 ..............................
........................................................................
   1     -8.0345239 -0.803452E+01  0.136E-05    0.40       0.0  T
   2     -8.0345239  0.117595E-11  0.176E-05    0.40    3286.5  T
   3     -8.0345239 -0.882849E-12  0.126E-05    0.40    4596.0  T
     SCC iter.                  ...        0 min,  0.000 sec
     gradient                   ...        0 min,  0.000 sec
 * total energy  :    -8.0113414 Eh     change        0.8161649E-10 Eh
   gradient norm :     0.3313818 Eh/α   predicted     0.0000000E+00 (-100.00%)
   displ. norm   :     0.3471620 α      lambda       -0.1134238E+00
   maximum displ.:     0.3241051 α      in ANC's #2, #3, #1, ...

........................................................................
.............................. CYCLE    2 ..............................
........................................................................
   1     -8.1480778 -0.814808E+01  0.314E+00    0.56       0.0  T
   2     -8.0550239  0.930539E-01  0.510E+00    0.66       1.0  T
   3     -8.1719718 -0.116948E+00  0.124E+00    0.58       1.0  T
   4     -8.1725467 -0.574933E-03  0.507E-01    0.59       1.0  T
   5     -8.1731523 -0.605642E-03  0.171E-01    0.59       1.0  T
   6     -8.1731915 -0.391268E-04  0.879E-02    0.59       1.0  T
   7     -8.1731996 -0.810873E-05  0.594E-03    0.59       9.7  T
   8     -8.1731996 -0.227856E-07  0.179E-03    0.59      32.3  T
   9     -8.1731996 -0.284057E-08  0.528E-04    0.59     109.3  T
  10     -8.1731996 -0.439524E-09  0.881E-05    0.59     655.5  T
     SCC iter.                  ...        0 min,  0.001 sec
     gradient                   ...        0 min,  0.001 sec
 * total energy  :    -8.0999120 Eh     change       -0.8857060E-01 Eh
   gradient norm :     0.1566535 Eh/α   predicted    -0.6354688E-01 ( -28.25%)
   displ. norm   :     0.2928964 α      lambda       -0.4450299E-01
   maximum displ.:     0.2650839 α      in ANC's #2, #3, #1, ...

........................................................................
.............................. CYCLE    3 ..............................
........................................................................
   1     -8.2606016 -0.826060E+01  0.247E+00    0.56       0.0  T
   2     -8.2467447  0.138570E-01  0.272E+00    0.68       1.0  T
   3     -8.2718087 -0.250641E-01  0.100E+00    0.59       1.0  T
   4     -8.2724080 -0.599295E-03  0.130E-01    0.60       1.0  T
   5     -8.2724189 -0.108596E-04  0.915E-02    0.60       1.0  T
   6     -8.2724206 -0.174631E-05  0.418E-02    0.60       1.4  T
   7     -8.2724212 -0.564648E-06  0.553E-03    0.60      10.4  T
   8     -8.2724212 -0.241723E-07  0.954E-04    0.60      60.5  T
   9     -8.2724212 -0.164034E-08  0.131E-04    0.60     442.2  T
     SCC iter.                  ...        0 min,  0.001 sec
     gradient                   ...        0 min,  0.000 sec
 * total energy  :    -8.1083911 Eh     change       -0.8479072E-02 Eh
   gradient norm :     0.1479600 Eh/α   predicted    -0.2416041E-01 ( 184.94%)
   displ. norm   :     0.2964181 α      lambda       -0.2665792E-01
   maximum displ.:     0.2902396 α      in ANC's #1, #2, #3, ...

........................................................................
.............................. CYCLE    4 ..............................
........................................................................
   1     -8.2226348 -0.822263E+01  0.222E+00    0.19       0.0  T
   2     -8.2219946  0.640188E-03  0.156E+00    0.17       1.0  T
   3     -8.2164930  0.550161E-02  0.135E+00    0.21       1.0  T
   4     -8.2233980 -0.690503E-02  0.400E-01    0.18       1.0  T
   5     -8.2237261 -0.328071E-03  0.609E-02    0.18       1.0  T
   6     -8.2237259  0.184663E-06  0.277E-02    0.18       2.1  T
   7     -8.2237264 -0.504314E-06  0.540E-03    0.18      10.7  T
   8     -8.2237264 -0.108848E-07  0.762E-04    0.18      75.8  T
   9     -8.2237264 -0.274047E-09  0.382E-04    0.18     151.1  T
     SCC iter.                  ...        0 min,  0.001 sec
     gradient                   ...        0 min,  0.001 sec
 * total energy  :    -8.1190549 Eh     change       -0.1066388E-01 Eh
   gradient norm :     0.0529186 Eh/α   predicted    -0.1450009E-01 (  35.97%)
   displ. norm   :     0.0377493 α      lambda       -0.1915829E-02
   maximum displ.:     0.0364642 α      in ANC's #3, #2, #1, ...

........................................................................
.............................. CYCLE    5 ..............................
........................................................................
   1     -8.2285354 -0.822854E+01  0.673E-01    0.14       0.0  T
   2     -8.2269046  0.163071E-02  0.863E-01    0.17       1.0  T
   3     -8.2298318 -0.292718E-02  0.181E-01    0.15       1.0  T
   4     -8.2298458 -0.139360E-04  0.584E-02    0.15       1.0  T
   5     -8.2298516 -0.587050E-05  0.147E-02    0.15       3.9  T
   6     -8.2298517 -0.576298E-07  0.849E-03    0.15       6.8  T
   7     -8.2298517 -0.381993E-07  0.128E-03    0.15      44.9  T
   8     -8.2298517 -0.255037E-09  0.225E-04    0.15     256.4  T
   9     -8.2298517 -0.251692E-10  0.837E-05    0.15     690.2  T
     SCC iter.                  ...        0 min,  0.001 sec
     gradient                   ...        0 min,  0.000 sec
 * total energy  :    -8.1200284 Eh     change       -0.9735072E-03 Eh
   gradient norm :     0.0177951 Eh/α   predicted    -0.9592798E-03 (  -1.46%)
   displ. norm   :     0.0811779 α      lambda       -0.8106782E-03
   maximum displ.:     0.0707746 α      in ANC's #1, #2, #3, ...

........................................................................
.............................. CYCLE    6 ..............................
........................................................................
   1     -8.2312790 -0.823128E+01  0.190E+00    0.08       0.0  T
   2     -8.2308686  0.410408E-03  0.544E-01    0.11       1.0  T
   3     -8.2299390  0.929588E-03  0.921E-01    0.09       1.0  T
   4     -8.2317722 -0.183316E-02  0.151E-01    0.10       1.0  T
   5     -8.2317726 -0.450095E-06  0.330E-02    0.11       1.7  T
   6     -8.2317739 -0.124817E-05  0.855E-03    0.11       6.8  T
   7     -8.2317739 -0.326638E-07  0.452E-03    0.10      12.8  T
   8     -8.2317739 -0.106006E-07  0.820E-04    0.11      70.4  T
   9     -8.2317739 -0.763656E-11  0.937E-04    0.11      61.6  T
     SCC iter.                  ...        0 min,  0.000 sec
     gradient                   ...        0 min,  0.000 sec
 * total energy  :    -8.1207265 Eh     change       -0.6980935E-03 Eh
   gradient norm :     0.0078771 Eh/α   predicted    -0.4080113E-03 ( -41.55%)
   displ. norm   :     0.4177300 α      lambda       -0.3093296E-02
   maximum displ.:     0.3756399 α      in ANC's #1, #2, #3, ...

........................................................................
.............................. CYCLE    7 ..............................
........................................................................
   1     -8.2050417 -0.820504E+01  0.110E+01    0.10       0.0  T
   2     -8.2080036 -0.296191E-02  0.257E+00    0.00       1.0  T
   3     -8.2069396  0.106403E-02  0.152E+00    0.00       1.0  T
   4     -8.2067926  0.146938E-03  0.123E+00    0.01       1.0  T
   5     -8.2100552 -0.326258E-02  0.135E-01    0.00       1.0  T
   6     -8.2100736 -0.183276E-04  0.582E-02    0.00       1.0  T
   7     -8.2100748 -0.120278E-05  0.376E-02    0.01       1.5  T
   8     -8.2100748 -0.636942E-07  0.574E-03    0.00      10.1  T
   9     -8.2100748 -0.847976E-09  0.564E-03    0.00      10.2  T
  10     -8.2100748 -0.188930E-08  0.223E-04    0.00     259.0  T
  11     -8.2100748 -0.121787E-10  0.533E-05    0.00    1082.3  T
     SCC iter.                  ...        0 min,  0.001 sec
     gradient                   ...        0 min,  0.001 sec
 * total energy  :    -8.1215962 Eh     change       -0.8696733E-03 Eh
   gradient norm :     0.0609439 Eh/α   predicted    -0.1816542E-02 ( 108.88%)
   displ. norm   :     0.2173119 α      lambda       -0.4348782E-02
   maximum displ.:     0.2028269 α      in ANC's #1, #2, #3, ...

........................................................................
.............................. CYCLE    8 ..............................
........................................................................
   1     -8.2305546 -0.823055E+01  0.468E+00    0.08       0.0  T
   2     -8.2312131 -0.658541E-03  0.113E+00    0.04       1.0  T
   3     -8.2309938  0.219336E-03  0.677E-01    0.03       1.0  T
   4     -8.2310893 -0.955890E-04  0.578E-01    0.04       1.0  T
   5     -8.2314065 -0.317166E-03  0.572E-02    0.03       1.0  T
   6     -8.2314152 -0.864584E-05  0.194E-02    0.04       3.0  T
   7     -8.2314153 -0.990724E-07  0.157E-02    0.04       3.7  T
   8     -8.2314153 -0.981566E-08  0.155E-03    0.04      37.2  T
   9     -8.2314153 -0.456186E-10  0.227E-03    0.04      25.4  T
  10     -8.2314153 -0.214168E-09  0.203E-04    0.04     284.3  T
  11     -8.2314153 -0.279954E-11  0.506E-05    0.04    1141.0  T
     SCC iter.                  ...        0 min,  0.001 sec
     gradient                   ...        0 min,  0.001 sec
 * total energy  :    -8.1223104 Eh     change       -0.7141387E-03 Eh
   gradient norm :     0.0089748 Eh/α   predicted    -0.2277072E-02 ( 218.86%)
   displ. norm   :     0.1077392 α      lambda       -0.8594564E-03
   maximum displ.:     0.0917968 α      in ANC's #1, #2, #3, ...

........................................................................
.............................. CYCLE    9 ..............................
........................................................................
   1     -8.2270525 -0.822705E+01  0.346E+00    0.01       0.0  T
   2     -8.2274083 -0.355801E-03  0.687E-01    0.02       1.0  T
   3     -8.2274806 -0.723000E-04  0.425E-01    0.01       1.0  T
   4     -8.2274893 -0.875422E-05  0.305E-01    0.02       1.0  T
   5     -8.2276554 -0.166098E-03  0.222E-02    0.02       2.6  T
   6     -8.2276563 -0.863984E-06  0.111E-02    0.02       5.2  T
   7     -8.2276563 -0.261882E-07  0.310E-03    0.02      18.6  T
   8     -8.2276563 -0.143086E-08  0.455E-04    0.02     126.8  T
   9     -8.2276563 -0.273417E-10  0.690E-05    0.02     837.1  T
     SCC iter.                  ...        0 min,  0.000 sec
     gradient                   ...        0 min,  0.000 sec
 * total energy  :    -8.1230502 Eh     change       -0.7398438E-03 Eh
   gradient norm :     0.0079787 Eh/α   predicted    -0.4347167E-03 ( -41.24%)
   displ. norm   :     0.2299935 α      lambda       -0.1253573E-02
   maximum displ.:     0.1871620 α      in ANC's #1, #2, #3, ...

........................................................................
.............................. CYCLE   10 ..............................
........................................................................
   1     -8.2140907 -0.821409E+01  0.286E+00    0.02       0.0  T
   2     -8.2143349 -0.244111E-03  0.924E-01    0.00       1.0  T
   3     -8.2143449 -0.100121E-04  0.581E-01    0.00       1.0  T
   4     -8.2140102  0.334685E-03  0.321E-01    0.00       1.0  T
   5     -8.2144017 -0.391562E-03  0.318E-02    0.00       1.8  T
   6     -8.2144019 -0.197825E-06  0.194E-02    0.00       3.0  T
   7     -8.2144024 -0.415037E-06  0.325E-03    0.00      17.7  T
   8     -8.2144024 -0.812539E-09  0.102E-03    0.00      56.4  T
   9     -8.2144024 -0.166175E-09  0.114E-04    0.00     505.5  T
  10     -8.2144024 -0.522249E-12  0.533E-05    0.00    1083.1  T
     SCC iter.                  ...        0 min,  0.000 sec
     gradient                   ...        0 min,  0.000 sec
 * total energy  :    -8.1226222 Eh     change        0.4279485E-03 Eh
   gradient norm :     0.0403440 Eh/α   predicted    -0.6599431E-03 (-254.21%)
   displ. norm   :     0.1409675 α      lambda       -0.2214508E-02
   maximum displ.:     0.1200852 α      in ANC's #1, #2, #3, ...

........................................................................
.............................. CYCLE   11 ..............................
........................................................................
   1     -8.2266157 -0.822662E+01  0.131E+00    0.01       0.0  T
   2     -8.2266655 -0.498102E-04  0.559E-01    0.01       1.0  T
   3     -8.2266506  0.148973E-04  0.400E-01    0.00       1.0  T
   4     -8.2267976 -0.147038E-03  0.241E-01    0.01       1.0  T
   5     -8.2268646 -0.670131E-04  0.149E-02    0.01       3.9  T
   6     -8.2268647 -0.494626E-07  0.649E-03    0.01       8.9  T
   7     -8.2268647 -0.511095E-07  0.177E-03    0.01      32.5  T
   8     -8.2268647 -0.897108E-09  0.486E-04    0.01     118.7  T
   9     -8.2268647 -0.457092E-10  0.522E-05    0.01    1106.6  T
     SCC iter.                  ...        0 min,  0.000 sec
     gradient                   ...        0 min,  0.000 sec
 * total energy  :    -8.1234698 Eh     change       -0.8475907E-03 Eh
   gradient norm :     0.0089833 Eh/α   predicted    -0.1129258E-02 (  33.23%)
   displ. norm   :     0.0307328 α      lambda       -0.1269512E-03
   maximum displ.:     0.0206808 α      in ANC's #1, #2, #3, ...

........................................................................
.............................. CYCLE   12 ..............................
........................................................................
   1     -8.2269261 -0.822693E+01  0.443E-01    0.00       0.0  T
   2     -8.2269324 -0.620860E-05  0.128E-01    0.00       1.0  T
   3     -8.2269329 -0.522993E-06  0.800E-02    0.00       1.0  T
   4     -8.2269263  0.659515E-05  0.490E-02    0.00       1.2  T
   5     -8.2269343 -0.803081E-05  0.345E-03    0.00      16.7  T
   6     -8.2269343 -0.412594E-08  0.213E-03    0.00      27.1  T
   7     -8.2269343 -0.320210E-08  0.192E-04    0.00     300.6  T
   8     -8.2269343 -0.456879E-11  0.106E-04    0.00     544.9  T
     SCC iter.                  ...        0 min,  0.000 sec
     gradient                   ...        0 min,  0.000 sec
 * total energy  :    -8.1235798 Eh     change       -0.1099250E-03 Eh
   gradient norm :     0.0077033 Eh/α   predicted    -0.6353727E-04 ( -42.20%)
   displ. norm   :     0.0820489 α      lambda       -0.2803167E-03
   maximum displ.:     0.0574721 α      in ANC's #2, #1, #3, ...

........................................................................
.............................. CYCLE   13 ..............................
........................................................................
   1     -8.2271739 -0.822717E+01  0.726E-01    0.00       0.0  T
   2     -8.2271875 -0.135310E-04  0.326E-01    0.00       1.0  T
   3     -8.2271889 -0.147875E-05  0.189E-01    0.00       1.0  T
   4     -8.2271785  0.104780E-04  0.601E-02    0.00       1.0  T
   5     -8.2271921 -0.136541E-04  0.844E-03    0.00       6.8  T
   6     -8.2271921 -0.503613E-08  0.256E-03    0.00      22.6  T
   7     -8.2271921 -0.125443E-07  0.532E-04    0.00     108.5  T
   8     -8.2271921 -0.976392E-10  0.262E-04    0.00     220.5  T
     SCC iter.                  ...        0 min,  0.000 sec
     gradient                   ...        0 min,  0.000 sec
 * total energy  :    -8.1237325 Eh     change       -0.1527033E-03 Eh
   gradient norm :     0.0057254 Eh/α   predicted    -0.1411027E-03 (  -7.60%)
   displ. norm   :     0.0087721 α      lambda       -0.3169729E-04
   maximum displ.:     0.0081378 α      in ANC's #2, #3, #1, ...

........................................................................
.............................. CYCLE   14 ..............................
........................................................................
   1     -8.2285676 -0.822857E+01  0.598E-02    0.00       0.0  T
   2     -8.2285680 -0.356171E-06  0.429E-02    0.00       1.3  T
   3     -8.2285709 -0.291049E-05  0.262E-02    0.00       2.2  T
   4     -8.2285715 -0.572821E-06  0.248E-03    0.00      23.3  T
   5     -8.2285715 -0.140322E-08  0.136E-03    0.00      42.4  T
   6     -8.2285715 -0.869340E-09  0.748E-04    0.00      77.2  T
   7     -8.2285715 -0.464620E-09  0.604E-05    0.00     955.2  T
     SCC iter.                  ...        0 min,  0.000 sec
     gradient                   ...        0 min,  0.000 sec
 * total energy  :    -8.1237530 Eh     change       -0.2050096E-04 Eh
   gradient norm :     0.0016118 Eh/α   predicted    -0.1585137E-04 ( -22.68%)
   displ. norm   :     0.0113142 α      lambda       -0.4617990E-05
   maximum displ.:     0.0093682 α      in ANC's #2, #3, #1, ...

........................................................................
.............................. CYCLE   15 ..............................
........................................................................
   1     -8.2293028 -0.822930E+01  0.723E-02    0.00       0.0  T
   2     -8.2293030 -0.193359E-06  0.469E-02    0.00       1.2  T
   3     -8.2293013  0.165072E-05  0.346E-02    0.00       1.7  T
   4     -8.2293041 -0.278438E-05  0.182E-03    0.00      31.7  T
   5     -8.2293041 -0.911161E-09  0.118E-03    0.00      48.8  T
   6     -8.2293041 -0.508722E-09  0.438E-04    0.00     131.7  T
   7     -8.2293041 -0.232813E-09  0.665E-05    0.00     867.8  T
     SCC iter.                  ...        0 min,  0.000 sec
     gradient                   ...        0 min,  0.001 sec
 * total energy  :    -8.1237550 Eh     change       -0.2028545E-05 Eh
   gradient norm :     0.0006937 Eh/α   predicted    -0.2309989E-05 (  13.87%)
   displ. norm   :     0.0025937 α      lambda       -0.5385349E-06
   maximum displ.:     0.0022706 α      in ANC's #2, #3, #1, ...

   *** GEOMETRY OPTIMIZATION CONVERGED AFTER 15 ITERATIONS ***

------------------------------------------------------------------------
 total energy gain   :        -0.1124136 Eh      -70.5406 kcal/mol
 total RMSD          :         0.7486006 a0        0.3961 Å
 total power (kW/mol):       -19.6761251 (step)********** (real)
------------------------------------------------------------------------

 ANCopt (total)                0 d,  0 h,  0 min,  0.027 sec
 optimizer setup                ...        0 min,  0.000 sec (  0.339%)
 model hessian                  ...        0 min,  0.000 sec (  0.185%)
 ANC generation                 ...        0 min,  0.000 sec (  0.172%)
 coordinate transformation      ...        0 min,  0.000 sec (  0.217%)
 single point calculation       ...        0 min,  0.025 sec ( 94.585%)
 optimization log               ...        0 min,  0.000 sec (  1.417%)
 hessian update                 ...        0 min,  0.000 sec (  0.185%)
 rational function              ...        0 min,  0.000 sec (  1.035%)

================
 final structure:
================
3
 xtb: 6.2.2 (9d81278992624c895f80dd42a50cac0aa55982e2)
C        -0.05151136820737   -0.00135601168031    0.00000000000000
C         1.26666822235416    0.00395754952293    0.00000000000000
O        -1.21515685414679   -0.00260153784262    0.00000000000000

 Bond Distances (Angstroems)
 ---------------------------
C1-C2=1.3182         C1-O3=1.1636         C2-C1=1.3182         O3-C1=1.1636         
 C  C  Rav=1.3182 sigma=0.0000  Rmin=1.3182  Rmax=1.3182     1
 O  C  Rav=1.1636 sigma=0.0000  Rmin=1.1636  Rmax=1.1636     1

 selected bond angles (degree)
 --------------------
O3-C1-C2=179.83                

 selected dihedral angles (degree)
 ---------------------------------

           -------------------------------------------------
          |                Final Singlepoint                |
           -------------------------------------------------

          ...................................................
          :                      SETUP                      :
          :.................................................:
          :  # basis functions                  12          :
          :  # atomic orbitals                  12          :
          :  # shells                            6          :
          :  # electrons                        14          :
          :  max. iterations                   250          :
          :  Hamiltonian                  GFN2-xTB          :
          :  restarted?                      false          :
          :  GBSA solvation                  false          :
          :  PC potential                    false          :
          :  electronic temp.          300.0000000     K    :
          :  accuracy                    1.0000000          :
          :  -> integral cutoff          0.2500000E+02      :
          :  -> integral neglect         0.1000000E-07      :
          :  -> SCF convergence          0.1000000E-05 Eh   :
          :  -> wf. convergence          0.1000000E-03 e    :
          :  Broyden damping             0.4000000          :
          ...................................................

 iter      E             dE          RMSdq      gap      omega  full diag
   1     -8.2293041 -0.822930E+01  0.109E-05    0.00       0.0  T
   2     -8.2293041 -0.888178E-14  0.676E-06    0.00    8538.3  T
   3     -8.2293041  0.532907E-14  0.357E-06    0.00   16152.7  T

   *** convergence criteria satisfied after 3 iterations ***

         #    Occupation            Energy/Eh            Energy/eV
      -------------------------------------------------------------
         1        2.0000           -0.8001130             -21.7722
         2        2.0000           -0.7012138             -19.0810
         3        2.0000           -0.6300275             -17.1439
         4        2.0000           -0.6250674             -17.0089
         5        2.0000           -0.6250663             -17.0089
         6        2.0000           -0.4718894             -12.8408
         7        1.0000           -0.4326249             -11.7723 (HOMO)
         8        1.0000           -0.4326248             -11.7723 (LUMO)
         9                         -0.2222944              -6.0489
        10                         -0.2222931              -6.0489
        11                          0.2171610               5.9093
        12                          1.0468044              28.4850
      -------------------------------------------------------------
                  HL-Gap            0.0000001 Eh            0.0000 eV
             Fermi-level           -0.4326249 Eh          -11.7723 eV

 SCC (total)                   0 d,  0 h,  0 min,  0.001 sec
 SCC setup                      ...        0 min,  0.000 sec (  3.707%)
 Dispersion                     ...        0 min,  0.000 sec (  0.459%)
 integral evaluation            ...        0 min,  0.001 sec ( 39.585%)
 zeroth order Hamiltonian       ...        0 min,  0.000 sec (  0.624%)
 iterations                     ...        0 min,  0.000 sec ( 16.535%)
 molecular gradient             ...        0 min,  0.000 sec ( 32.923%)
 printout                       ...        0 min,  0.000 sec (  5.487%)

         :::::::::::::::::::::::::::::::::::::::::::::::::::::
         ::                     SUMMARY                     ::
         :::::::::::::::::::::::::::::::::::::::::::::::::::::
         :: total energy              -8.123754995319 Eh    ::
         :: gradient norm              0.000694247010 Eh/a0 ::
         :: HOMO-LUMO gap              0.000002694167 eV    ::
         ::.................................................::
         :: SCC energy                -8.229304119145 Eh    ::
         :: -> isotropic ES            0.000689807925 Eh    ::
         :: -> anisotropic ES          0.000856842325 Eh    ::
         :: -> anisotropic XC          0.004658121623 Eh    ::
         :: -> dispersion             -0.000841092894 Eh    ::
         :: repulsion energy           0.105549126942 Eh    ::
         :: add. restraining           0.000000000000 Eh    ::
         :::::::::::::::::::::::::::::::::::::::::::::::::::::

           ------------------------------------------------- 
          |                Numerical Hessian                |
           ------------------------------------------------- 
step length          :   0.00500
SCC accuracy         :   0.30000
Hessian scale factor :   1.00000
frozen atoms in %    :   0.00000    0
RMS gradient         :   0.00069
estimated CPU  time      0.00 min
estimated wall time      0.00 min

writing file <hessian>.

 vibrational frequencies (cm-1)
eigval :        0.00     0.00     0.00     0.00     0.00   251.66
eigval :      252.25  1242.30  2105.82
           -------------------------------------------------
          |                Property Printout                |
           -------------------------------------------------

    * Orbital Energies and Occupations

         #    Occupation            Energy/Eh            Energy/eV
      -------------------------------------------------------------
         1        2.0000           -0.8001130             -21.7722
         2        2.0000           -0.7012138             -19.0810
         3        2.0000           -0.6300275             -17.1439
         4        2.0000           -0.6250674             -17.0089
         5        2.0000           -0.6250662             -17.0089
         6        2.0000           -0.4718894             -12.8408
         7        1.0000           -0.4326249             -11.7723 (HOMO)
         8        1.0000           -0.4326248             -11.7723 (LUMO)
         9                         -0.2222944              -6.0489
Molecule has the following symmetry elements: (Cinf) (sigma) 
It seems to be the Cinfv point group
        10                         -0.2222931              -6.0489
        11                          0.2171610               5.9093
        12                          1.0468045              28.4850
      -------------------------------------------------------------
                  HL-Gap            0.0000001 Eh            0.0000 eV
             Fermi-level           -0.4326249 Eh          -11.7723 eV

     #   Z        covCN         q      C6AA      α(0)
     1   6 C      1.836     0.292    24.536     8.002
     2   6 C      0.981    -0.156    41.019    10.757
     3   8 O      0.856    -0.136    17.062     5.538

 Mol. C6AA /au·bohr⁶  :        238.053520
 Mol. C8AA /au·bohr⁸  :       6297.570046
 Mol. α(0) /au        :         24.297558


Wiberg/Mayer (AO) data.
largest (>0.10) Wiberg bond orders for each atom
          total WBO             WBO to atom ...
     1  C   3.546        O    3 2.018    C    2 1.529
     2  C   1.577        C    1 1.529
     3  O   2.066        C    1 2.018

MOs/occ written to file <molden.input>


molecular dipole:
                 x           y           z       tot (Debye)
 q only:       -0.088      -0.001       0.000
   full:       -0.490      -0.004       0.000       1.245
molecular quadrupole (traceless):
                xx          xy          yy          xz          yz          zz
 q only:       -1.608      -0.006       0.804       0.000       0.000       0.804
  q+dip:       -3.138      -0.016       1.569       0.000       0.000       1.569
   full:       -5.357      -0.027       2.679       0.000       0.000       2.679

           -------------------------------------------------
          |                Geometry Summary                 |
           -------------------------------------------------

      molecular mass/u    :       40.0208767
   center of mass at/Å    :       -0.1211083      -0.0002586       0.0000004
  moments of inertia/u·Å² :        0.2809021E-04   0.4234059E+02   0.4234062E+02
rotational constants/cm⁻¹ :        0.6001247E+06   0.3981435E+00   0.3981433E+00

 * 1 selected distances

     #   Z        #   Z                                     value/Å
     1   6 C      3   8 O                                 1.1636462 (max)

 * 1 distinct bonds (by element types)

   Z      Z             #   av. dist./Å        max./Å        min./Å
   6 C    8 O           1     1.1636462     1.1636462     1.1636462

           -------------------------------------------------
          |               Frequency Printout                |
           -------------------------------------------------
 vibrational frequencies (cm-1)
eigval :        0.00     0.00     0.00     0.00     0.00   251.66
eigval :      252.25  1242.30  2105.82
 reduced masses (amu)
   1: 13.67   2: 14.19   3: 13.61   4: 13.75   5: 13.23   6: 12.60   7: 12.60   8: 13.42
   9: 12.99
 IR intensities (amu)
   1:  0.12   2:  0.11   3:  0.10   4:  0.03   5:  0.04   6:  0.86   7:  0.86   8:  0.41
   9:  1.71
 Raman intensities (amu)
   1:  0.00   2:  0.00   3:  0.00   4:  0.00   5:  0.00   6:  0.00   7:  0.00   8:  0.00
   9:  0.00
 output can be read by thermo (or use thermo option).
 writing <g98.out> molden fake output.
 recommended (thermochemical) frequency scaling factor: 1.0
           -------------------------------------------------
          |             Thermodynamic Functions             |
           -------------------------------------------------

cin symmetry found (for desy threshold:  0.10E+00) used in thermo

          ...................................................
          :                      SETUP                      :
          :.................................................:
          :  # frequencies                           4      :
          :  # imaginary freq.                       0      :
          :  linear?                              true      :
          :  only rotor calc.                    false      :
          :  symmetry                              cin      :
          :  rotational number                       1      :
          :  scaling factor                  1.0000000      :
          :  rotor cutoff                   50.0000000 cm⁻¹ :
          :  imag. cutoff                  -20.0000000 cm⁻¹ :
          :.................................................:

    mode    ω/cm⁻¹     T·S(HO)/kcal·mol⁻¹    T·S(FR)/kcal·mol⁻¹   T·S(vib)
   ------------------------------------------------------------------------
       1    251.66    -0.00000 ( 99.84%)     0.01438 (  0.16%)     0.00002
       2    252.25    -0.00000 ( 99.85%)     0.01440 (  0.15%)     0.00002
   ------------------------------------------------------------------------

   temp. (K)  partition function   enthalpy   heat capacity  entropy
                                   cal/mol     cal/K/mol   cal/K/mol   J/K/mol
 298.15  VIB   2.03                  616.220      3.706      3.470
         ROT   520.                  592.502      1.987     14.417
         INT  0.105E+04             1208.721      5.693     17.887
         TR   0.245E+27             1481.254      4.968     36.972
         TOT                        2689.9752    10.6612    54.8586   229.5286

   temp. (K)  partition function   enthalpy   heat capacity  entropy
                                   cal/mol     cal/K/mol   cal/K/mol   J/K/mol
 120.00  VIB   1.11                   73.852      1.955      0.816
         ROT   209.                  238.471      1.987     12.608
         INT   232.                  312.323      3.942     13.424
         TR   0.625E+26              596.178      4.968     32.452
         TOT                         908.5013     8.9100    45.8767   191.9480

   temp. (K)  partition function   enthalpy   heat capacity  entropy
                                   cal/mol     cal/K/mol   cal/K/mol   J/K/mol
 100.00  VIB   1.06                   39.445      1.469      0.504
         ROT   175.                  198.726      1.987     12.246
         INT   184.                  238.171      3.456     12.750
         TR   0.476E+26              496.815      4.968     31.547
         TOT                         734.9855     8.4245    44.2966   185.3370

   temp. (K)  partition function   enthalpy   heat capacity  entropy
                                   cal/mol     cal/K/mol   cal/K/mol   J/K/mol
  80.00  VIB   1.02                   15.681      0.898      0.241
         ROT   140.                  158.981      1.987     11.803
         INT   143.                  174.662      2.885     12.043
         TR   0.340E+26              397.452      4.968     30.439
         TOT                         572.1137     7.8533    42.4820   177.7449

   temp. (K)  partition function   enthalpy   heat capacity  entropy
                                   cal/mol     cal/K/mol   cal/K/mol   J/K/mol
  60.00  VIB   1.00                    3.433      0.347      0.068
         ROT   105.                  119.236      1.987     11.231
         INT   105.                  122.669      2.334     11.299
         TR   0.221E+26              298.089      4.968     29.010
         TOT                         420.7581     7.3020    40.3088   168.6521

   temp. (K)  partition function   enthalpy   heat capacity  entropy
                                   cal/mol     cal/K/mol   cal/K/mol   J/K/mol
  40.00  VIB   1.00                    0.167      0.038      0.004
         ROT   69.8                   79.490      1.987     10.425
         INT   69.8                   79.657      2.025     10.430
         TR   0.120E+26              198.726      4.968     26.997
         TOT                         278.3834     6.9933    37.4264   156.5922

   temp. (K)  partition function   enthalpy   heat capacity  entropy
                                   cal/mol     cal/K/mol   cal/K/mol   J/K/mol
  20.00  VIB   1.00                    0.000      0.000     -0.002
         ROT   34.9                   39.745      1.987      9.048
         INT   34.9                   39.745      1.987      9.045
         TR   0.426E+25               99.363      4.968     23.555
         TOT                         139.1082     6.9554    32.6002   136.3994

   temp. (K)  partition function   enthalpy   heat capacity  entropy
                                   cal/mol     cal/K/mol   cal/K/mol   J/K/mol
  10.00  VIB   1.00                    0.000      0.000     -0.004
         ROT   17.5                   19.873      1.987      7.670
         INT   17.5                   19.873      1.987      7.666
         TR   0.150E+25               49.681      4.968     20.113
         TOT                          69.5541     6.9554    27.7787   116.2259

       T/K    H(0)-H(T)+PV         H(T)/Eh          T*S/Eh         G(T)/Eh
   ------------------------------------------------------------------------
    298.15    0.428675E-02    0.130623E-01    0.260651E-01   -0.130028E-01
    120.00    0.144779E-02    0.102234E-01    0.877310E-02    0.145028E-02
    100.00    0.117127E-02    0.994686E-02    0.705911E-02    0.288774E-02
     80.00    0.911721E-03    0.968730E-02    0.541596E-02    0.427135E-02
     60.00    0.670521E-03    0.944610E-02    0.385417E-02    0.559193E-02
     40.00    0.443632E-03    0.921922E-02    0.238571E-02    0.683350E-02
     20.00    0.221683E-03    0.899727E-02    0.103904E-02    0.795823E-02
     10.00    0.110842E-03    0.888642E-02    0.442681E-03    0.844374E-02 (used)
   ------------------------------------------------------------------------

         :::::::::::::::::::::::::::::::::::::::::::::::::::::
         ::                  THERMODYNAMIC                  ::
         :::::::::::::::::::::::::::::::::::::::::::::::::::::
         :: total free energy          -8.115311251982 Eh   ::
         ::.................................................::
         :: total energy               -8.123754995299 Eh   ::
         :: zero point energy           0.008775582841 Eh   ::
         :: G(RRHO) w/o ZPVE           -0.000331839523 Eh   ::
         :: G(RRHO) contrib.            0.008443743317 Eh   ::
         :::::::::::::::::::::::::::::::::::::::::::::::::::::

optimized geometry written to: xtbopt.xyz


           -------------------------------------------------
          | TOTAL ENERGY               -8.123754995299 Eh   |
          | TOTAL ENTHALPY             -8.114868570945 Eh   |
          | TOTAL FREE ENERGY          -8.115311251982 Eh   |
          | GRADIENT NORM               0.000694188659 Eh/α |
          | HOMO-LUMO GAP               0.000002692829 eV   |
           -------------------------------------------------

------------------------------------------------------------------------
 * finished run on 2020/05/12 at 11:43:50.577     
------------------------------------------------------------------------
 total:
 * wall-time:     0 d,  0 h,  0 min,  0.072 sec
 *  cpu-time:     0 d,  0 h,  0 min,  0.072 sec
 * ratio c/w:     0.998 speedup
 SCF:
 * wall-time:     0 d,  0 h,  0 min,  0.003 sec
 *  cpu-time:     0 d,  0 h,  0 min,  0.003 sec
 * ratio c/w:     1.000 speedup
 ANC optimizer:
 * wall-time:     0 d,  0 h,  0 min,  0.029 sec
 *  cpu-time:     0 d,  0 h,  0 min,  0.029 sec
 * ratio c/w:     0.999 speedup
 numerical hessian:
 * wall-time:     0 d,  0 h,  0 min,  0.023 sec
 *  cpu-time:     0 d,  0 h,  0 min,  0.023 sec
 * ratio c/w:     0.997 speedup

