$hessian                                                                        
        0.3332513822  -0.0771195160  -0.1079420904  -0.0300665825  -0.0162313905
        0.0645453874  -0.1078659688  -0.0169248808   0.0554732794  -0.0526719940
       -0.0061969376   0.0296011490  -0.1426468369   0.1164727249  -0.0416777254
       -0.0771195160   0.1392611746  -0.0483598603  -0.0074630516  -0.0382172191
        0.0905523982  -0.0537471650  -0.0177408066  -0.0139752272   0.0351468514
       -0.0230442357  -0.0772904502   0.1031828811  -0.0602589132   0.0490731395
       -0.1079420904  -0.0483598603   0.2416559138   0.0503714059   0.0981994665
       -0.1909815730   0.0163972930  -0.0329079916   0.0084936921   0.0611597490
       -0.0542753484  -0.0414728947  -0.0199863574   0.0373437338  -0.0176951382
       -0.0300665825  -0.0074630516   0.0503714059   0.1971263152  -0.0964323040
        0.1118019506  -0.1366331325   0.0059614275  -0.1198228031  -0.0110451595
        0.0749635270  -0.0156679778  -0.0193814408   0.0229704011  -0.0266825756
       -0.0162313905  -0.0382172191   0.0981994665  -0.0964323040   0.3264773303
       -0.2095516154   0.0184782937  -0.0164410478   0.0364844095   0.0711763618
       -0.2216593279   0.0249044113   0.0230090390  -0.0501597355   0.0499633281
        0.0645453874   0.0905523982  -0.1909815730   0.1118019506  -0.2095516154
        0.3888055325  -0.1291995387   0.0268247531  -0.1062381094  -0.0204777458
        0.0421871593  -0.0265864043  -0.0266700536   0.0499873048  -0.0649994457
       -0.1078659688  -0.0537471650   0.0163972930  -0.1366331325   0.0184782937
       -0.1291995387   0.2959050148   0.1279956251   0.0795128968  -0.0345037742
       -0.0276455314   0.0171576111  -0.0169021393  -0.0650812225   0.0161317378
       -0.0169248808  -0.0177408066  -0.0329079916   0.0059614275  -0.0164410478
        0.0268247531   0.1279956251   0.2568609903  -0.0431269112  -0.0710026880
       -0.0600739314  -0.0563878565  -0.0460294837  -0.1626052044   0.1055980062
        0.0554732794  -0.0139752272   0.0084936921  -0.1198228031   0.0364844095
       -0.1062381094   0.0795128968  -0.0431269112   0.1613692978  -0.0169624877
       -0.0702717587  -0.0224988105   0.0017991146   0.0908894877  -0.0411260701
       -0.0526719940   0.0351468514   0.0611597490  -0.0110451595   0.0711763618
       -0.0204777458  -0.0345037742  -0.0710026880  -0.0169624877   0.0872447262
       -0.0488672712   0.0259594408   0.0109762015   0.0135467461  -0.0496789563
       -0.0061969376  -0.0230442357  -0.0542753484   0.0749635270  -0.2216593279
        0.0421871593  -0.0276455314  -0.0600739314  -0.0702717587  -0.0488672712
        0.3175669217   0.0959972871   0.0077462132  -0.0127894267  -0.0136373393
        0.0296011490  -0.0772904502  -0.0414728947  -0.0156679778   0.0249044113
       -0.0265864043   0.0171576111  -0.0563878565  -0.0224988105   0.0259594408
        0.0959972871   0.3093321961  -0.0570502230   0.0127766083  -0.2187740865
       -0.1426468369   0.1031828811  -0.0199863574  -0.0193814408   0.0230090390
       -0.0266700536  -0.0169021393  -0.0460294837   0.0017991146   0.0109762015
        0.0077462132  -0.0570502230   0.1679542154  -0.0879086496   0.1019075195
        0.1164727249  -0.0602589132   0.0373437338   0.0229704011  -0.0501597355
        0.0499873048  -0.0650812225  -0.1626052044   0.0908894877   0.0135467461
       -0.0127894267   0.0127766083  -0.0879086496   0.2858132798  -0.1909971345
       -0.0416777254   0.0490731395  -0.0176951382  -0.0266825756   0.0499633281
       -0.0649994457   0.0161317378   0.1055980062  -0.0411260701  -0.0496789563
       -0.0136373393  -0.2187740865   0.1019075195  -0.1909971345   0.3425947405
