 Entering Gaussian System
 *********************************************
 Gaussian 98:
 frequency output generated by the xtb code
 *********************************************
                         Standard orientation:
 --------------------------------------------------------------------
  Center     Atomic     Atomic              Coordinates (Angstroms)
  Number     Number      Type              X           Y           Z
 --------------------------------------------------------------------
    1          6             0        0.854248   -0.153357   -0.501749
    2          7             0        0.331694   -0.621665    0.720876
    3          6             0       -0.781749   -0.610948   -0.143598
    4          6             0       -0.055859    0.733112    0.681498
    5          6             0       -0.348333    0.652858   -0.757026
 --------------------------------------------------------------------
     1 basis functions        1 primitive gaussians
     1 alpha electrons        1 beta electrons

 Harmonic frequencies (cm**-1), IR intensities (KM/Mole),
 Raman scattering activities (A**4/amu), Raman depolarization ratios,
 reduced masses (AMU), force constants (mDyne/A) and normal coordinates:
                      1                      2                      3
                        a                      a                      a 
 Frequencies --   404.6437               405.0740               822.0060
 Red. masses --    12.3668                12.3666                12.3801
 Frc consts  --     0.0000                 0.0000                 0.0000
 IR Inten    --     0.8731                 0.8680                 0.1146
 Raman Activ --     0.0000                 0.0000                 0.0000
 Depolar     --     0.0000                 0.0000                 0.0000
 Atom AN      X      Y      Z        X      Y      Z        X      Y      Z
   1   6     0.18   0.31   0.22     0.19   0.38   0.20     0.38  -0.07  -0.23
   2   7    -0.38  -0.17   0.03     0.11  -0.28  -0.29    -0.14   0.27  -0.31
   3   6     0.08  -0.08  -0.16    -0.32   0.31   0.40    -0.35  -0.27  -0.07
   4   6     0.58   0.16  -0.12    -0.11  -0.06   0.05    -0.03   0.33   0.30
   5   6    -0.43  -0.20   0.03     0.12  -0.32  -0.33     0.15  -0.28   0.33
                      4                      5                      6
                        a                      a                      a 
 Frequencies --   849.5006               849.5902              1039.6556
 Red. masses --    12.4742                12.4741                12.1552
 Frc consts  --     0.0000                 0.0000                 0.0000
 IR Inten    --     0.1580                 0.1565                 1.0431
 Raman Activ --     0.0000                 0.0000                 0.0000
 Depolar     --     0.0000                 0.0000                 0.0000
 Atom AN      X      Y      Z        X      Y      Z        X      Y      Z
   1   6    -0.12   0.31  -0.35     0.12  -0.23   0.32     0.53   0.04  -0.17
   2   7    -0.44  -0.19   0.04     0.11  -0.33  -0.33    -0.10   0.16   0.19
   3   6     0.24  -0.35   0.43     0.07  -0.11   0.17    -0.23   0.07   0.17
   4   6    -0.01   0.08  -0.08    -0.21   0.42  -0.41    -0.06  -0.48  -0.43
   5   6     0.37   0.16  -0.03    -0.09   0.28   0.28    -0.12   0.19   0.22
                      7                      8                      9
                        a                      a                      a 
 Frequencies --  1039.8332              1278.3454              1394.1564
 Red. masses --    12.1549                12.6479                12.5495
 Frc consts  --     0.0000                 0.0000                 0.0000
 IR Inten    --     1.0411                 0.9416                 0.2390
 Raman Activ --     0.0000                 0.0000                 0.0000
 Depolar     --     0.0000                 0.0000                 0.0000
 Atom AN      X      Y      Z        X      Y      Z        X      Y      Z
   1   6    -0.29   0.24   0.31    -0.12   0.23  -0.27    -0.31   0.06   0.18
   2   7     0.23   0.14   0.01     0.19  -0.35   0.40    -0.17   0.32  -0.37
   3   6    -0.49  -0.45  -0.11    -0.13   0.23  -0.27     0.28   0.22   0.05
   4   6     0.26  -0.10  -0.22    -0.12   0.24  -0.26     0.02  -0.27  -0.25
   5   6     0.28   0.16   0.01     0.17  -0.32   0.37     0.19  -0.36   0.41
