[Molden Format]
[Title]
[Atoms] AU
C      1     6 -0.53844196726305E-01  0.10620968405852E-02 -0.52967043956926E-02
N      2     7  0.24835526886194E+01 -0.48989086702269E-01  0.24430961306838E+00
H      3     1 -0.10039413748672E+01 -0.29907698573322E+00  0.18296717301219E+01
H      4     1 -0.70713558110209E+00  0.18352292770015E+01 -0.75956349641090E+00
H      5     1 -0.71863153592374E+00 -0.14882253014066E+01 -0.13091211423837E+01
[GTO]
           1 0
 s           4   1.0000000000000000     
   51.049363095579913      -0.16312063210127389     
   8.7911227406887544      -0.19911024581000730     
  0.70640422258929825       0.31882047753655751     
  0.26922813413411617       0.12706504184240380     
 p           4   1.0000000000000000     
   5.8263656140800002       0.73716451545209605     
   1.5106896018720002       0.68216371614850257     
  0.53256483288000001       0.35783053929253711     
  0.21202323690600003        5.3983030275847881E-002

           2 0
 s           4   1.0000000000000000     
   63.594024466941008      -0.19234388414721629     
   10.951417231523665      -0.23478107924953728     
  0.87999310257376984       0.37593753901700888     
  0.33538715296521110       0.14982889271862770     
 p           4   1.0000000000000000     
   7.2965040481495080       0.97658666315667420     
   1.8918745450712575       0.90372226730345739     
  0.66694432110824120       0.47404958461536373     
  0.26552202674130870        7.1516067715011844E-002

           3 0
 s           3   1.0000000000000000     
   3.3702276975336001       0.27359110588908298     
  0.61389118221497996       0.26460540653860526     
  0.16614291148415999        8.2465947534082318E-002

           4 0
 s           3   1.0000000000000000     
   3.3702276975336001       0.27359110588908298     
  0.61389118221497996       0.26460540653860526     
  0.16614291148415999        8.2465947534082318E-002

           5 0
 s           3   1.0000000000000000     
   3.3702276975336001       0.27359110588908298     
  0.61389118221497996       0.26460540653860526     
  0.16614291148415999        8.2465947534082318E-002

[MO]
Sym=     1a
Ene=  -0.64443541431403972     
Spin= Alpha
Occup=     2.00000000
           1  0.51751587729264503     
           2  0.13088802975482425     
           3  -2.5817991080242641E-003
           4   1.2875603224813060E-002
           5  0.37422565864128043     
           6 -0.21792865330469971     
           7   4.2987807553364213E-003
           8  -2.1437829335029079E-002
           9  0.15398195471563234     
          10  0.15398195347825808     
          11  0.15398196832846048     
Sym=     2a
Ene=  -0.57463010673015802     
Spin= Alpha
Occup=     2.00000000
           1 -0.20360615535972154     
           2  0.43588776713978938     
           3  -8.5979432920446196E-003
           4   4.2878804619295267E-002
           5  0.54921579807756715     
           6  -8.5607585966843230E-002
           7   1.6886472265116807E-003
           8  -8.4213032493368895E-003
           9 -0.21554226425789408     
          10 -0.21554224537043579     
          11 -0.21554238507023421     
Sym=     3a
Ene=  -0.52382642673584223     
Spin= Alpha
Occup=     2.00000000
           1  -3.7480542596118021E-008
           2   2.8026596148096918E-002
           3 -0.42135957806148894     
           4 -0.36939781783319481     
           5   2.9146540740775337E-007
           6   1.6008914803736393E-002
           7 -0.24067954767497507     
           8 -0.21099909412313334     
           9 -0.21862738458212544     
          10 -0.19386481657857627     
          11  0.41249219964640282     
Sym=     4a
Ene=  -0.52382641498363181     
Spin= Alpha
Occup=     2.00000000
           1  -4.5723449365056165E-009
           2  -4.8492637394842483E-002
           3 -0.37029581330585892     
           4  0.41870470503973006     
           5   3.9772385003018707E-008
           6  -2.7698843899955802E-002
           7 -0.21151200041801652     
           8  0.23916303069937775     
           9  0.35008039659322476     
          10 -0.36437707338250253     
          11   1.4296672736716072E-002
Sym=     5a
Ene=  -0.43009486634508032     
Spin= Alpha
Occup=     2.00000000
           1  0.11152953862899956     
           2  0.30314830464378628     
           3  -5.9799681707391342E-003
           4   2.9820841833804668E-002
           5 -0.62834735668347963     
           6 -0.67030152192915449     
           7   1.3222446480004056E-002
           8  -6.5937912208019700E-002
           9  -9.8195836068657477E-002
          10  -9.8195887377596186E-002
          11  -9.8195327837130086E-002
Sym=     6a
Ene=  -0.36415427456428445     
Spin= Alpha
Occup=     1.00000925
           1  -1.5011784500342923E-007
           2   7.6316744424098984E-003
           3 -0.11643354791927002     
           4 -0.10092989213555498     
           5   4.7316570429509275E-007
           6  -4.6419588715861146E-002
           7  0.70819453214113159     
           8  0.61389514706961756     
           9 -0.17240852515864458     
          10 -0.15588931564020178     
          11  0.32829802592051238     
Sym=     7a
Ene=  -0.36415423939606917     
Spin= Alpha
Occup=     0.99999075
           1  -1.7708323368765252E-008
           2  -1.3377428709097415E-002
           3 -0.10117268392086655     
           4  0.11570211263129808     
           5   5.5141264255463445E-008
           6   8.1366711576893000E-002
           7  0.61537210464228476     
           8 -0.70374583210859110     
           9  0.27954567347319464     
          10 -0.28908303082327647     
          11   9.5373758472329789E-003
Sym=     8a
Ene=   0.12379474207021134     
Spin= Alpha
Occup=     0.00000000
           1  -1.0980430753221779     
           2  0.52499186751652926     
           3  -1.0355548215774462E-002
           4   5.1644077037406720E-002
           5  -6.3511304246868669E-002
           6  -7.5980510523978875E-002
           7   1.4987051271671730E-003
           8  -7.4743078412977740E-003
           9  0.60505921174855026     
          10  0.60505919042364920     
          11  0.60505938346835575     
Sym=     9a
Ene=   0.17390061160242748     
Spin= Alpha
Occup=     0.00000000
           1   1.0507094587387219E-007
           2  -4.5294790870910907E-002
           3  0.86163249502218187     
           4  0.63322168154669156     
           5   5.4784261187294036E-008
           6   9.4863428898278885E-003
           7 -0.18045875691546204     
           8 -0.13262082172681219     
           9 -0.42787266026158755     
          10 -0.51196001536750113     
          11  0.93983240529714196     
Sym=    10a
Ene=   0.17390061593067332     
Spin= Alpha
Occup=     0.00000000
           1   1.6158177090615083E-008
           2  -9.6764393812019969E-002
           3 -0.63449198652685634     
           4  0.85643939263617641     
           5  -2.4381863464223463E-008
           6   2.0266202486281776E-002
           7  0.13288685965982755     
           8 -0.17937112373015410     
           9 -0.83819274633837515     
          10  0.78964490093894413     
          11   4.8547861151327192E-002
Sym=    11a
Ene=   0.25695354580416241     
Spin= Alpha
Occup=     0.00000000
           1  0.58082633023273911     
           2  0.94828019451406464     
           3  -1.8705085214842626E-002
           4   9.3283331322880622E-002
           5 -0.65804753874966615     
           6  0.89320700938839337     
           7  -1.7618870572816522E-002
           8   8.7865692494007122E-002
           9   3.4449064553567464E-002
          10   3.4448992634147073E-002
          11   3.4449143533755472E-002
