[Molden Format]
[Title]
[Atoms] AU
C      1     6  0.10441269777204E+01  0.31982964314898E-01 -0.90112888830260E-02
C      2     6 -0.97780918835039E+00  0.10272356668549E+00  0.18417190726626E+01
C      3     6 -0.18967324333517E+01 -0.10154116882642E+01 -0.50026857846652E+00
C      4     6 -0.10350665214826E+01  0.15735327416650E+01 -0.89586392640306E+00
H      5     1  0.28654811654642E+01 -0.69282758440110E+00 -0.43657527891000E+00
[GTO]
           1 0
 s           4   1.0000000000000000     
   51.049363095579913      -0.16312063210127389     
   8.7911227406887544      -0.19911024581000730     
  0.70640422258929825       0.31882047753655751     
  0.26922813413411617       0.12706504184240380     
 p           4   1.0000000000000000     
   5.8263656140800002       0.73716451545209605     
   1.5106896018720002       0.68216371614850257     
  0.53256483288000001       0.35783053929253711     
  0.21202323690600003        5.3983030275847881E-002

           2 0
 s           4   1.0000000000000000     
   51.049363095579913      -0.16312063210127389     
   8.7911227406887544      -0.19911024581000730     
  0.70640422258929825       0.31882047753655751     
  0.26922813413411617       0.12706504184240380     
 p           4   1.0000000000000000     
   5.8263656140800002       0.73716451545209605     
   1.5106896018720002       0.68216371614850257     
  0.53256483288000001       0.35783053929253711     
  0.21202323690600003        5.3983030275847881E-002

           3 0
 s           4   1.0000000000000000     
   51.049363095579913      -0.16312063210127389     
   8.7911227406887544      -0.19911024581000730     
  0.70640422258929825       0.31882047753655751     
  0.26922813413411617       0.12706504184240380     
 p           4   1.0000000000000000     
   5.8263656140800002       0.73716451545209605     
   1.5106896018720002       0.68216371614850257     
  0.53256483288000001       0.35783053929253711     
  0.21202323690600003        5.3983030275847881E-002

           4 0
 s           4   1.0000000000000000     
   51.049363095579913      -0.16312063210127389     
   8.7911227406887544      -0.19911024581000730     
  0.70640422258929825       0.31882047753655751     
  0.26922813413411617       0.12706504184240380     
 p           4   1.0000000000000000     
   5.8263656140800002       0.73716451545209605     
   1.5106896018720002       0.68216371614850257     
  0.53256483288000001       0.35783053929253711     
  0.21202323690600003        5.3983030275847881E-002

           5 0
 s           3   1.0000000000000000     
   3.3702276975336001       0.27359110588908298     
  0.61389118221497996       0.26460540653860526     
  0.16614291148415999        8.2465947534082318E-002

[MO]
Sym=     1a
Ene=  -0.71484336378217839     
Spin= Alpha
Occup=     2.00000000
           1 -0.31359766567798381     
           2  0.16335550513041081     
           3  -2.1126561789557140E-002
           4  -1.5051103593718905E-002
           5 -0.29679274269212819     
           6  -3.0649921025698166E-002
           7   2.1799033658776142E-003
           8  0.14899495778872546     
           9 -0.28911943672589219     
          10  -9.6261942010251053E-002
          11 -0.10058056080173536     
          12  -5.1808723556654009E-002
          13 -0.29688397137780548     
          14  -3.5794819208205778E-002
          15  0.12506168191368278     
          16  -7.9489596770283444E-002
          17  -3.8677023296182077E-002
Sym=     2a
Ene=  -0.60591089163805878     
Spin= Alpha
Occup=     2.00000000
           1  0.49629573222197332     
           2  0.21612956065358249     
           3   6.1785035880891094E-004
           4  -7.6676449716202482E-003
           5  -8.8507599824975969E-002
           6  0.21716115480579035     
           7   1.8107211736559471E-002
           8   4.1351658817713306E-002
           9 -0.27816518018985853     
          10  0.11075355302648980     
          11  -8.0117062221602059E-002
          12  -4.8023699116457978E-002
          13  -8.1082966780213636E-002
          14  0.21740537177916502     
          15   4.7520941104447288E-002
          16  -1.7379629195144203E-002
          17  0.34241429333183837     
Sym=     3a
Ene=  -0.58569205022053628     
Spin= Alpha
Occup=     2.00000000
           1  -3.7117401472092420E-003
           2  -1.0880914134079064E-002
           3  0.18001838733691297     
           4 -0.33083201002117352     
           5 -0.44972004837359036     
           6  -5.9767516696096479E-002
           7  0.15267905052883968     
           8  -5.9637076455257614E-002
           9  -5.6614997892228075E-004
          10  -7.2268573556517760E-003
          11  0.14880113228659755     
          12 -0.27568397199131695     
          13  0.45260954165779838     
          14   5.3150658033877224E-002
          15  -3.2648036509276328E-002
          16 -0.16079702185794700     
          17  -4.6565712558138588E-003
Sym=     4a
Ene=  -0.56747897197813724     
Spin= Alpha
Occup=     2.00000000
           1  -4.1408378521397497E-002
           2  -9.9967934169903364E-002
           3  0.34528027067735639     
           4  0.19004340189790303     
           5  0.20924572262164010     
           6  0.12214561937410034     
           7  0.26861315472729663     
           8   6.2482530557192328E-002
           9 -0.45580129746648368     
          10  -2.9721397087298294E-002
          11  0.11092491967315454     
          12   6.2515780677079080E-002
          13  0.20454708819075829     
          14  0.12441297199184072     
          15  0.20303979949178724     
          16  0.18754886570345400     
          17 -0.19928312755561509     
Sym=     5a
Ene=  -0.50984157881404679     
Spin= Alpha
Occup=     2.00000000
           1  -1.4183144218989584E-003
           2  0.39126101350857395     
           3   4.2762277810580965E-002
           4   1.2693059671286241E-002
           5  0.17721871679073395     
           6 -0.29743012924471451     
           7  0.16074953207674222     
           8   3.9246776287983988E-002
           9   4.4457143559640318E-002
          10 -0.32314190450521130     
          11  0.20965672507113772     
          12  0.11923270676682494     
          13  0.17865526599274462     
          14 -0.29447618195496861     
          15  0.11673974100208198     
          16  0.12138427669487649     
          17  0.35157619045172062     
Sym=     6a
Ene=  -0.45563738492527123     
Spin= Alpha
Occup=     2.00000000
           1   5.2307961680580432E-004
           2  -8.9546039677584430E-003
           3  0.22681132256567679     
           4 -0.41636356651913348     
           5   6.2286209024171799E-002
           6 -0.41955458717302646     
           7 -0.14322994352338619     
           8  -2.5377015961835163E-002
           9   3.2039293221600958E-003
          10   6.0478588319135889E-003
          11 -0.21474113972318068     
          12  0.39534757998217468     
          13  -5.7086335133205150E-002
          14  0.42399748077489047     
          15  0.11045678170139551     
          16   8.1122715269494106E-002
          17  -1.2202012360677228E-003
Sym=     7a
Ene=  -0.42764872383578234     
Spin= Alpha
Occup=     1.98297796
           1  -7.9628234985684138E-002
           2  -7.6446970047957391E-002
           3 -0.29058742596950560     
           4 -0.15538237792616386     
           5  0.34093438018249100     
           6  -8.4579966776915247E-002
           7 -0.23293551137289148     
           8  0.33940442546169181     
           9 -0.37701672492738564     
          10  0.31708574966477093     
          11  0.21602061767879713     
          12  0.10670804265271713     
          13  0.33679030938587123     
          14 -0.10219509895783510     
          15  0.14639688388277372     
          16 -0.37948009562859275     
          17   3.5749357263714039E-002
Sym=     8a
Ene=  -0.41994178683023942     
Spin= Alpha
Occup=     1.01702126
           1   2.9910088998000111E-002
           2   6.2348815949489350E-002
           3  0.23953743124842200     
           4  0.13483384020455275     
           5  0.25575921834313864     
           6  0.14895959715245394     
           7 -0.13700427285210715     
           8  0.34784691109404581     
           9  0.43403387732029769     
          10 -0.29462195668957014     
          11 -0.36666871817936025     
          12 -0.19266754716914342     
          13  0.26247506724603265     
          14  0.12313538053813546     
          15  0.22259776343230442     
          16 -0.31266546100942816     
          17  -2.7464033635154365E-002
Sym=     9a
Ene=  -0.41043137841296828     
Spin= Alpha
Occup=     1.00000078
           1   9.9574258163239934E-004
           2  -4.1658746599943942E-003
           3  0.11643933850953572     
           4 -0.20998637391047348     
           5  0.37840604793397647     
           6 -0.11932887943975534     
           7  0.26350412973087212     
           8  0.44759466374075146     
           9   5.1369401819145672E-003
          10  -1.1186320915010825E-002
          11  0.14276866182551148     
          12 -0.27534692489601192     
          13 -0.37785011283235936     
          14  0.13294096345387535     
          15 -0.51436672796353677     
          16   2.2741967722006484E-002
          17  -7.3635002628468112E-004
Sym=    10a
Ene=  -0.35205148501475841     
Spin= Alpha
Occup=     1.00000000
           1  -8.7278175608317354E-002
           2 -0.12559761622880719     
           3 -0.37070375550428009     
           4 -0.19846527434943506     
           5  0.11375026243317966     
           6 -0.10108150515796491     
           7  0.47283966314828896     
           8   9.7274964974048694E-002
           9  0.14677786087553862     
          10  0.29804938898405081     
          11 -0.43243380894749472     
          12 -0.23688783801564794     
          13  0.11364573453191291     
          14  -9.2572860028292528E-002
          15  0.34131426987464425     
          16  0.34462965523546063     
          17   8.6705977677166993E-002
Sym=    11a
Ene=  -0.17211991006502622     
Spin= Alpha
Occup=     0.00000000
           1 -0.14571728879786655     
           2  0.38381569918021907     
           3  0.59245259624952429     
           4  0.30740455550485490     
           5   1.5019409229833976E-003
           6 -0.27313884338875188     
           7 -0.10297557067320937     
           8  -4.9101554521263260E-002
           9   9.7806913739598655E-002
          10  0.78933849384287702     
          11 -0.18717297702509061     
          12 -0.12018696765824478     
          13   1.6162440457592347E-003
          14 -0.27362069202394462     
          15 -0.10385270754190244     
          16  -4.3903389982908346E-002
          17   3.4298536448927164E-002
Sym=    12a
Ene=  -0.15327109404835465     
Spin= Alpha
Occup=     0.00000000
           1   5.0620024493565677E-004
           2   7.5570005480582354E-003
           3 -0.15405655575119456     
           4  0.29314084351130121     
           5   8.4965379752106884E-002
           6 -0.20780447099601884     
           7  0.69767579458136575     
           8 -0.32444947706027411     
           9   3.4251253276413858E-004
          10   8.9301336263511565E-003
          11 -0.15347399173237511     
          12  0.28239119782696920     
          13  -8.5028772086737675E-002
          14  0.18135603806490944     
          15 -0.11170193494835834     
          16 -0.76790304396909426     
          17  -7.3010189116619187E-004
Sym=    13a
Ene=   -3.5911296403897189E-002
Spin= Alpha
Occup=     0.00000000
           1   7.1814174798984715E-003
           2   1.0712825797812216E-002
           3 -0.30342638996956367     
           4  0.56512696011541275     
           5  -4.4728641833192539E-003
           6 -0.62659661515934562     
           7 -0.22532080599593898     
           8  -9.6853446329332030E-002
           9   2.4975973795432228E-004
          10  -1.2472792650214943E-002
          11  0.31633585381253093     
          12 -0.58670996845441659     
          13   1.1777777038121876E-003
          14  0.62093665787079722     
          15  0.22232801507632166     
          16  0.10963387081715940     
          17  -4.2673175981926548E-003
Sym=    14a
Ene=    4.4028986524568964E-002
Spin= Alpha
Occup=     0.00000000
           1   1.1007946747597654     
           2   3.7029880201120802E-002
           3  -3.8054542213415608E-002
           4  -2.0424113494057320E-002
           5 -0.11186149482214013     
           6 -0.42761290401939916     
           7  -1.2085169613084033E-002
           8  0.11469555741182695     
           9 -0.19240590249525502     
          10 -0.11480150811841951     
          11 -0.16926695169122444     
          12  -7.8059158056922665E-002
          13 -0.10224510567471704     
          14 -0.43853699277584363     
          15   6.9373797094284609E-002
          16  -5.3184841831022713E-002
          17 -0.78427162751768609     
Sym=    15a
Ene=   0.18173382857006770     
Spin= Alpha
Occup=     0.00000000
           1   1.3942516367748048E-002
           2   6.8395775953170122E-003
           3  0.25750950793563820     
           4 -0.49145623271085065     
           5  0.63422460195302621     
           6  0.15214173127699770     
           7  -6.8929809002804016E-002
           8 -0.66025694893693521     
           9   1.7577510020235530E-002
          10  -1.6066266397141411E-003
          11  0.27401170547002979     
          12 -0.47421736728922637     
          13 -0.64670210260570515     
          14 -0.16247884208677951     
          15  0.60819339696357377     
          16 -0.30010988723284432     
          17  -2.3688099155272646E-002
Sym=    16a
Ene=   0.24622555905983595     
Spin= Alpha
Occup=     0.00000000
           1 -0.14525625644350298     
           2 -0.47761532270625756     
           3  0.11884667820494381     
           4   5.8852561368973454E-002
           5  0.29020188911128303     
           6 -0.27978758238508661     
           7 -0.27538460773383333     
           8 -0.38977003972281743     
           9 -0.77849628651440173     
          10 -0.37181525188750170     
          11 -0.67385725656329598     
          12 -0.37233275285284823     
          13  0.25279112350263488     
          14 -0.27780391517985664     
          15 -0.44651472762898209     
          16  -2.0343874690448422E-002
          17  0.48825192993329775     
Sym=    17a
Ene=   0.50896069406788491     
Spin= Alpha
Occup=     0.00000000
           1 -0.19998171388980313     
           2   1.0808728200747839     
           3 -0.43363720674154521     
           4 -0.25052373025011865     
           5  0.48240659929700130     
           6  0.27676165193709906     
           7  -8.8887669352191404E-002
           8 -0.43580589837177969     
           9 -0.22830608395631832     
          10  -5.2015220751523171E-002
          11 -0.25747336993853659     
          12 -0.13680113780693462     
          13  0.49078397026315040     
          14  0.29681674083373027     
          15 -0.41236648478193244     
          16  0.16067020341960483     
          17 -0.76735534813998652     
