$hessian                                                                        
        0.7398775093  -0.2405914068  -0.1425838954  -0.1807397997   0.0012618265
        0.1863872302  -0.0856087429  -0.0364680643  -0.0156751597  -0.1889363345
        0.1577008889  -0.0971123988  -0.2845926322   0.1180967556   0.0689842236
       -0.2405914068   0.1352144497   0.0569208412   0.0859355424  -0.0139903627
       -0.0241242751  -0.0122239314   0.0288805031  -0.0290278958   0.0610526150
       -0.0939183246   0.0157989538   0.1058271809  -0.0561862657  -0.0195676241
       -0.1425838954   0.0569208412   0.0674345418   0.0129722744  -0.0340699761
       -0.0917983588  -0.0018011971  -0.0298424188   0.0679290352   0.0690681874
        0.0269950646  -0.0078169596   0.0623446307  -0.0200035109  -0.0357482586
       -0.1807397997   0.0859355424   0.0129722744   0.0970034599  -0.0123823104
       -0.0387322315  -0.0219441692  -0.0576015131  -0.0065350213   0.1144183553
       -0.0120959165   0.0163520685  -0.0087378463  -0.0038558025   0.0159429099
        0.0012618265  -0.0139903627  -0.0340699761  -0.0123823104   0.0603223224
        0.0720649597   0.0012800693  -0.0555835164  -0.0657461203   0.0074060306
        0.0130520531   0.0331589514   0.0024343840  -0.0038004965  -0.0054078147
        0.1863872302  -0.0241242751  -0.0917983588  -0.0387322315   0.0720649597
        0.3955624479  -0.1172291584  -0.1705831671  -0.2105926520  -0.0275209874
        0.1280845806  -0.0927389397  -0.0029048529  -0.0054420981  -0.0004324975
       -0.0856087429  -0.0122239314  -0.0018011971  -0.0219441692   0.0012800693
       -0.1172291584   0.1336958727   0.1142043378   0.0603358388  -0.0196867424
       -0.0921070076   0.0647514929  -0.0064562182  -0.0111534680  -0.0060569762
       -0.0364680643   0.0288805031  -0.0298424188  -0.0576015131  -0.0555835164
       -0.1705831671   0.1142043378   0.2916069296   0.1119424860  -0.0271927666
       -0.2709737464   0.0816476572   0.0070580062   0.0060698300   0.0068354425
       -0.0156751597  -0.0290278958   0.0679290352  -0.0065350213  -0.0657461203
       -0.2105926520   0.0603358388   0.1119424860   0.1429441153  -0.0420671670
       -0.0246578999   0.0028273767   0.0039415091   0.0074894299  -0.0031078752
       -0.1889363345   0.0610526150   0.0690681874   0.1144183553   0.0074060306
       -0.0275209874  -0.0196867424  -0.0271927666  -0.0420671670   0.1034110490
       -0.0525475267   0.0119602781  -0.0092063274   0.0112816478  -0.0114403112
        0.1577008889  -0.0939183246   0.0269950646  -0.0120959165   0.0130520531
        0.1280845806  -0.0921070076  -0.2709737464  -0.0246578999  -0.0525475267
        0.3579060434  -0.1266175690  -0.0009504381  -0.0060660256  -0.0038041764
       -0.0971123988   0.0157989538  -0.0078169596   0.0163520685   0.0331589514
       -0.0927389397   0.0647514929   0.0816476572   0.0028273767   0.0119602781
       -0.1266175690   0.0951353446   0.0040485593  -0.0039879935   0.0025931780
       -0.2845926322   0.1058271809   0.0623446307  -0.0087378463   0.0024343840
       -0.0029048529  -0.0064562182   0.0070580062   0.0039415091  -0.0092063274
       -0.0009504381   0.0040485593   0.3089930241  -0.1143691329  -0.0674298461
        0.1180967556  -0.0561862657  -0.0200035109  -0.0038558025  -0.0038004965
       -0.0054420981  -0.0111534680   0.0060698300   0.0074894299   0.0112816478
       -0.0060660256  -0.0039879935  -0.1143691329   0.0599829577   0.0219441727
        0.0689842236  -0.0195676241  -0.0357482586   0.0159429099  -0.0054078147
       -0.0004324975  -0.0060569762   0.0068354425  -0.0031078752  -0.0114403112
       -0.0038041764   0.0025931780  -0.0674298461   0.0219441727   0.0366954534
