5
 energy: -7.914456340274 gnorm: 0.000626625605 xtb: 6.2.2 (9d81278992624c895f80dd42a50cac0aa55982e2)
C        -0.37970763710243    0.13178368103848    0.01771338891872
N         0.88312046692879    0.31890156125984    0.07265742925116
C        -1.05636300343832   -1.04682751971794   -0.21541673618426
H        -0.99644042364942    1.02568987476931    0.17743322509424
H         1.54939059726138   -0.42954759734968   -0.05238730707986
