$hessian                                                                        
        0.3831123505   0.1896029874   0.0228814122  -0.0194053576  -0.0529649317
       -0.0011098375  -0.3637069929  -0.1366380557  -0.0217715747
        0.1896029874   0.4504437251   0.0109198447  -0.0767183572  -0.3979853171
       -0.0041739388  -0.1128846303  -0.0524584081  -0.0067459059
        0.0228814122   0.0109198447   0.0013670521  -0.0010829136  -0.0027419391
       -0.0000621766  -0.0217984986  -0.0081779056  -0.0013048755
       -0.0194053576  -0.0767183572  -0.0010829136   0.2554097732  -0.1311363801
        0.0155462809  -0.2360044156   0.2078547373  -0.0144633672
       -0.0529649317  -0.3979853171  -0.0027419391  -0.1311363801   0.5666581761
       -0.0085479844   0.1841013119  -0.1686728591   0.0112899235
       -0.0011098375  -0.0041739388  -0.0000621766   0.0155462809  -0.0085479844
        0.0009469125  -0.0144364433   0.0127219232  -0.0008847358
       -0.3637069929  -0.1128846303  -0.0217984986  -0.2360044156   0.1841013119
       -0.0144364433   0.5997114085  -0.0712166816   0.0362349419
       -0.1366380557  -0.0524584081  -0.0081779056   0.2078547373  -0.1686728591
        0.0127219232  -0.0712166816   0.2211312671  -0.0045440177
       -0.0217715747  -0.0067459059  -0.0013048755  -0.0144633672   0.0112899235
       -0.0008847358   0.0362349419  -0.0045440177   0.0021896113
