 Entering Gaussian System
 *********************************************
 Gaussian 98:
 frequency output generated by the xtb code
 *********************************************
                         Standard orientation:
 --------------------------------------------------------------------
  Center     Atomic     Atomic              Coordinates (Angstroms)
  Number     Number      Type              X           Y           Z
 --------------------------------------------------------------------
    1          8             0       -0.494472   -0.588814   -0.029142
    2          7             0       -0.281693    0.740194   -0.017821
    3          7             0        0.776166   -0.151380    0.046964
 --------------------------------------------------------------------
     1 basis functions        1 primitive gaussians
     1 alpha electrons        1 beta electrons

 Harmonic frequencies (cm**-1), IR intensities (KM/Mole),
 Raman scattering activities (A**4/amu), Raman depolarization ratios,
 reduced masses (AMU), force constants (mDyne/A) and normal coordinates:
                      1                      2                      3
                        a                      a                      a 
 Frequencies --  1067.5250              1082.5319              1474.0606
 Red. masses --    14.7302                14.6378                14.5515
 Frc consts  --     0.0000                 0.0000                 0.0000
 IR Inten    --     0.4919                 0.0555                 0.5348
 Raman Activ --     0.0000                 0.0000                 0.0000
 Depolar     --     0.0000                 0.0000                 0.0000
 Atom AN      X      Y      Z        X      Y      Z        X      Y      Z
   1   8     0.39   0.46   0.02    -0.43   0.36  -0.03    -0.34  -0.40  -0.02
   2   7    -0.56   0.05  -0.03    -0.09  -0.58  -0.00    -0.23   0.56  -0.01
   3   7     0.15  -0.54   0.01     0.55   0.19   0.03     0.59  -0.13   0.04
