[Molden Format]
[Title]
[Atoms] AU
O      1     8 -0.93441732482304E+00 -0.11126961978319E+01 -0.55070505266100E-01
N      2     7 -0.53232261989294E+00  0.13987630521886E+01 -0.33676487806340E-01
N      3     7  0.14667418344485E+01 -0.28606685436326E+00  0.88748882791793E-01
[GTO]
           1 0
 s           4   1.0000000000000000     
   69.137961906196551      -0.20478756370077797     
   11.906129132707308      -0.24997023136827334     
  0.95670827744340703       0.40025880240639616     
  0.36462520496073686       0.15952206667693555     
 p           4   1.0000000000000000     
   8.2124193257781641        1.1321556799186829     
   2.1293576997098116        1.0476840782254817     
  0.75066448202360914       0.54956508217158984     
  0.29885246543283073        8.2908486592766617E-002

           2 0
 s           4   1.0000000000000000     
   63.594024466941008      -0.19234388414721629     
   10.951417231523665      -0.23478107924953728     
  0.87999310257376984       0.37593753901700888     
  0.33538715296521110       0.14982889271862770     
 p           4   1.0000000000000000     
   7.2965040481495080       0.97658666315667420     
   1.8918745450712575       0.90372226730345739     
  0.66694432110824120       0.47404958461536373     
  0.26552202674130870        7.1516067715011844E-002

           3 0
 s           4   1.0000000000000000     
   63.594024466941008      -0.19234388414721629     
   10.951417231523665      -0.23478107924953728     
  0.87999310257376984       0.37593753901700888     
  0.33538715296521110       0.14982889271862770     
 p           4   1.0000000000000000     
   7.2965040481495080       0.97658666315667420     
   1.8918745450712575       0.90372226730345739     
  0.66694432110824120       0.47404958461536373     
  0.26552202674130870        7.1516067715011844E-002

[MO]
Sym=     1a
Ene=  -0.86238361105262806     
Spin= Alpha
Occup=     2.00000000
           1 -0.53840553912961264     
           2 -0.16301741269148168     
           3 -0.19411951866849025     
           4  -9.6076140167814430E-003
           5 -0.22972945799246308     
           6  -3.1718839998667286E-002
           7  0.23044447586245390     
           8  -2.1733989073183155E-003
           9 -0.22972949647426213     
          10  0.23206461035637657     
          11   8.1254099797909759E-003
          12   1.3981050408010591E-002
Sym=     2a
Ene=  -0.73165726918144713     
Spin= Alpha
Occup=     2.00000000
           1 -0.70237867697328282     
           2  0.27409891857811375     
           3  0.32639495221343873     
           4   1.6154447867496046E-002
           5  0.26725049918213534     
           6  0.20483607795194717     
           7  -2.6827007278854599E-002
           8   1.2379188252659712E-002
           9  0.26725023204001713     
          10  -6.1434398503303261E-002
          11  0.19758848231551429     
          12  -3.9275698045326901E-003
Sym=     3a
Ene=  -0.71294722939126431     
Spin= Alpha
Occup=     2.00000000
           1   3.6730639787190028E-007
           2 -0.51539964887118317     
           3  0.43438332174252975     
           4  -3.1563767740705830E-002
           5  0.32202472357511358     
           6 -0.20918799463409835     
           7 -0.12209504201542282     
           8  -1.2472727150048185E-002
           9 -0.32202493884812533     
          10   8.4282334201545683E-002
          11  0.22736651414167933     
          12   4.8233271515371904E-003
Sym=     4a
Ene=  -0.67371670031244313     
Spin= Alpha
Occup=     2.00000000
           1  -7.6373648059612485E-008
           2   4.3088285515046371E-002
           3  -8.1010867133593566E-004
           4 -0.71473036636817378     
           5   8.8680806238373117E-009
           6   2.3072139346076055E-002
           7  -4.3378531088206955E-004
           8 -0.38271082396576034     
           9   1.1965437302880546E-008
          10   2.3072113044802250E-002
          11  -4.3377293972463775E-004
          12 -0.38271083160266911     
Sym=     5a
Ene=  -0.58888866785318295     
Spin= Alpha
Occup=     2.00000000
           1  0.25833459342153908     
           2 -0.33514570671733124     
           3 -0.39908840034409032     
           4  -1.9752264366735280E-002
           5  0.24187772472890956     
           6  0.42151129883488719     
           7  0.22624414337326199     
           8   2.5154812528233168E-002
           9  0.24187772959768525     
          10  0.15037873849947161     
          11  0.45475717194349313     
          12   8.5502944326995897E-003
Sym=     6a
Ene=  -0.53602089036063716     
Spin= Alpha
Occup=     2.00000000
           1   2.6726907654204929E-008
           2 -0.27704418346120219     
           3  0.23349538474539849     
           4  -1.6966566287852092E-002
           5 -0.55007210202262502     
           6   1.0530824582968831E-002
           7 -0.39448566247499939     
           8   1.0819831832200040E-003
           9  0.55007202590936266     
          10  0.38976976584065415     
          11   5.7108630650907773E-002
          12   2.3432966534868985E-002
Sym=     7a
Ene=  -0.50473040647562073     
Spin= Alpha
Occup=     2.00000000
           1  -8.4747173313699069E-003
           2  -2.4592807927218557E-002
           3  -2.9284847926879767E-002
           4  -1.4494457642873814E-003
           5  0.48243587349429651     
           6 -0.41705186979873099     
           7  0.32932105371979831     
           8  -2.5515669736222501E-002
           9  0.48243593298966764     
          10  0.39524419817030454     
          11 -0.35528947003248457     
          12   2.4230444304426092E-002
Sym=     8a
Ene=  -0.45023790945170034     
Spin= Alpha
Occup=     1.00000000
           1  -1.7589582516575030E-008
           2   4.3488364701088716E-002
           3  -8.1763780769226308E-004
           4 -0.72136698379523734     
           5  -1.7883759992523683E-008
           6  -3.3352335106332939E-002
           7   6.2706669274864883E-004
           8  0.55323508403589317     
           9  -3.2157934407357058E-008
          10  -3.3352359382232410E-002
          11   6.2708332396427626E-004
          12  0.55323495798613864     
Sym=     9a
Ene=  -0.40198326746570207     
Spin= Alpha
Occup=     1.00000000
           1  -2.4166327093304645E-010
           2   1.1600194890213116E-008
           3  -6.7142727753639788E-009
           4  -6.1834935761065271E-008
           5   8.2904219191381310E-009
           6   4.5867436006498306E-002
           7  -8.6237458420140736E-004
           8 -0.76083021981667043     
           9  -2.1824529394261955E-008
          10  -4.5867456273827156E-002
          11   8.6238606216921892E-004
          12  0.76083030628271731     
Sym=    10a
Ene=  -0.19468382428429173     
Spin= Alpha
Occup=     0.00000000
           1   1.1480048022807161E-008
           2 -0.49612419311658817     
           3  0.41813803013922807     
           4  -3.0383305656479707E-002
           5  -8.5370779453461665E-003
           6  0.69193798491891267     
           7  0.29323698922980479     
           8   4.1381814673797021E-002
           9   8.5370826423300725E-003
          10 -0.16999034364074483     
          11 -0.73313925022527882     
          12  -9.4170484178489940E-003
Sym=    11a
Ene=   -1.8636615081973767E-002
Spin= Alpha
Occup=     0.00000000
           1  0.65413694780944820     
           2  0.56164588442547647     
           3  0.66880274958147157     
           4   3.3101334330353609E-002
           5 -0.32308714431231988     
           6  0.17438667410247521     
           7  0.58903207233351840     
           8   9.8454267713536121E-003
           9 -0.32308702952664575     
          10  0.54945935892336795     
          11  0.27291731437485323     
          12   3.2815378749048787E-002
Sym=    12a
Ene=    2.6147379403074659E-002
Spin= Alpha
Occup=     0.00000000
           1   6.9113626132554091E-008
           2  0.29582223695952187     
           3 -0.24932157418831197     
           4   1.8116547790058897E-002
           5  0.57734905313081752     
           6  0.46520475344278506     
           7 -0.68838096176136998     
           8   2.8825607662758788E-002
           9 -0.57734912795196247     
          10  0.75661137351695618     
          11 -0.34137675418798547     
          12   4.6000037846057461E-002
