3
 energy: -9.620116910734 gnorm: 0.143011281393 xtb: 6.2.2 (9d81278992624c895f80dd42a50cac0aa55982e2)
O        -0.48376700000000   -0.57607200000000   -0.02851400000000
N        -0.25885000000000    0.71005500000000   -0.01640900000000
N         0.74261800000000   -0.13398300000000    0.04492400000000
3
 energy: -9.626349651774 gnorm: 0.044246229068 xtb: 6.2.2 (9d81278992624c895f80dd42a50cac0aa55982e2)
O        -0.49083462545532   -0.58448805947706   -0.02893058182935
N        -0.27354600874637    0.72962706766679   -0.01731715969741
N         0.76438163420169   -0.14513900818973    0.04624874152676
3
 energy: -9.627116713918 gnorm: 0.006958400924 xtb: 6.2.2 (9d81278992624c895f80dd42a50cac0aa55982e2)
O        -0.49413317150453   -0.58841592530580   -0.02912500560592
N        -0.27994899857617    0.73837741369881   -0.01771309326369
N         0.77408317008070   -0.14996148839301    0.04683909886961
3
 energy: -9.627138625753 gnorm: 0.000746824192 xtb: 6.2.2 (9d81278992624c895f80dd42a50cac0aa55982e2)
O        -0.49457801044939   -0.58894562440489   -0.02915122543163
N        -0.28135856153420    0.74001768710276   -0.01779993099229
N         0.77593757198359   -0.15107206269788    0.04695215642392
3
 energy: -9.627138998266 gnorm: 0.000350623096 xtb: 6.2.2 (9d81278992624c895f80dd42a50cac0aa55982e2)
O        -0.49446921489121   -0.58881606335809   -0.02914481278482
N        -0.28169683886358    0.74019215549884   -0.01782052297236
N         0.77616705375479   -0.15137609214074    0.04696633575719
