 Entering Gaussian System
 *********************************************
 Gaussian 98:
 frequency output generated by the xtb code
 *********************************************
                         Standard orientation:
 --------------------------------------------------------------------
  Center     Atomic     Atomic              Coordinates (Angstroms)
  Number     Number      Type              X           Y           Z
 --------------------------------------------------------------------
    1          8             0        1.186565   -0.123004    0.017900
    2          6             0        0.000838   -0.000087    0.000067
    3          1             0       -0.498163    0.983814   -0.004445
    4          1             0       -0.689239   -0.860723   -0.013522
 --------------------------------------------------------------------
     1 basis functions        1 primitive gaussians
     1 alpha electrons        1 beta electrons

 Harmonic frequencies (cm**-1), IR intensities (KM/Mole),
 Raman scattering activities (A**4/amu), Raman depolarization ratios,
 reduced masses (AMU), force constants (mDyne/A) and normal coordinates:
                      1                      2                      3
                        a                      a                      a 
 Frequencies --  1085.6873              1202.9152              1489.5436
 Red. masses --     4.2971                 4.5035                 1.8413
 Frc consts  --     0.0000                 0.0000                 0.0000
 IR Inten    --     0.0762                 0.5504                 0.1131
 Raman Activ --     0.0000                 0.0000                 0.0000
 Depolar     --     0.0000                 0.0000                 0.0000
 Atom AN      X      Y      Z        X      Y      Z        X      Y      Z
   1   8    -0.00  -0.00   0.15    -0.03  -0.27  -0.00     0.22  -0.02   0.00
   2   6     0.01   0.00  -0.52     0.05   0.46   0.00     0.08  -0.01   0.00
   3   1    -0.01  -0.00   0.60    -0.56  -0.20  -0.01    -0.62  -0.30  -0.01
   4   1    -0.01  -0.00   0.60     0.51  -0.31   0.01    -0.55   0.42  -0.01
                      4                      5                      6
                        a                      a                      a 
 Frequencies --  1805.3286              2791.5186              2837.5611
 Red. masses --    13.4221                 2.0295                 1.3652
 Frc consts  --     0.0000                 0.0000                 0.0000
 IR Inten    --     1.5044                 0.5296                 0.4002
 Raman Activ --     0.0000                 0.0000                 0.0000
 Depolar     --     0.0000                 0.0000                 0.0000
 Atom AN      X      Y      Z        X      Y      Z        X      Y      Z
   1   8    -0.64   0.07  -0.01    -0.00  -0.01  -0.00    -0.02   0.00  -0.00
   2   6     0.75  -0.08   0.01    -0.03  -0.30  -0.00    -0.18   0.02  -0.00
   3   1    -0.02  -0.10  -0.00    -0.33   0.59  -0.00     0.29  -0.63   0.00
   4   1     0.00   0.11   0.00     0.44   0.51   0.01     0.41   0.56   0.01
