$hessian                                                                        
        0.8820802250  -0.0845567510   0.0130514691  -0.7816718392   0.0726412072
       -0.0110541493  -0.0440276061   0.0275573968  -0.0008318585  -0.0563807798
       -0.0156418529  -0.0011654612
       -0.0845567510   0.0754511936  -0.0011041914   0.0726960941  -0.0882452302
        0.0009856686   0.0436333878   0.0001753908   0.0006177830  -0.0317727308
        0.0126186458  -0.0004992602
        0.0130514691  -0.0011041914   0.0162308588  -0.0110444613   0.0009839092
       -0.0481771284  -0.0007827321   0.0003744489   0.0159775730  -0.0012242757
       -0.0002541667   0.0159686966
       -0.7816718392   0.0726960941  -0.0110444613   0.9499159284  -0.0497630021
        0.0122648049  -0.0692232283   0.0584566843  -0.0001459520  -0.0990208610
       -0.0813897762  -0.0010743916
        0.0726412072  -0.0882452302   0.0009839092  -0.0497630021   0.4747396765
        0.0003318452   0.0604789546  -0.2080824612   0.0004219436  -0.0833571597
       -0.1784119851  -0.0017376980
       -0.0110541493   0.0009856686  -0.0481771284   0.0122648049   0.0003318452
        0.1439504197  -0.0001359772   0.0003765194  -0.0478758685  -0.0010746784
       -0.0016940332  -0.0478974228
       -0.0440276061   0.0436333878  -0.0007827321  -0.0692232283   0.0604789546
       -0.0001359772   0.1074350767  -0.0914339387   0.0011154251   0.0058157577
       -0.0126784038  -0.0001967157
        0.0275573968   0.0001753908   0.0003744489   0.0584566843  -0.2080824612
        0.0003765194  -0.0914339387   0.2368178998  -0.0006900902   0.0054198576
       -0.0289108294  -0.0000608781
       -0.0008318585   0.0006177830   0.0159775730  -0.0001459520   0.0004219436
       -0.0478758685   0.0011154251  -0.0006900902   0.0159582659  -0.0001376146
       -0.0003496364   0.0159400297
       -0.0563807798  -0.0317727308  -0.0012242757  -0.0990208610  -0.0833571597
       -0.0010746784   0.0058157577   0.0054198576  -0.0001376146   0.1495858831
        0.1097100330   0.0024365686
       -0.0156418529   0.0126186458  -0.0002541667  -0.0813897762  -0.1784119851
       -0.0016940332  -0.0126784038  -0.0289108294  -0.0003496364   0.1097100330
        0.1947041686   0.0022978363
       -0.0011654612  -0.0004992602   0.0159686966  -0.0010743916  -0.0017376980
       -0.0478974228  -0.0001967157  -0.0000608781   0.0159400297   0.0024365686
        0.0022978363   0.0159886965
