[Molden Format]
[Title]
[Atoms] AU
O      1     8  0.22422818755492E+01 -0.23244435970141E+00  0.33825616887800E-01
C      2     6  0.15830814215411E-02 -0.16461312117422E-03  0.12642312794695E-03
H      3     1 -0.94139233482959E+00  0.18591388058696E+01 -0.84007339626581E-02
H      4     1 -0.13024726221478E+01 -0.16265298330503E+01 -0.25553195779039E-01
[GTO]
           1 0
 s           4   1.0000000000000000     
   69.137961906196551      -0.20478756370077797     
   11.906129132707308      -0.24997023136827334     
  0.95670827744340703       0.40025880240639616     
  0.36462520496073686       0.15952206667693555     
 p           4   1.0000000000000000     
   8.2124193257781641        1.1321556799186829     
   2.1293576997098116        1.0476840782254817     
  0.75066448202360914       0.54956508217158984     
  0.29885246543283073        8.2908486592766617E-002

           2 0
 s           4   1.0000000000000000     
   51.049363095579913      -0.16312063210127389     
   8.7911227406887544      -0.19911024581000730     
  0.70640422258929825       0.31882047753655751     
  0.26922813413411617       0.12706504184240380     
 p           4   1.0000000000000000     
   5.8263656140800002       0.73716451545209605     
   1.5106896018720002       0.68216371614850257     
  0.53256483288000001       0.35783053929253711     
  0.21202323690600003        5.3983030275847881E-002

           3 0
 s           3   1.0000000000000000     
   3.3702276975336001       0.27359110588908298     
  0.61389118221497996       0.26460540653860526     
  0.16614291148415999        8.2465947534082318E-002

           4 0
 s           3   1.0000000000000000     
   3.3702276975336001       0.27359110588908298     
  0.61389118221497996       0.26460540653860526     
  0.16614291148415999        8.2465947534082318E-002

[MO]
Sym=     1a
Ene=  -0.73923474027337199     
Spin= Alpha
Occup=     2.00000000
           1 -0.64587541005878890     
           2  0.20695704279883975     
           3  -2.1453988990727486E-002
           4   3.1105186422239542E-003
           5 -0.34934867744253983     
           6 -0.23503734017264194     
           7   2.4364896020422518E-002
           8  -3.5338779837627275E-003
           9  -3.0841596037229666E-002
          10  -3.0841593821931631E-002
Sym=     2a
Ene=  -0.63462519417467811     
Spin= Alpha
Occup=     2.00000000
           1  0.51073542746226985     
           2  0.38912429279681465     
           3  -4.0338269690172839E-002
           4   5.8722286919922683E-003
           5 -0.46336164789729856     
           6  0.18326621095302373     
           7  -1.8998228071430777E-002
           8   2.7798930073492088E-003
           9 -0.21694935107235519     
          10 -0.21694933696661539     
Sym=     3a
Ene=  -0.58567863911785134     
Spin= Alpha
Occup=     2.00000000
           1   1.0122816251163526E-008
           2   5.6462519899410125E-002
           3  0.54505758773006296     
           4   2.6821526461143210E-003
           5  -9.2507837681452996E-009
           6   5.3306201853987573E-002
           7  0.51458856178129531     
           8   2.5322174234629537E-003
           9  0.23963946036111269     
          10 -0.23963944889343428     
Sym=     4a
Ene=  -0.55798372699551924     
Spin= Alpha
Occup=     2.00000000
           1  -1.0665946749946385E-004
           2  -1.1334478170243606E-002
           3  -2.4021122293322763E-003
           4  0.72675368023336373     
           5   1.0698187820008983E-005
           6  -8.2647505824019404E-003
           7  -1.8119737050531532E-003
           8  0.54220597912316337     
           9  -6.1772747611505639E-005
          10  -6.1769573325075414E-005
Sym=     5a
Ene=  -0.54370618343888577     
Spin= Alpha
Occup=     2.00000000
           1  0.37956386416747778     
           2  0.60255559276659476     
           3  -6.2464255409104559E-002
           4   9.2506913203895310E-003
           5  0.11392218539731803     
           6 -0.42547149921319849     
           7   4.4105490978496434E-002
           8  -6.2847954190986257E-003
           9  0.25888366796247669     
          10  0.25888367033282195     
Sym=     6a
Ene=  -0.42388325058259380     
Spin= Alpha
Occup=     2.00000000
           1   4.1062246598880717E-009
           2  -8.3468919177485681E-002
           3 -0.80576254589000273     
           4  -3.9650391089004287E-003
           5  -6.8698524005169612E-009
           6   2.8314986761903877E-002
           7  0.27333706858695833     
           8   1.3450527624192668E-003
           9  0.39401213711707739     
          10 -0.39401213876903474     
Sym=     7a
Ene=  -0.29087737875406688     
Spin= Alpha
Occup=     0.00000000
           1  -9.7190864944228009E-006
           2  -1.1168687468055584E-002
           3  -2.4087354066726933E-003
           4  0.72460989797955133     
           5  -8.4216992601059745E-005
           6   1.3465902332790007E-002
           7   2.8928408471174372E-003
           8 -0.87134756656978640     
           9   4.0991802790066365E-005
          10   4.0990992969122310E-005
Sym=     8a
Ene=    8.3953203439999319E-002
Spin= Alpha
Occup=     0.00000000
           1  -1.3505647387593824E-002
           2  0.19124693483484417     
           3  -1.9825659498206933E-002
           4   2.9232219655928398E-003
           5   1.0315100726944340     
           6 -0.50062478717016945     
           7   5.1897473804080121E-002
           8  -7.6686482341645499E-003
           9 -0.76869578980064224     
          10 -0.76869574799190843     
Sym=     9a
Ene=   0.21793603762310601     
Spin= Alpha
Occup=     0.00000000
           1   3.0659248975514978E-009
           2   3.3142400326666953E-002
           3  0.31993832647786091     
           4   1.5743693191135159E-003
           5   2.4693590262137491E-008
           6 -0.11406609872453416     
           7  -1.1011305847593185     
           8  -5.4185016846244752E-003
           9  0.81948687966682643     
          10 -0.81948692676946966     
Sym=    10a
Ene=   0.58174085432176004     
Spin= Alpha
Occup=     0.00000000
           1  0.82968852170994456     
           2 -0.91817847723793466     
           3   9.5182010057177927E-002
           4  -1.3805098714627876E-002
           5 -0.64062908292896292     
           6  -1.1111828114923488     
           7  0.11518973577878545     
           8  -1.6732336197974016E-002
           9 -0.15329455057113908     
          10 -0.15329453906266111     
