4
 energy: -7.106624620238 gnorm: 0.239281052261 xtb: 6.2.2 (9d81278992624c895f80dd42a50cac0aa55982e2)
O         1.24854400000000   -0.12893400000000   -0.08041900000000
C        -0.08657000000000    0.00751000000000    0.29595300000000
H        -0.48765900000000    0.96169500000000   -0.10333200000000
H        -0.67431500000000   -0.84027100000000   -0.11220300000000
4
 energy: -7.160208050622 gnorm: 0.151453170308 xtb: 6.2.2 (9d81278992624c895f80dd42a50cac0aa55982e2)
O         1.21931935696432   -0.12619766415099   -0.02136826583019
C        -0.04918923870376    0.00457169166067    0.10634984135160
H        -0.48514578161381    1.02542856009191   -0.03774250092976
H        -0.68498433664675   -0.90380258760159   -0.04724007459165
4
 energy: -7.151495137839 gnorm: 0.359107740467 xtb: 6.2.2 (9d81278992624c895f80dd42a50cac0aa55982e2)
O         1.10774364393699   -0.11482340898109    0.01589401818182
C         0.02952502210355   -0.00318904520723    0.02656826042479
H        -0.47332789703962    0.97908766200694   -0.01670209004531
H        -0.66394076900091   -0.86107520781861   -0.02576118856130
4
 energy: -7.174685149954 gnorm: 0.044378792346 xtb: 6.2.2 (9d81278992624c895f80dd42a50cac0aa55982e2)
O         1.20357474513308   -0.12474758818513    0.01538481722227
C        -0.00295696358591    0.00027074121115    0.00722991820177
H        -0.50331622346429    0.99859937467207   -0.00669819237591
H        -0.69730155808288   -0.87412252769808   -0.01591754304814
4
 energy: -7.175525610240 gnorm: 0.015442771457 xtb: 6.2.2 (9d81278992624c895f80dd42a50cac0aa55982e2)
O         1.19196322928475   -0.12354401416875    0.01521396793327
C        -0.00055629988974    0.00001247037060    0.00918012067559
H        -0.49993851824475    0.98627477995897   -0.00764621529039
H        -0.69146841115026   -0.86274323616082   -0.01674887331847
4
 energy: -7.175640681275 gnorm: 0.004267811980 xtb: 6.2.2 (9d81278992624c895f80dd42a50cac0aa55982e2)
O         1.18668058242334   -0.12301313918943    0.01853454604511
C         0.00273837273839   -0.00028015783726   -0.00070919175568
H        -0.49916381494901    0.98403858459465   -0.00437228049228
H        -0.69025514021272   -0.86074528756795   -0.01345407379715
4
 energy: -7.175647470288 gnorm: 0.000930432690 xtb: 6.2.2 (9d81278992624c895f80dd42a50cac0aa55982e2)
O         1.18628340517237   -0.12296789918302    0.01770061225009
C         0.00101581063584   -0.00010988756713    0.00094813765844
H        -0.49810800821293    0.98389168276212   -0.00478417108816
H        -0.68919120759528   -0.86081389601197   -0.01386557882037
4
 energy: -7.175648049749 gnorm: 0.000295354782 xtb: 6.2.2 (9d81278992624c895f80dd42a50cac0aa55982e2)
O         1.18656516059426   -0.12299808777795    0.01790367448424
C         0.00083773091157   -0.00008710525084    0.00006690301665
H        -0.49816855204057    0.98381137861909   -0.00444549924190
H        -0.68923433946526   -0.86072618559030   -0.01352607825900
