$hessian                                                                        
        0.6805151501   0.0771849031   0.0592878420  -0.2145349579   0.1047095312
       -0.0641364519  -0.0689499440   0.0078599718   0.0067865938  -0.2133790001
       -0.0429638615   0.1167871512  -0.1836512480  -0.1467905446  -0.1187251352
        0.0771849031   0.1900048980   0.0885858392   0.0245270017  -0.0573299543
       -0.0107851266   0.0099102045   0.0130699212   0.0136608154   0.0118513464
       -0.0088415160  -0.0166878994  -0.1234734558  -0.1369033490  -0.0747736286
        0.0592878420   0.0885858392   0.1523812100   0.0083868366  -0.0072303873
       -0.0028478437   0.0084480372   0.0136624444   0.0072988535   0.0235196363
       -0.0204161679  -0.0524808324  -0.0996423522  -0.0746017283  -0.1043513873
       -0.2145349579   0.0245270017   0.0083868366   0.2920890563  -0.0068236322
       -0.0383561335  -0.2535140238  -0.0025015663   0.0457283906   0.1967137099
       -0.0242885661  -0.0108175572  -0.0207537844   0.0090867629  -0.0049415366
        0.1047095312  -0.0573299543  -0.0072303873  -0.0068236322   0.1823425491
       -0.1634204352  -0.0760264515  -0.0159299621   0.0009887013  -0.0123816439
       -0.1205337841   0.1805922757  -0.0094778036   0.0114511515  -0.0109301546
       -0.0641364519  -0.0107851266  -0.0028478437  -0.0383561335  -0.1634204352
        0.2428429315   0.1352876897  -0.0107433881  -0.0390899669  -0.0254101875
        0.1765348866  -0.1941200019  -0.0073849168   0.0084140633  -0.0067851189
       -0.0689499440   0.0099102045   0.0084480372  -0.2535140238  -0.0760264515
        0.1352876897   0.5793506846  -0.0511203874  -0.0447884768  -0.2552699580
        0.1157960480  -0.1001473288  -0.0016167587   0.0014405864   0.0012000786
        0.0078599718   0.0130699212   0.0136624444  -0.0025015663  -0.0159299621
       -0.0107433881  -0.0511203874   0.0399457468  -0.0066964893   0.0430585689
       -0.0391523610   0.0050931192   0.0027034130   0.0020666551  -0.0013156861
        0.0067865938   0.0136608154   0.0072988535   0.0457283906   0.0009887013
       -0.0390899669  -0.0447884768  -0.0066964893   0.0433480377  -0.0099679942
       -0.0066452485  -0.0141420302   0.0022414866  -0.0013077789   0.0025851060
       -0.2133790001   0.0118513464   0.0235196363   0.1967137099  -0.0123816439
       -0.0254101875  -0.2552699580   0.0430585689  -0.0099679942   0.2925194456
       -0.0394237553   0.0017616693  -0.0205841973  -0.0031045161   0.0100968761
       -0.0429638615  -0.0088415160  -0.0204161679  -0.0242885661  -0.1205337841
        0.1765348866   0.1157960480  -0.0391523610  -0.0066452485  -0.0394237553
        0.1751257881  -0.1617384374  -0.0091198651  -0.0065981269   0.0122649672
        0.1167871512  -0.0166878994  -0.0524808324  -0.0108175572   0.1805922757
       -0.1941200019  -0.1001473288   0.0050931192  -0.0141420302   0.0017616693
       -0.1617384374   0.2495786447  -0.0075839345  -0.0072590581   0.0111642199
       -0.1836512480  -0.1234734558  -0.0996423522  -0.0207537844  -0.0094778036
       -0.0073849168  -0.0016167587   0.0027034130   0.0022414866  -0.0205841973
       -0.0091198651  -0.0075839345   0.2266059885   0.1393677115   0.1123697170
       -0.1467905446  -0.1369033490  -0.0746017283   0.0090867629   0.0114511515
        0.0084140633   0.0014405864   0.0020666551  -0.0013077789  -0.0031045161
       -0.0065981269  -0.0072590581   0.1393677115   0.1299836692   0.0747545021
       -0.1187251352  -0.0747736286  -0.1043513873  -0.0049415366  -0.0109301546
       -0.0067851189   0.0012000786  -0.0013156861   0.0025851060   0.0100968761
        0.0122649672   0.0111642199   0.1123697170   0.0747545021   0.0973871804
