5
 energy: -9.484314978605 gnorm: 0.129463034353 xtb: 6.2.2 (9d81278992624c895f80dd42a50cac0aa55982e2)
N        -0.89832700000000    0.27921200000000    0.23271800000000
C         0.38376300000000   -0.17003900000000    0.79969700000000
C         1.38886000000000   -0.37499100000000   -0.31367200000000
C         0.37704600000000    0.75094300000000   -0.33111000000000
H        -1.25134200000000   -0.48512500000000   -0.38763200000000
5
 energy: -9.516468964820 gnorm: 0.109095778694 xtb: 6.2.2 (9d81278992624c895f80dd42a50cac0aa55982e2)
N        -0.88129215487520    0.30190115204863    0.25111008644663
C         0.36037929083172   -0.28127197485737    0.72775511113030
C         1.50535137369675   -0.25572052858535   -0.21722562524475
C         0.35352079873898    0.65782836189370   -0.42531889308641
H        -1.33795930839225   -0.42273701049962   -0.33631967924578
5
 energy: -9.533314558722 gnorm: 0.027230787376 xtb: 6.2.2 (9d81278992624c895f80dd42a50cac0aa55982e2)
N        -0.82668357841188    0.29829206020435    0.24785783088296
C         0.35969531476208   -0.34640412021149    0.68986346192537
C         1.47599048428473   -0.16974567322679   -0.14702998111290
C         0.35272210738494    0.60752336715323   -0.48143457877346
H        -1.36172432801987   -0.38966563391931   -0.30925573292198
5
 energy: -9.537363351422 gnorm: 0.039849676156 xtb: 6.2.2 (9d81278992624c895f80dd42a50cac0aa55982e2)
N        -0.80812980659898    0.28626285741877    0.23794687332988
C         0.36682580981152   -0.39300987190966    0.65720241778966
C         1.53264610507710   -0.10184909380230   -0.09207089003788
C         0.35981862546697    0.56615155918385   -0.52051169916048
H        -1.45116073375662   -0.35755545089066   -0.28256570192117
5
 energy: -9.538993661697 gnorm: 0.021725269221 xtb: 6.2.2 (9d81278992624c895f80dd42a50cac0aa55982e2)
N        -0.79809550194180    0.26860996511896    0.22350929651743
C         0.37535158071456   -0.40862885955733    0.64208306920570
C         1.53830502580342   -0.07060717642693   -0.06666056420287
C         0.36836219869368    0.54823510822164   -0.53280660669357
H        -1.48392330326985   -0.33760903735634   -0.26612419482670
5
 energy: -9.539605469672 gnorm: 0.006349515857 xtb: 6.2.2 (9d81278992624c895f80dd42a50cac0aa55982e2)
N        -0.79621421637199    0.25195646764213    0.20993703128700
C         0.38086838097160   -0.41682020662600    0.63187747355993
C         1.54811402437579   -0.05193433005299   -0.05151079176123
C         0.37390141005923    0.53661374370388   -0.53880281432124
H        -1.50666959903463   -0.31981567466702   -0.25149989876446
5
 energy: -9.539688733032 gnorm: 0.003540518196 xtb: 6.2.2 (9d81278992624c895f80dd42a50cac0aa55982e2)
N        -0.79401687443482    0.24362025200070    0.20313589204080
C         0.38403912379712   -0.41751527727007    0.63033925443869
C         1.55239672339525   -0.04670419220077   -0.04727649719740
C         0.37707785079542    0.53498467014910   -0.53919535949291
H        -1.51949682355297   -0.31438545267896   -0.24700228978918
5
 energy: -9.539701923713 gnorm: 0.001782965726 xtb: 6.2.2 (9d81278992624c895f80dd42a50cac0aa55982e2)
N        -0.79331248258664    0.24084230509193    0.20087925243092
C         0.38447718620263   -0.41699837828207    0.63126550035134
C         1.55291646885058   -0.04679605879607   -0.04735276499221
C         0.37751728541995    0.53600092179399   -0.53888594154590
H        -1.52159845788654   -0.31304878980777   -0.24590504624415
5
 energy: -9.539704146523 gnorm: 0.000704486183 xtb: 6.2.2 (9d81278992624c895f80dd42a50cac0aa55982e2)
N        -0.79255085081851    0.23970539095601    0.19994023733126
C         0.38449495413244   -0.41674381046295    0.63253737828227
C         1.55335228893954   -0.04735780912511   -0.04781385267292
C         0.37753570358839    0.53730696400077   -0.53888836971467
H        -1.52283209584186   -0.31291073536872   -0.24577439322594
