 Entering Gaussian System
 *********************************************
 Gaussian 98:
 frequency output generated by the xtb code
 *********************************************
                         Standard orientation:
 --------------------------------------------------------------------
  Center     Atomic     Atomic              Coordinates (Angstroms)
  Number     Number      Type              X           Y           Z
 --------------------------------------------------------------------
    1          7             0       -0.792549    0.239710    0.199943
    2          6             0        0.384495   -0.416745    0.632537
    3          6             0        1.553352   -0.047366   -0.047819
    4          6             0        0.377537    0.537304   -0.538891
    5          1             0       -1.522835   -0.312903   -0.245769
 --------------------------------------------------------------------
     1 basis functions        1 primitive gaussians
     1 alpha electrons        1 beta electrons

 Harmonic frequencies (cm**-1), IR intensities (KM/Mole),
 Raman scattering activities (A**4/amu), Raman depolarization ratios,
 reduced masses (AMU), force constants (mDyne/A) and normal coordinates:
                      1                      2                      3
                        a                      a                      a 
 Frequencies --   368.0129               439.9361               555.6508
 Red. masses --    12.2551                10.7508                12.0525
 Frc consts  --     0.0000                 0.0000                 0.0000
 IR Inten    --     1.3945                 0.5118                 0.6097
 Raman Activ --     0.0000                 0.0000                 0.0000
 Depolar     --     0.0000                 0.0000                 0.0000
 Atom AN      X      Y      Z        X      Y      Z        X      Y      Z
   1   7    -0.00   0.34  -0.41    -0.12  -0.24  -0.20     0.00  -0.09   0.11
   2   6     0.26  -0.33   0.34     0.07   0.37   0.30    -0.54  -0.07   0.20
   3   6    -0.00   0.20  -0.25    -0.06  -0.41  -0.33    -0.00   0.34  -0.42
   4   6    -0.25  -0.27   0.40     0.07   0.37   0.30     0.55  -0.18   0.10
   5   1    -0.00   0.11  -0.13     0.19  -0.24  -0.20    -0.00   0.00  -0.00
                      4                      5                      6
                        a                      a                      a 
 Frequencies --   893.6189               961.3002              1064.0768
 Red. masses --    11.3312                 5.1538                 2.7675
 Frc consts  --     0.0000                 0.0000                 0.0000
 IR Inten    --     0.7187                 0.3657                 0.0472
 Raman Activ --     0.0000                 0.0000                 0.0000
 Depolar     --     0.0000                 0.0000                 0.0000
 Atom AN      X      Y      Z        X      Y      Z        X      Y      Z
   1   7     0.53  -0.22  -0.18     0.18   0.24   0.19    -0.00   0.19  -0.24
   2   6    -0.03  -0.15   0.35    -0.03  -0.23   0.07    -0.07  -0.12  -0.07
   3   6    -0.45   0.01   0.01    -0.31   0.07   0.06     0.00  -0.01   0.01
   4   6    -0.03   0.31  -0.22    -0.03   0.03  -0.24     0.07   0.09   0.10
   5   1    -0.20   0.23   0.19     0.60  -0.41  -0.34     0.00  -0.58   0.72
                      7                      8                      9
                        a                      a                      a 
 Frequencies --  1355.6212              1504.8933              3293.9736
 Red. masses --    12.4484                11.9841                 1.8450
 Frc consts  --     0.0000                 0.0000                 0.0000
 IR Inten    --     0.8684                 0.4941                 0.0834
 Raman Activ --     0.0000                 0.0000                 0.0000
 Depolar     --     0.0000                 0.0000                 0.0000
 Atom AN      X      Y      Z        X      Y      Z        X      Y      Z
   1   7     0.58  -0.07  -0.06     0.07   0.01   0.01    -0.19  -0.13  -0.11
   2   6    -0.34   0.32  -0.31    -0.38  -0.19   0.30    -0.00  -0.01   0.00
   3   6     0.01  -0.00  -0.00     0.67  -0.06  -0.05     0.00   0.00   0.00
   4   6    -0.34  -0.24   0.38    -0.38   0.25  -0.25    -0.00  -0.00  -0.01
   5   1     0.15  -0.01  -0.01     0.04  -0.03  -0.02     0.71   0.51   0.41
