[Molden Format]
[Title]
[Atoms] AU
C      1     6  0.37778352897611E+01 -0.97312459431254E+00  0.22348668842325E+00
N      2     7  0.16363707500893E+01 -0.44956176136602E+00  0.10584654954476E+00
C      3     6 -0.75334083891283E+00  0.34182000229460E+00 -0.97546518156576E-01
C      4     6 -0.23552712563012E+01  0.20778317455075E+01 -0.65871113060090E+00
H      5     1 -0.23055920549005E+01 -0.99696350240745E+00  0.42692441077957E+00
[GTO]
           1 0
 s           4   1.0000000000000000     
   51.049363095579913      -0.16312063210127389     
   8.7911227406887544      -0.19911024581000730     
  0.70640422258929825       0.31882047753655751     
  0.26922813413411617       0.12706504184240380     
 p           4   1.0000000000000000     
   5.8263656140800002       0.73716451545209605     
   1.5106896018720002       0.68216371614850257     
  0.53256483288000001       0.35783053929253711     
  0.21202323690600003        5.3983030275847881E-002

           2 0
 s           4   1.0000000000000000     
   63.594024466941008      -0.19234388414721629     
   10.951417231523665      -0.23478107924953728     
  0.87999310257376984       0.37593753901700888     
  0.33538715296521110       0.14982889271862770     
 p           4   1.0000000000000000     
   7.2965040481495080       0.97658666315667420     
   1.8918745450712575       0.90372226730345739     
  0.66694432110824120       0.47404958461536373     
  0.26552202674130870        7.1516067715011844E-002

           3 0
 s           4   1.0000000000000000     
   51.049363095579913      -0.16312063210127389     
   8.7911227406887544      -0.19911024581000730     
  0.70640422258929825       0.31882047753655751     
  0.26922813413411617       0.12706504184240380     
 p           4   1.0000000000000000     
   5.8263656140800002       0.73716451545209605     
   1.5106896018720002       0.68216371614850257     
  0.53256483288000001       0.35783053929253711     
  0.21202323690600003        5.3983030275847881E-002

           4 0
 s           4   1.0000000000000000     
   51.049363095579913      -0.16312063210127389     
   8.7911227406887544      -0.19911024581000730     
  0.70640422258929825       0.31882047753655751     
  0.26922813413411617       0.12706504184240380     
 p           4   1.0000000000000000     
   5.8263656140800002       0.73716451545209605     
   1.5106896018720002       0.68216371614850257     
  0.53256483288000001       0.35783053929253711     
  0.21202323690600003        5.3983030275847881E-002

           5 0
 s           3   1.0000000000000000     
   3.3702276975336001       0.27359110588908298     
  0.61389118221497996       0.26460540653860526     
  0.16614291148415999        8.2465947534082318E-002

[MO]
Sym=     1a
Ene=  -0.69562799192582814     
Spin= Alpha
Occup=     2.00000000
           1 -0.20866419527508862     
           2  0.11743026747483970     
           3  -2.9892420734415760E-002
           4   6.8456771836103341E-003
           5 -0.52645659140957612     
           6   9.2635759435056322E-002
           7  -3.5554401628372929E-002
           8   9.5209203730463824E-003
           9 -0.41562942142249193     
          10 -0.10421951735920194     
          11   1.4292901733086321E-002
          12  -1.8077861029981940E-003
          13 -0.20024797634543681     
          14  -6.3363343980430739E-002
          15   6.6917247892396378E-002
          16  -2.1600559707889520E-002
          17 -0.11838560054093206     
Sym=     2a
Ene=  -0.68000638396564583     
Spin= Alpha
Occup=     2.00000000
           1  0.34320358542242835     
           2 -0.12704144715361004     
           3   2.6589122534062176E-002
           4  -5.4075167961846818E-003
           5  0.31623845374115028     
           6  0.20308262812401692     
           7  -6.5984360887495860E-002
           8   1.6871462322485757E-002
           9 -0.30766719869661913     
          10  0.15964282158141890     
          11  -9.3454396350325028E-002
          12   2.7839498414878292E-002
          13 -0.37265633954802013     
          14  -6.3392303509169842E-002
          15   9.5337252252923679E-002
          16  -3.1621083718202027E-002
          17 -0.13417062472093411     
Sym=     3a
Ene=  -0.63919716958800288     
Spin= Alpha
Occup=     2.00000000
           1 -0.38453181991971908     
           2   5.6889234981425771E-002
           3  -1.4879688644909734E-002
           4   3.4876728396535973E-003
           5  0.11806393084301404     
           6 -0.42283393666896280     
           7   9.0404191536339912E-002
           8  -1.8563498132835872E-002
           9   8.2182517067958386E-002
          10  0.31354405492580251     
          11 -0.19102508086407607     
          12   5.7389723044156946E-002
          13 -0.39099521104353374     
          14  -5.9888625245022257E-003
          15   4.8566830119127942E-002
          16  -1.6940494686122416E-002
          17  -2.5176647350590761E-002
Sym=     4a
Ene=  -0.57828782742300822     
Spin= Alpha
Occup=     2.00000000
           1   7.1742752665816756E-002
           2  -3.0206820851727961E-002
           3 -0.14753757909107568     
           4   5.3198133733112711E-002
           5  -5.6703905516548497E-002
           6  -3.9197707052529104E-002
           7 -0.39771025934470400     
           8  0.14206794612694967     
           9   2.9289941552286970E-002
          10 -0.24598644944194439     
          11 -0.38348143637060500     
          12  0.14362080346561693     
          13 -0.20597327626936612     
          14 -0.14229962597597659     
          15 -0.12557452524392859     
          16   4.9054377941927713E-002
          17  0.36754844007328435     
Sym=     5a
Ene=  -0.54741564322433489     
Spin= Alpha
Occup=     2.00000000
           1  -3.1078683305989098E-005
           2  -9.5752908203298390E-003
           3 -0.10668284941375808     
           4 -0.30136969433988325     
           5   1.6876089646056323E-004
           6  -2.0328897292036224E-002
           7 -0.22637347145247097     
           8 -0.63949239931975954     
           9   1.6644209090882093E-004
          10  -1.2371189365390771E-002
          11 -0.13457262353168184     
          12 -0.38045041212570624     
          13   4.5793948399825484E-005
          14  -4.9907392807866120E-003
          15  -5.3986189016146609E-002
          16 -0.15261989291637637     
          17   5.5905774057728729E-005
Sym=     6a
Ene=  -0.50531603250154022     
Spin= Alpha
Occup=     2.00000000
           1  0.17301072486149030     
           2  0.18824542793261931     
           3  0.33202389815870181     
           4 -0.12345346592763148     
           5 -0.14211778966376659     
           6  0.20779840541343184     
           7  0.52549677313397825     
           8 -0.19254028798302944     
           9  0.10711719995668630     
          10  -9.1691045717626610E-002
          11 -0.11149957936108432     
          12   4.2282821870618978E-002
          13 -0.39559096691822748     
          14   1.1108830625519595E-002
          15 -0.22143438186349004     
          16   7.7855334157191897E-002
          17  0.25952515905768919     
Sym=     7a
Ene=  -0.46163134574687875     
Spin= Alpha
Occup=     2.00000000
           1 -0.54775339219039698     
           2 -0.40323098794904194     
           3  0.29616586315233523     
           4  -9.2585822432492526E-002
           5  0.21731364338046455     
           6  0.15723246327516766     
           7  0.15232103089632446     
           8  -5.9380970107173477E-002
           9 -0.21567682926942783     
          10 -0.10941838106105195     
          11 -0.13547600811714997     
          12   5.2315427290560400E-002
          13  0.27505303268719367     
          14 -0.37733921642778440     
          15   8.8219266808193031E-002
          16  -1.8025238609015167E-002
          17  0.12521016177402985     
Sym=     8a
Ene=  -0.44746823478976916     
Spin= Alpha
Occup=     2.00000000
           1  -1.1834466860315149E-003
           2   1.0134917476146190E-002
           3  0.12625946003867397     
           4  0.35553789889189269     
           5   3.2241470609946685E-004
           6   9.9335152308640557E-003
           7  0.10601082741500735     
           8  0.29957912864807440     
           9  -3.4671176811287061E-005
          10  -1.6297986094212590E-002
          11 -0.17467505473081735     
          12 -0.49403074045846745     
          13  -4.5049399660389359E-005
          14  -1.8251001743920092E-002
          15 -0.19614589562312043     
          16 -0.55452665445442950     
          17   2.4697115536335603E-005
Sym=     9a
Ene=  -0.43716739556677575     
Spin= Alpha
Occup=     2.00000000
           1 -0.38595602525102757     
           2 -0.42613553717274982     
           3  -2.1260690833671613E-002
           4   2.0546572292270662E-002
           5   3.0604846161824156E-002
           6  0.18862695412093328     
           7 -0.14176810732386233     
           8   4.3892055773858026E-002
           9   8.3942006068725109E-002
          10 -0.14060135944082394     
          11  0.22080352458737884     
          12  -7.2904024713724466E-002
          13 -0.43487733877950874     
          14  0.43762966801382841     
          15 -0.33465693400671681     
          16  0.10464115870069249     
          17  -7.9268954992362417E-002
Sym=    10a
Ene=  -0.32859169042472075     
Spin= Alpha
Occup=     0.00000000
           1   4.1078182311703591E-002
           2   5.2097242242463662E-002
           3 -0.19400457833166376     
           4   6.7065097628349266E-002
           5  0.11961023119869708     
           6 -0.11605133040956049     
           7   6.1720004572786792E-002
           8  -1.8184801868054001E-002
           9  -2.1961898337419579E-002
          10   5.4846823703512883E-002
          11  0.17808440328212674     
          12  -6.4657251008012284E-002
          13   8.3259812478298292E-003
          14 -0.59398293160266014     
          15 -0.68844575096987703     
          16  0.26262168588398499     
          17 -0.35706594658980068     
Sym=    11a
Ene=  -0.28501183164541638     
Spin= Alpha
Occup=     0.00000000
           1   4.1191475121585583E-006
           2   2.0911059416009483E-002
           3  0.23517209096275773     
           4  0.66472411676439314     
           5  -1.3948659162990979E-005
           6  -1.0144001241007674E-002
           7 -0.11400604636279948     
           8 -0.32225803260565244     
           9   1.3736248546024528E-004
          10  -1.2759458024800318E-002
          11 -0.13921969290457237     
          12 -0.39373910568878906     
          13   3.3974668641715370E-005
          14   1.9982603581491083E-002
          15  0.21658571995892620     
          16  0.61290826648154317     
          17  -1.3326528275589061E-005
Sym=    12a
Ene=  -0.24367466452159475     
Spin= Alpha
Occup=     0.00000000
           1   1.2656094402602285E-002
           2  0.25880213938215585     
           3  0.79434046925938051     
           4 -0.28914728580356291     
           5   8.5813639283453008E-002
           6 -0.22345830418299187     
           7 -0.57918605493911157     
           8  0.21193046163914381     
           9   1.3453542299941622E-003
          10  -7.0325559715059618E-002
          11  -1.0099273521443878E-002
          12   5.9214095821350232E-003
          13   5.4577716783552971E-002
          14   5.9357808242913562E-002
          15 -0.16167079672962606     
          16   5.5204055067670232E-002
          17 -0.29191382501426782     
Sym=    13a
Ene=  -0.16737594931364921     
Spin= Alpha
Occup=     0.00000000
           1   2.5256725830575151E-005
           2  -1.7337172724702435E-002
           3 -0.19100836646562558     
           4 -0.54032043271066377     
           5  -4.6542332939185588E-004
           6   1.9808637597912317E-002
           7  0.21852047459618373     
           8  0.61812200315125521     
           9   6.7961611802779649E-004
          10  -2.1041772299659652E-002
          11 -0.23208595993888703     
          12 -0.65601877682214316     
          13   3.2366326383135479E-005
          14   1.5457460690760072E-002
          15  0.17122624322424837     
          16  0.48437185455556514     
          17  -3.5385432806365612E-004
Sym=    14a
Ene=    6.8704978264650413E-002
Spin= Alpha
Occup=     0.00000000
           1 -0.16512308974041334     
           2  0.41810461273128297     
           3 -0.11481123429455235     
           4   2.7086439049720943E-002
           5  0.81374074793615891     
           6 -0.29896827538681386     
           7   9.9497119125248515E-002
           8  -2.5076375854764757E-002
           9 -0.96255978689484845     
          10 -0.26826272187983513     
          11  0.29963190640286419     
          12  -9.8143720143929872E-002
          13   5.5120254503004402E-002
          14  0.28685792129643661     
          15 -0.14137332398721736     
          16   4.0996091758466587E-002
          17  0.51870250943116403     
Sym=    15a
Ene=   0.12087013613108663     
Spin= Alpha
Occup=     0.00000000
           1   5.2660544669795015E-002
           2 -0.10522306757120846     
           3  0.16824194515655957     
           4  -5.6159886919799486E-002
           5 -0.35476455705060306     
           6   5.7782756437681451E-002
           7 -0.32955911701819557     
           8  0.11466023846916942     
           9  -5.5219277024134011E-002
          10  0.69606058747580357     
          11  0.73522936954916418     
          12 -0.28249522728596693     
          13 -0.22762805843344056     
          14 -0.34583548957225541     
          15   5.2734925526777630E-002
          16  -7.4228403671423833E-003
          17  0.89617438284196660     
Sym=    16a
Ene=   0.67644277975892764     
Spin= Alpha
Occup=     0.00000000
           1  0.39457872651940518     
           2 -0.50944643107646514     
           3  0.10517053900775764     
           4  -2.1147762478835503E-002
           5 -0.64802442405888250     
           6 -0.28941368927377248     
           7  0.13562698111721244     
           8  -3.8803475828848535E-002
           9 -0.76544123228883343     
          10  0.70205347622279679     
          11 -0.56325870049866811     
          12  0.17618184672026660     
          13  0.71482021698624776     
          14  0.55087887124996560     
          15 -0.61723269619207410     
          16  0.20010113861282716     
          17  0.15612703528629471     
Sym=    17a
Ene=    1.0791221302714715     
Spin= Alpha
Occup=     0.00000000
           1 -0.79581671436011348     
           2  0.84846338295475254     
           3 -0.20713417822827643     
           4   4.6542842773968848E-002
           5  0.33797054170130242     
           6   1.2255023172572230     
           7 -0.30746569090247683     
           8   6.9927526145917018E-002
           9  0.11261376130242821     
          10  0.78632456572961984     
          11 -0.42429545645363798     
          12  0.12457723410941274     
          13  0.39455409182399837     
          14  0.21086832598448998     
          15 -0.31715077258607938     
          16  0.10511408964876688     
          17   5.6045357704110670E-002
