 Entering Gaussian System
 *********************************************
 Gaussian 98:
 frequency output generated by the xtb code
 *********************************************
                         Standard orientation:
 --------------------------------------------------------------------
  Center     Atomic     Atomic              Coordinates (Angstroms)
  Number     Number      Type              X           Y           Z
 --------------------------------------------------------------------
    1          6             0        1.999145   -0.514955    0.118264
    2          7             0        0.865930   -0.237898    0.056012
    3          6             0       -0.398651    0.180883   -0.051619
    4          6             0       -1.246356    1.099541   -0.348575
    5          1             0       -1.220067   -0.527570    0.225919
 --------------------------------------------------------------------
     1 basis functions        1 primitive gaussians
     1 alpha electrons        1 beta electrons

 Harmonic frequencies (cm**-1), IR intensities (KM/Mole),
 Raman scattering activities (A**4/amu), Raman depolarization ratios,
 reduced masses (AMU), force constants (mDyne/A) and normal coordinates:
                      1                      2                      3
                        a                      a                      a 
 Frequencies --   158.8665               283.1277               338.2163
 Red. masses --    11.8079                 9.9772                10.8852
 Frc consts  --     0.0000                 0.0000                 0.0000
 IR Inten    --     0.2361                 0.0750                 0.0431
 Raman Activ --     0.0000                 0.0000                 0.0000
 Depolar     --     0.0000                 0.0000                 0.0000
 Atom AN      X      Y      Z        X      Y      Z        X      Y      Z
   1   6    -0.01   0.45  -0.16    -0.02  -0.17  -0.46    -0.12  -0.34   0.13
   2   7    -0.19  -0.25   0.10     0.02   0.23   0.64     0.16   0.63  -0.23
   3   6    -0.29  -0.42   0.16     0.00   0.02   0.06    -0.24  -0.31   0.12
   4   6     0.50   0.29  -0.12    -0.00  -0.05  -0.15     0.13   0.07  -0.03
   5   1     0.03  -0.18   0.06    -0.01  -0.17  -0.49     0.24  -0.34   0.12
                      4                      5                      6
                        a                      a                      a 
 Frequencies --   574.2171               784.0489               961.4924
 Red. masses --     9.7286                 5.6826                10.4736
 Frc consts  --     0.0000                 0.0000                 0.0000
 IR Inten    --     0.0183                 0.3024                 0.1172
 Raman Activ --     0.0000                 0.0000                 0.0000
 Depolar     --     0.0000                 0.0000                 0.0000
 Atom AN      X      Y      Z        X      Y      Z        X      Y      Z
   1   6     0.00   0.04   0.10     0.16  -0.02   0.00     0.47  -0.13   0.03
   2   7    -0.01  -0.14  -0.39     0.08  -0.32   0.11     0.38  -0.07   0.01
   3   6     0.02   0.24   0.68    -0.09   0.26  -0.09    -0.50  -0.14   0.06
   4   6    -0.01  -0.08  -0.22    -0.33   0.24  -0.07    -0.28   0.29  -0.09
   5   1    -0.01  -0.16  -0.46     0.59  -0.48   0.15    -0.36   0.18  -0.05
                      7                      8                      9
                        a                      a                      a 
 Frequencies --  1805.9205              2172.5355              2684.0822
 Red. masses --    11.9780                13.0449                 1.7168
 Frc consts  --     0.0000                 0.0000                 0.0000
 IR Inten    --     0.2541                 0.0911                 0.0891
 Raman Activ --     0.0000                 0.0000                 0.0000
 Depolar     --     0.0000                 0.0000                 0.0000
 Atom AN      X      Y      Z        X      Y      Z        X      Y      Z
   1   6     0.12  -0.03   0.01     0.66  -0.16   0.04    -0.02   0.01  -0.00
   2   7     0.02  -0.01   0.00    -0.70   0.18  -0.04     0.03  -0.00   0.00
   3   6    -0.57   0.49  -0.16     0.09  -0.03   0.01     0.18   0.16  -0.06
   4   6     0.43  -0.44   0.14     0.00   0.01  -0.00     0.00   0.03  -0.01
   5   1     0.01  -0.05   0.02     0.01  -0.04   0.01    -0.66  -0.66   0.25
