5
 energy: -9.424458147785 gnorm: 0.337408149983 xtb: 6.2.2 (9d81278992624c895f80dd42a50cac0aa55982e2)
C         1.89567200000000   -0.13849900000000    0.29961500000000
N         0.69946800000000   -0.52872200000000   -0.42613400000000
C        -0.43311700000000    0.05104800000000    0.27469000000000
C        -0.89774900000000    1.29962900000000   -0.44926300000000
H        -1.26427300000000   -0.68345500000000    0.30109200000000
5
 energy: -9.527183981051 gnorm: 0.210202025170 xtb: 6.2.2 (9d81278992624c895f80dd42a50cac0aa55982e2)
C         1.83546153547181   -0.15471415725605    0.25140200506550
N         0.76027587342352   -0.50394892296511   -0.33466450412199
C        -0.45860043247957    0.06501699039902    0.14680948036560
C        -0.87787206784874    1.26764633890417   -0.39294309568712
H        -1.25926390856701   -0.67399924908204    0.32939611437802
5
 energy: -9.537688106706 gnorm: 0.506642187603 xtb: 6.2.2 (9d81278992624c895f80dd42a50cac0aa55982e2)
C         1.82750586950980   -0.26842384231234    0.17447323102671
N         0.83139244527248   -0.37175225175598   -0.17649974065645
C        -0.51367491405070    0.11078356710136    0.01384166645076
C        -0.90571158649443    1.19312264955019   -0.35569972454456
H        -1.23951081423715   -0.66372912258323    0.34388456772355
5
 energy: -9.578379486572 gnorm: 0.159412271171 xtb: 6.2.2 (9d81278992624c895f80dd42a50cac0aa55982e2)
C         1.97163838656323   -0.31696505095085    0.17473650731161
N         0.79214847074731   -0.33757184810513   -0.12605901458717
C        -0.55413589982528    0.10731958436808   -0.00707968648893
C        -0.96485649819686    1.23298551817114   -0.37949425464612
H        -1.24479345928840   -0.68576720348324    0.33789644841061
5
 energy: -9.578996621533 gnorm: 0.105195894479 xtb: 6.2.2 (9d81278992624c895f80dd42a50cac0aa55982e2)
C         1.93089233459075   -0.29924631103906    0.19495901658358
N         0.81019704495512   -0.39713813456594   -0.13002345665041
C        -0.51318163570059    0.06452128192653   -0.05881843741440
C        -1.00427955015921    1.31222805626762   -0.37316208324615
H        -1.22362719368606   -0.68036389258914    0.36704496072738
5
 energy: -9.590009159903 gnorm: 0.055373200583 xtb: 6.2.2 (9d81278992624c895f80dd42a50cac0aa55982e2)
C         1.93909126237711   -0.36367805683048    0.17797634070692
N         0.79441978141424   -0.32278995901911   -0.09554489800906
C        -0.50372202140049    0.09300487962511   -0.02604328113644
C        -1.03752842672259    1.24938221466462   -0.38714117006392
H        -1.19225959566827   -0.65591807844013    0.33075300850251
5
 energy: -9.592030636286 gnorm: 0.084242941610 xtb: 6.2.2 (9d81278992624c895f80dd42a50cac0aa55982e2)
C         1.98384965881494   -0.42320469549832    0.14460941826323
N         0.81332313084564   -0.27133537239419   -0.01402450146750
C        -0.52038335898383    0.11941256517499   -0.07160017610058
C        -1.08250127085818    1.22483297673996   -0.37734656709578
H        -1.19428715981856   -0.64970447402245    0.31836182640062
5
 energy: -9.595189598785 gnorm: 0.022644204142 xtb: 6.2.2 (9d81278992624c895f80dd42a50cac0aa55982e2)
C         1.95916059243927   -0.43384822971298    0.15332222337427
N         0.81189351441134   -0.27382970937953   -0.02001166202896
C        -0.48370357729281    0.12168209253569   -0.06642723069292
C        -1.10994399582332    1.21252655328059   -0.37564078685937
H        -1.17740553373447   -0.62652970672376    0.30875745620698
5
 energy: -9.596074420045 gnorm: 0.024494132660 xtb: 6.2.2 (9d81278992624c895f80dd42a50cac0aa55982e2)
C         1.96552265138181   -0.46718657569519    0.14733603586289
N         0.82431404986921   -0.25988726656328    0.00525476581286
C        -0.45723024378422    0.13507370587263   -0.07175561693028
C        -1.15977771278539    1.19300990046049   -0.37187535848230
H        -1.17282774468141   -0.60100876407466    0.29104017373683
5
 energy: -9.596545199041 gnorm: 0.025707760214 xtb: 6.2.2 (9d81278992624c895f80dd42a50cac0aa55982e2)
C         1.97623171687420   -0.45542814459025    0.10742353125025
N         0.83365818934649   -0.26766175400824    0.06052106395727
C        -0.43705507290786    0.13561553524101   -0.06214981762611
C        -1.16577924917106    1.15988718113470   -0.35340943105248
H        -1.20705458414177   -0.57241181777722    0.24761465347108
5
 energy: -9.597027308835 gnorm: 0.020521706788 xtb: 6.2.2 (9d81278992624c895f80dd42a50cac0aa55982e2)
C         1.99008130512789   -0.50214034704397    0.10567915102670
N         0.85100653765483   -0.23330496098810    0.07552050899718
C        -0.41605051195780    0.15843450223675   -0.06115523073551
C        -1.21396798081666    1.13607268246110   -0.35832607763296
H        -1.21106835000825   -0.55906087666577    0.23828164834459
5
 energy: -9.597213885517 gnorm: 0.006122147439 xtb: 6.2.2 (9d81278992624c895f80dd42a50cac0aa55982e2)
C         1.98742628119295   -0.49648376831266    0.11233992835409
N         0.85081776301411   -0.23707253430342    0.05963138745409
C        -0.42181236170199    0.15944410038106   -0.05580136176991
C        -1.20469118196730    1.13981983547753   -0.36095356081026
H        -1.21173950053777   -0.56570663324251    0.24478360677199
5
 energy: -9.597301015094 gnorm: 0.003215843409 xtb: 6.2.2 (9d81278992624c895f80dd42a50cac0aa55982e2)
C         1.99127029510317   -0.50041159220692    0.11021841995038
N         0.85483729303962   -0.23938868008818    0.06101184087199
C        -0.41861501651964    0.16697229963778   -0.04645961961762
C        -1.21399014645342    1.13252840096585   -0.36042733143447
H        -1.21350142516973   -0.55969942830853    0.23565669022972
5
 energy: -9.597336302278 gnorm: 0.003007274874 xtb: 6.2.2 (9d81278992624c895f80dd42a50cac0aa55982e2)
C         1.99271861679393   -0.50903734990473    0.10968559260147
N         0.85856329914103   -0.23570892591374    0.06226910583116
C        -0.41135276979499    0.17532651928363   -0.04025666649515
C        -1.22600860900520    1.12148820958545   -0.35995334171164
H        -1.21391953713477   -0.55206745305062    0.22825530977416
5
 energy: -9.597350337363 gnorm: 0.002418332154 xtb: 6.2.2 (9d81278992624c895f80dd42a50cac0aa55982e2)
C         1.99436039019910   -0.51224682261344    0.10848439827541
N         0.86097761729461   -0.23519732059744    0.06525594443569
C        -0.40783726845663    0.17839088079467   -0.04014582132179
C        -1.23242928305685    1.11523435909866   -0.35775706063739
H        -1.21507045598024   -0.54618009668245    0.22416253924808
5
 energy: -9.597365095730 gnorm: 0.001893802334 xtb: 6.2.2 (9d81278992624c895f80dd42a50cac0aa55982e2)
C         1.99534715894033   -0.51749482966316    0.11021339226630
N         0.86399374379332   -0.23273727836548    0.06512603510795
C        -0.40340336230737    0.18173928896925   -0.04301923186541
C        -1.24057986079411    1.10723312374661   -0.35507310413861
H        -1.21535667963216   -0.53873930468721    0.22275290862978
5
 energy: -9.597374370499 gnorm: 0.002402701447 xtb: 6.2.2 (9d81278992624c895f80dd42a50cac0aa55982e2)
C         1.99610417372425   -0.52192052003561    0.11505562570236
N         0.86684177048796   -0.23097618951031    0.06096601250615
C        -0.39965840597892    0.18385853036773   -0.04878332073813
C        -1.24809089799701    1.10034157773989   -0.35200736909385
H        -1.21519564023629   -0.53130239856170    0.22476905162346
5
 energy: -9.597377585353 gnorm: 0.001965991599 xtb: 6.2.2 (9d81278992624c895f80dd42a50cac0aa55982e2)
C         1.99638317741832   -0.52077777533454    0.11616572420558
N         0.86653102643802   -0.23194965376015    0.05935800080623
C        -0.39979051614279    0.18319146317489   -0.04967436934759
C        -1.24749047361037    1.10048529879345   -0.35154629619590
H        -1.21563221410318   -0.53094833287364    0.22569694053169
5
 energy: -9.597381142285 gnorm: 0.001146470928 xtb: 6.2.2 (9d81278992624c895f80dd42a50cac0aa55982e2)
C         1.99945409324783   -0.51504871942049    0.12209373625926
N         0.86644611604275   -0.23889607515615    0.05136847105047
C        -0.39814607457379    0.18051759429637   -0.05451751694053
C        -1.24795571571951    1.09968175446744   -0.34787537755260
H        -1.21979741899728   -0.52625355418717    0.22893068718340
5
 energy: -9.597384129291 gnorm: 0.000744061867 xtb: 6.2.2 (9d81278992624c895f80dd42a50cac0aa55982e2)
C         1.99914681080823   -0.51494514537474    0.11827015301718
N         0.86593123997221   -0.23789342484088    0.05601419453687
C        -0.39865160789153    0.18088137498905   -0.05162047506010
C        -1.24636053037025    1.09953539229286   -0.34857738279324
H        -1.22006491251864   -0.52757719706629    0.22591351029929
