      -----------------------------------------------------------      
     |                   =====================                   |     
     |                           x T B                           |     
     |                   =====================                   |     
     |                         S. Grimme                         |     
     |          Mulliken Center for Theoretical Chemistry        |     
     |                    University of Bonn                     |     
      -----------------------------------------------------------      

   * xtb version 6.2.2 (9d81278992624c895f80dd42a50cac0aa55982e2) compiled by '@Darwin' on 04/03/2020

   xtb is free software: you can redistribute it and/or modify it under
   the terms of the GNU Lesser General Public License as published by
   the Free Software Foundation, either version 3 of the License, or
   (at your option) any later version.
   
   xtb is distributed in the hope that it will be useful,
   but WITHOUT ANY WARRANTY; without even the implied warranty of
   MERCHANTABILITY or FITNESS FOR A PARTICULAR PURPOSE.  See the
   GNU Lesser General Public License for more details.
   
   Cite this work as:
   * S. Grimme, C. Bannwarth, P. Shushkov, J. Chem. Theory Comput., 2017,
     13, 1989-2009. DOI: 10.1021/acs.jctc.7b00118
   * C. Bannwarth, S. Ehlert and S. Grimme., J. Chem. Theory Comput., 2019,
     15, 1652-1671. DOI: 10.1021/acs.jctc.8b01176
   * P. Pracht, E. Caldeweyher, S. Ehlert, S. Grimme, ChemRxiv, 2019, preprint.
     DOI: 10.26434/chemrxiv.8326202.v1
   
   for DFT-D4:
   * E. Caldeweyher, C. Bannwarth and S. Grimme, J. Chem. Phys., 2017,
     147, 034112. DOI: 10.1063/1.4993215
   * E. Caldeweyher, S. Ehlert, A. Hansen, H. Neugebauer, S. Spicher,
     C. Bannwarth and S. Grimme, J. Chem. Phys., 2019, 150, 154122.
     DOI: 10.1063/1.5090222
   
   for sTDA-xTB:
   * S. Grimme and C. Bannwarth, J. Chem. Phys., 2016, 145, 054103.
     DOI: 10.1063/1.4959605
   
   in the mass-spec context:
   * V. Asgeirsson, C. Bauer and S. Grimme, Chem. Sci., 2017, 8, 4879.
     DOI: 10.1039/c7sc00601b
   
   for metadynamics refer to:
   * S. Grimme, J. Chem. Theory Comput., 2019, 155, 2847-2862
     DOI: 10.1021/acs.jctc.9b00143
   
   with help from (in alphabetical order)
   C. Bannwarth, F. Bohle, G. Brandenburg, E. Caldeweyher, M. Checinski,
   S. Dohm, S. Ehlert, S. Ehrlich, F. März, H. Neugebauer, J. Pisarek,
   P. Pracht, P. Shushkov, and S. Spicher.
   
 * started run on 2020/05/12 at 11:44:38.097     

           -------------------------------------------------
          |                Calculation Setup                |
           -------------------------------------------------

          program call               : xtb --input C5_15_S_2.input C5_15_S_2.xyz --ohess --molden --namespace C5_15_S_2 output.out
          calculation namespace      : C5_15_S_2
          coordinate file            : C5_15_S_2.xyz
          number of atoms            :                     5
          number of electrons        :                    20
          charge                     :                     0
          spin                       :                   1.0
          first test random number   :      0.57882576391424

   ID    Z sym.   atoms
    1    6 C      1-5

           -------------------------------------------------
          |                 G F N 2 - x T B                 |
           -------------------------------------------------

        Reference                      10.1021/acs.jctc.8b01176
      * Hamiltonian:
        H0-scaling (s, p, d)           1.850000    2.230000    2.230000
        zeta-weighting                 0.500000
      * Dispersion:
        s8                             2.700000
        a1                             0.520000
        a2                             5.000000
        s9                             5.000000
      * Repulsion:
        kExp                           1.500000    1.000000
        rExp                           1.000000
      * Coulomb:
        alpha                          2.000000
        third order                    shell-resolved
        anisotropic                    true
        a3                             3.000000
        a5                             4.000000
        cn-shift                       1.200000
        cn-exp                         4.000000
        max-rad                        5.000000


          ...................................................
          :                      SETUP                      :
          :.................................................:
          :  # basis functions                  20          :
          :  # atomic orbitals                  20          :
          :  # shells                           10          :
          :  # electrons                        20          :
          :  max. iterations                   250          :
          :  Hamiltonian                  GFN2-xTB          :
          :  restarted?                      false          :
          :  GBSA solvation                  false          :
          :  PC potential                    false          :
          :  electronic temp.          300.0000000     K    :
          :  accuracy                    1.0000000          :
          :  -> integral cutoff          0.2500000E+02      :
          :  -> integral neglect         0.1000000E-07      :
          :  -> SCF convergence          0.1000000E-05 Eh   :
          :  -> wf. convergence          0.1000000E-03 e    :
          :  Broyden damping             0.4000000          :
          ...................................................

 iter      E             dE          RMSdq      gap      omega  full diag
   1    -10.1687461 -0.101687E+02  0.110E+01    0.00       0.0  T
   2    -10.1647644  0.398161E-02  0.652E+00    0.00       1.0  T
   3    -10.1252167  0.395477E-01  0.268E+00    0.00       1.0  T
   4    -10.1701998 -0.449831E-01  0.784E-01    0.00       1.0  T
   5    -10.1719246 -0.172485E-02  0.667E-01    0.02       1.0  T
   6    -10.1710809  0.843696E-03  0.761E-01    0.02       1.0  T
   7    -10.1730355 -0.195457E-02  0.276E-01    0.01       1.0  T
   8    -10.1733210 -0.285532E-03  0.781E-02    0.00       1.0  T
   9    -10.1733516 -0.305409E-04  0.319E-02    0.00       1.4  T
  10    -10.1733557 -0.412479E-05  0.922E-03    0.00       4.9  T
  11    -10.1733560 -0.274598E-06  0.331E-03    0.00      13.5  T
  12    -10.1733560 -0.390290E-07  0.998E-04    0.00      44.8  T
  13    -10.1733560 -0.313659E-08  0.374E-04    0.00     119.6  T

   *** convergence criteria satisfied after 13 iterations ***

         #    Occupation            Energy/Eh            Energy/eV
      -------------------------------------------------------------
         1        2.0000           -0.7785737             -21.1861
       ...           ...                  ...                  ...
         5        2.0000           -0.5316939             -14.4681
         6        2.0000           -0.5071991             -13.8016
         7        2.0000           -0.5071985             -13.8016
         8        2.0000           -0.4974584             -13.5365
         9        2.0000           -0.4974580             -13.5365
        10        1.0000           -0.4758926             -12.9497
        11        0.5000           -0.3928744             -10.6907 (HOMO)
        12        0.5000           -0.3928741             -10.6906 (LUMO)
        13                         -0.3712351             -10.1018
        14                         -0.3001015              -8.1662
        15                         -0.0868330              -2.3628
        16                         -0.0868327              -2.3628
       ...                                ...                  ...
        20                          0.3001243               8.1668
      -------------------------------------------------------------
                  HL-Gap            0.0000003 Eh            0.0000 eV
             Fermi-level           -0.4396102 Eh          -11.9624 eV

 transition dipole moment (au) for excitation:          10          11
     X       Y       Z   
  -0.0109  -0.0379   0.0003  total (au/Debye):    0.039   0.100
 dE (eV)             :    2.259
 oscillator strength :  0.12196E-03

 SCC (total)                   0 d,  0 h,  0 min,  0.006 sec
 SCC setup                      ...        0 min,  0.000 sec (  1.443%)
 Dispersion                     ...        0 min,  0.000 sec (  0.309%)
 integral evaluation            ...        0 min,  0.002 sec ( 25.103%)
 zeroth order Hamiltonian       ...        0 min,  0.000 sec (  0.426%)
 iterations                     ...        0 min,  0.002 sec ( 26.252%)
 molecular gradient             ...        0 min,  0.002 sec ( 25.800%)
 printout                       ...        0 min,  0.001 sec ( 20.492%)

         :::::::::::::::::::::::::::::::::::::::::::::::::::::
         ::                     SUMMARY                     ::
         :::::::::::::::::::::::::::::::::::::::::::::::::::::
         :: total energy             -10.062303267802 Eh    ::
         :: gradient norm              0.190511615927 Eh/a0 ::
         :: HOMO-LUMO gap              0.000008673025 eV    ::
         ::.................................................::
         :: SCC energy               -10.173356010477 Eh    ::
         :: -> isotropic ES           -0.025352907676 Eh    ::
         :: -> anisotropic ES          0.002328226846 Eh    ::
         :: -> anisotropic XC          0.006375316687 Eh    ::
         :: -> dispersion             -0.002696749563 Eh    ::
         :: repulsion energy           0.111052693685 Eh    ::
         :: add. restraining           0.000000000000 Eh    ::
         :::::::::::::::::::::::::::::::::::::::::::::::::::::

      ----------------------------------------------------------- 
     |                   =====================                   |
     |                        A N C O P T                        |
     |                   =====================                   |
     |               Approximate Normal Coordinate               |
     |                Rational Function Optimizer                |
      ----------------------------------------------------------- 

          ...................................................
          :                      SETUP                      :
          :.................................................:
          :   optimization level            normal          :
          :   max. optcycles                   200          :
          :   ANC micro-cycles                  20          :
          :   degrees of freedom                 9          :
          :.................................................:
          :   RF solver                   davidson          :
          :   write xtbopt.log                true          :
          :   linear?                        false          :
          :   energy convergence         0.5000000E-05 Eh   :
          :   grad. convergence          0.1000000E-02 Eh/α :
          :   maximium RF displ.         1.0000000          :
          :   Hlow (freq-cutoff)         0.1000000E-01      :
          :   Hmax (freq-cutoff)         5.0000000          :
          :   S6 in model hess.         20.0000000          :
          ...................................................

generating ANC from model Hessian ...
Using Lindh-Hessian (1995)
 Shifting diagonal of input Hessian by    0.0000000000000000     
 Lowest  eigenvalues of input Hessian
   -0.000000   -0.000000   -0.000000    0.000000    0.000000    0.000000
    0.114905    0.114905    0.584320    0.591024    0.786454    0.786455
    1.122666    1.122667    1.642371
 Highest eigenvalues
    0.591024    0.786454    0.786455    1.122666    1.122667    1.642371


........................................................................
.............................. CYCLE    1 ..............................
........................................................................
   1    -10.1733560 -0.101734E+02  0.283E-05    0.00       0.0  T
   2    -10.1733560  0.200780E-09  0.211E-04    0.00     211.6  T
   3    -10.1733560 -0.203222E-09  0.138E-05    0.00    3247.7  T
     SCC iter.                  ...        0 min,  0.001 sec
     gradient                   ...        0 min,  0.001 sec
 * total energy  :   -10.0623033 Eh     change        0.2018794E-08 Eh
   gradient norm :     0.1905118 Eh/α   predicted     0.0000000E+00 (-100.00%)
   displ. norm   :     0.2428547 α      lambda       -0.4281617E-01
   maximum displ.:     0.2319708 α      in ANC's #4, #9, #2, ...

........................................................................
.............................. CYCLE    2 ..............................
........................................................................
   1    -10.2047777 -0.102048E+02  0.197E+00    0.00       0.0  T
   2    -10.1886592  0.161186E-01  0.182E+00    0.00       1.0  T
   3    -10.1998063 -0.111471E-01  0.139E+00    0.00       1.0  T
   4    -10.2047274 -0.492116E-02  0.713E-01    0.00       1.0  T
   5    -10.2053188 -0.591370E-03  0.615E-01    0.01       1.0  T
   6    -10.2058329 -0.514081E-03  0.509E-01    0.00       1.0  T
   7    -10.2062911 -0.458249E-03  0.374E-01    0.00       1.0  T
   8    -10.2067994 -0.508289E-03  0.105E-01    0.00       1.0  T
   9    -10.2068409 -0.414675E-04  0.286E-02    0.00       1.6  T
  10    -10.2068440 -0.312004E-05  0.708E-03    0.00       6.3  T
  11    -10.2068442 -0.203530E-06  0.202E-03    0.00      22.1  T
  12    -10.2068442 -0.101270E-07  0.123E-03    0.00      36.3  T
  13    -10.2068442 -0.621733E-08  0.149E-04    0.00     301.0  T
  14    -10.2068442 -0.867146E-10  0.432E-05    0.00    1035.8  T
     SCC iter.                  ...        0 min,  0.002 sec
     gradient                   ...        0 min,  0.001 sec
 * total energy  :   -10.0947238 Eh     change       -0.3242057E-01 Eh
   gradient norm :     0.0990025 Eh/α   predicted    -0.2267070E-01 ( -30.07%)
   displ. norm   :     0.2805693 α      lambda       -0.2638595E-01
   maximum displ.:     0.2732045 α      in ANC's #4, #9, #2, ...

........................................................................
.............................. CYCLE    3 ..............................
........................................................................
   1    -10.2364271 -0.102364E+02  0.183E+00    0.00       0.0  T
   2    -10.2125823  0.238448E-01  0.245E+00    0.00       1.0  T
   3    -10.2339962 -0.214138E-01  0.137E+00    0.00       1.0  T
   4    -10.2354917 -0.149550E-02  0.106E+00    0.01       1.0  T
   5    -10.2377479 -0.225620E-02  0.765E-01    0.01       1.0  T
   6    -10.2397089 -0.196106E-02  0.466E-01    0.00       1.0  T
   7    -10.2404940 -0.785044E-03  0.183E-01    0.00       1.0  T
   8    -10.2405806 -0.866800E-04  0.105E-01    0.00       1.0  T
   9    -10.2405367  0.439001E-04  0.163E-01    0.00       1.0  T
  10    -10.2406126 -0.758456E-04  0.971E-02    0.00       1.0  T
  11    -10.2406540 -0.413678E-04  0.715E-03    0.00       6.3  T
  12    -10.2406541 -0.170569E-06  0.344E-03    0.00      13.0  T
  13    -10.2406542 -0.419951E-07  0.124E-03    0.00      36.1  T
  14    -10.2406542 -0.839394E-09  0.118E-03    0.00      38.0  T
  15    -10.2406542 -0.117302E-09  0.124E-03    0.00      36.1  T
  16    -10.2406542 -0.629299E-08  0.320E-04    0.00     139.6  T
  17    -10.2406542 -0.452292E-09  0.625E-05    0.00     715.9  T
     SCC iter.                  ...        0 min,  0.002 sec
     gradient                   ...        0 min,  0.001 sec
 * total energy  :   -10.1122335 Eh     change       -0.1750963E-01 Eh
   gradient norm :     0.0492458 Eh/α   predicted    -0.1423151E-01 ( -18.72%)
   displ. norm   :     0.1457715 α      lambda       -0.5571898E-02
   maximum displ.:     0.1333663 α      in ANC's #4, #9, #2, ...

........................................................................
.............................. CYCLE    4 ..............................
........................................................................
   1    -10.2395394 -0.102395E+02  0.144E+00    0.02       0.0  T
   2    -10.1875604  0.519790E-01  0.333E+00    0.01       1.0  T
   3    -10.2436473 -0.560868E-01  0.105E+00    0.02       1.0  T
   4    -10.2349275  0.871973E-02  0.133E+00    0.02       1.0  T
   5    -10.2335520  0.137558E-02  0.144E+00    0.04       1.0  T
   6    -10.2457243 -0.121724E-01  0.513E-01    0.01       1.0  T
   7    -10.2454609  0.263401E-03  0.487E-01    0.01       1.0  T
   8    -10.2467575 -0.129660E-02  0.262E-01    0.01       1.0  T
   9    -10.2470584 -0.300823E-03  0.571E-02    0.01       1.0  T
  10    -10.2470714 -0.130630E-04  0.318E-02    0.01       1.4  T
  11    -10.2470764 -0.500658E-05  0.149E-02    0.01       3.0  T
  12    -10.2470770 -0.571579E-06  0.864E-03    0.01       5.2  T
  13    -10.2470770 -0.131062E-07  0.775E-03    0.01       5.8  T
  14    -10.2470772 -0.181780E-06  0.214E-03    0.01      20.9  T
  15    -10.2470772 -0.144486E-08  0.218E-03    0.01      20.5  T
  16    -10.2470772 -0.195650E-07  0.669E-04    0.01      66.8  T
  17    -10.2470772 -0.152855E-08  0.282E-04    0.01     158.5  T
     SCC iter.                  ...        0 min,  0.002 sec
     gradient                   ...        0 min,  0.001 sec
 * total energy  :   -10.1156991 Eh     change       -0.3465617E-02 Eh
   gradient norm :     0.0322872 Eh/α   predicted    -0.2845150E-02 ( -17.90%)
   displ. norm   :     0.1528565 α      lambda       -0.2761338E-02
   maximum displ.:     0.0864964 α      in ANC's #2, #1, #4, ...

........................................................................
.............................. CYCLE    5 ..............................
........................................................................
   1    -10.2444518 -0.102445E+02  0.191E+00    0.47       0.0  T
   2    -10.1545653  0.898864E-01  0.407E+00    0.46       1.0  T
   3    -10.2468349 -0.922695E-01  0.115E+00    0.43       1.0  T
   4    -10.1767890  0.700459E-01  0.299E+00    0.56       1.0  T
   5    -10.2493513 -0.725623E-01  0.610E-01    0.43       1.0  T
   6    -10.2475647  0.178659E-02  0.615E-01    0.46       1.0  T
   7    -10.2497933 -0.222861E-02  0.550E-01    0.42       1.0  T
   8    -10.2500795 -0.286183E-03  0.570E-01    0.43       1.0  T
   9    -10.2505879 -0.508360E-03  0.344E-01    0.44       1.0  T
  10    -10.2507032 -0.115382E-03  0.258E-01    0.44       1.0  T
  11    -10.2508960 -0.192811E-03  0.974E-02    0.45       1.0  T
  12    -10.2509117 -0.156364E-04  0.818E-02    0.45       1.0  T
  13    -10.2509228 -0.111287E-04  0.564E-02    0.46       1.0  T
  14    -10.2509316 -0.876235E-05  0.284E-02    0.45       1.6  T
  15    -10.2509347 -0.315667E-05  0.620E-03    0.45       7.2  T
  16    -10.2509347  0.378593E-07  0.627E-03    0.45       7.1  T
  17    -10.2509348 -0.892487E-07  0.183E-03    0.45      24.4  T
  18    -10.2509348 -0.506483E-08  0.887E-04    0.45      50.4  T
  19    -10.2509348 -0.224341E-08  0.299E-04    0.45     149.4  T
     SCC iter.                  ...        0 min,  0.002 sec
     gradient                   ...        0 min,  0.001 sec
 * total energy  :   -10.1243938 Eh     change       -0.8694671E-02 Eh
   gradient norm :     0.0836387 Eh/α   predicted    -0.1412929E-02 ( -83.75%)
   displ. norm   :     0.5179954 α      lambda       -0.3869001E-01
   maximum displ.:     0.4087939 α      in ANC's #1, #2, #4, ...

........................................................................
.............................. CYCLE    6 ..............................
........................................................................
   1    -10.2542272 -0.102542E+02  0.332E+00    1.09       0.0  T
   2    -10.0893303  0.164897E+00  0.520E+00    1.12       1.0  T
   3    -10.2376179 -0.148288E+00  0.266E+00    1.13       1.0  T
   4    -10.2566646 -0.190468E-01  0.148E+00    1.01       1.0  T
   5    -10.2676371 -0.109725E-01  0.105E+00    1.12       1.0  T
   6    -10.2690784 -0.144124E-02  0.726E-01    1.14       1.0  T
   7    -10.2698889 -0.810466E-03  0.656E-01    1.12       1.0  T
   8    -10.2708295 -0.940674E-03  0.155E-01    1.14       1.0  T
   9    -10.2707971  0.324644E-04  0.231E-01    1.14       1.0  T
  10    -10.2708393 -0.422125E-04  0.180E-01    1.14       1.0  T
  11    -10.2709082 -0.689298E-04  0.608E-02    1.14       1.0  T
  12    -10.2709146 -0.635518E-05  0.271E-02    1.14       1.6  T
  13    -10.2709157 -0.118875E-05  0.110E-02    1.14       4.1  T
  14    -10.2709159 -0.151596E-06  0.763E-03    1.14       5.9  T
  15    -10.2709160 -0.103618E-06  0.379E-03    1.14      11.8  T
  16    -10.2709160 -0.279906E-07  0.346E-04    1.14     129.4  T
  17    -10.2709160 -0.126137E-09  0.257E-04    1.14     173.9  T
     SCC iter.                  ...        0 min,  0.002 sec
     gradient                   ...        0 min,  0.002 sec
 * total energy  :   -10.1539866 Eh     change       -0.2959287E-01 Eh
   gradient norm :     0.0660744 Eh/α   predicted    -0.2453565E-01 ( -17.09%)
   displ. norm   :     0.5278529 α      lambda       -0.2301755E-01
   maximum displ.:     0.3372240 α      in ANC's #2, #1, #4, ...

........................................................................
.............................. CYCLE    7 ..............................
........................................................................
   1    -10.2860813 -0.102861E+02  0.351E+00    1.16       0.0  T
   2    -10.2737760  0.123053E-01  0.236E+00    1.34       1.0  T
   3    -10.1638195  0.109957E+00  0.384E+00    1.10       1.0  T
   4    -10.2861558 -0.122336E+00  0.712E-01    1.17       1.0  T
   5    -10.2891452 -0.298939E-02  0.250E-01    1.25       1.0  T
   6    -10.2893563 -0.211154E-03  0.158E-01    1.26       1.0  T
   7    -10.2893639 -0.759043E-05  0.145E-01    1.26       1.0  T
   8    -10.2893958 -0.319471E-04  0.842E-03    1.27       5.3  T
   9    -10.2893959 -0.803022E-07  0.289E-03    1.27      15.5  T
  10    -10.2893959 -0.215894E-07  0.438E-04    1.27     102.1  T
  11    -10.2893959  0.220759E-09  0.295E-04    1.27     151.4  T
     SCC iter.                  ...        0 min,  0.001 sec
     gradient                   ...        0 min,  0.002 sec
 * total energy  :   -10.1651066 Eh     change       -0.1111994E-01 Eh
   gradient norm :     0.0750367 Eh/α   predicted    -0.1471546E-01 (  32.33%)
   displ. norm   :     0.1317118 α      lambda       -0.6518246E-02
   maximum displ.:     0.0810480 α      in ANC's #1, #4, #9, ...

........................................................................
.............................. CYCLE    8 ..............................
........................................................................
   1    -10.2978252 -0.102978E+02  0.102E+00    1.48       0.0  T
   2    -10.2943319  0.349335E-02  0.867E-01    1.51       1.0  T
   3    -10.2907979  0.353398E-02  0.113E+00    1.46       1.0  T
   4    -10.2966740 -0.587604E-02  0.443E-01    1.46       1.0  T
   5    -10.2984663 -0.179239E-02  0.823E-02    1.49       1.0  T
   6    -10.2985062 -0.398442E-04  0.371E-02    1.48       1.2  T
   7    -10.2985093 -0.309178E-05  0.218E-02    1.48       2.1  T
   8    -10.2985107 -0.141340E-05  0.195E-03    1.48      22.9  T
   9    -10.2985107  0.531926E-08  0.134E-03    1.48      33.4  T
  10    -10.2985107 -0.780717E-08  0.724E-04    1.48      61.7  T
  11    -10.2985107 -0.319482E-08  0.899E-05    1.48     497.7  T
     SCC iter.                  ...        0 min,  0.001 sec
     gradient                   ...        0 min,  0.001 sec
 * total energy  :   -10.1689531 Eh     change       -0.3846567E-02 Eh
   gradient norm :     0.0385504 Eh/α   predicted    -0.3315661E-02 ( -13.80%)
   displ. norm   :     0.1276587 α      lambda       -0.3692485E-02
   maximum displ.:     0.0948284 α      in ANC's #2, #8, #9, ...

........................................................................
.............................. CYCLE    9 ..............................
........................................................................
   1    -10.3150038 -0.103150E+02  0.104E+00    1.59       0.0  T
   2    -10.3089255  0.607831E-02  0.115E+00    1.69       1.0  T
   3    -10.3142050 -0.527953E-02  0.752E-01    1.63       1.0  T
   4    -10.3134902  0.714813E-03  0.567E-01    1.58       1.0  T
   5    -10.3165671 -0.307691E-02  0.109E-01    1.63       1.0  T
   6    -10.3166286 -0.614620E-04  0.612E-02    1.63       1.0  T
   7    -10.3166404 -0.117827E-04  0.108E-02    1.63       4.1  T
   8    -10.3166409 -0.526024E-06  0.142E-03    1.63      31.5  T
   9    -10.3166409 -0.628955E-10  0.255E-04    1.63     175.3  T
  10    -10.3166409  0.218169E-09  0.226E-04    1.63     198.3  T
     SCC iter.                  ...        0 min,  0.001 sec
     gradient                   ...        0 min,  0.002 sec
 * total energy  :   -10.1704168 Eh     change       -0.1463724E-02 Eh
   gradient norm :     0.0252265 Eh/α   predicted    -0.1876328E-02 (  28.19%)
   displ. norm   :     0.0324804 α      lambda       -0.5599832E-03
   maximum displ.:     0.0206937 α      in ANC's #2, #1, #7, ...

........................................................................
.............................. CYCLE   10 ..............................
........................................................................
   1    -10.3122038 -0.103122E+02  0.218E-01    1.64       0.0  T
   2    -10.3121489  0.548541E-04  0.170E-01    1.63       1.0  T
   3    -10.3120247  0.124205E-03  0.154E-01    1.65       1.0  T
   4    -10.3121654 -0.140739E-03  0.930E-02    1.64       1.0  T
   5    -10.3122261 -0.606990E-04  0.155E-02    1.64       2.9  T
   6    -10.3122268 -0.625353E-06  0.123E-02    1.64       3.6  T
   7    -10.3122274 -0.600699E-06  0.625E-04    1.64      71.6  T
   8    -10.3122274 -0.865262E-09  0.300E-04    1.64     149.1  T
     SCC iter.                  ...        0 min,  0.001 sec
     gradient                   ...        0 min,  0.001 sec
 * total energy  :   -10.1707861 Eh     change       -0.3692470E-03 Eh
   gradient norm :     0.0120016 Eh/α   predicted    -0.2802865E-03 ( -24.09%)
   displ. norm   :     0.0359949 α      lambda       -0.3312611E-03
   maximum displ.:     0.0248106 α      in ANC's #1, #7, #2, ...

........................................................................
.............................. CYCLE   11 ..............................
........................................................................
   1    -10.3106362 -0.103106E+02  0.206E-01    1.67       0.0  T
   2    -10.3102626  0.373529E-03  0.278E-01    1.67       1.0  T
   3    -10.3106754 -0.412796E-03  0.108E-01    1.67       1.0  T
   4    -10.3106891 -0.136299E-04  0.167E-02    1.68       2.7  T
   5    -10.3106906 -0.153552E-05  0.118E-02    1.67       3.8  T
   6    -10.3106911 -0.520172E-06  0.475E-03    1.67       9.4  T
   7    -10.3106912 -0.694789E-07  0.114E-03    1.67      39.4  T
   8    -10.3106912 -0.160323E-08  0.738E-04    1.67      60.6  T
   9    -10.3106912 -0.303338E-08  0.317E-04    1.67     141.0  T
     SCC iter.                  ...        0 min,  0.001 sec
     gradient                   ...        0 min,  0.002 sec
 * total energy  :   -10.1710338 Eh     change       -0.2476559E-03 Eh
   gradient norm :     0.0080199 Eh/α   predicted    -0.1658463E-03 ( -33.03%)
   displ. norm   :     0.0726521 α      lambda       -0.3752203E-03
   maximum displ.:     0.0539575 α      in ANC's #1, #7, #2, ...

........................................................................
.............................. CYCLE   12 ..............................
........................................................................
   1    -10.3095238 -0.103095E+02  0.406E-01    1.71       0.0  T
   2    -10.3090526  0.471192E-03  0.370E-01    1.70       1.0  T
   3    -10.3087230  0.329609E-03  0.344E-01    1.71       1.0  T
   4    -10.3095324 -0.809384E-03  0.102E-01    1.72       1.0  T
   5    -10.3096033 -0.709195E-04  0.216E-02    1.71       2.1  T
   6    -10.3096055 -0.220731E-05  0.932E-03    1.71       4.8  T
   7    -10.3096056 -0.608819E-07  0.218E-03    1.71      20.5  T
   8    -10.3096056 -0.218132E-07  0.464E-04    1.71      96.3  T
   9    -10.3096056  0.577449E-09  0.396E-04    1.71     113.0  T
     SCC iter.                  ...        0 min,  0.001 sec
     gradient                   ...        0 min,  0.001 sec
 * total energy  :   -10.1713188 Eh     change       -0.2850970E-03 Eh
   gradient norm :     0.0130506 Eh/α   predicted    -0.1886020E-03 ( -33.85%)
   displ. norm   :     0.1685289 α      lambda       -0.6560331E-03
   maximum displ.:     0.1309423 α      in ANC's #1, #2, #7, ...

........................................................................
.............................. CYCLE   13 ..............................
........................................................................
   1    -10.3064729 -0.103065E+02  0.104E+00    1.77       0.0  T
   2    -10.3056815  0.791442E-03  0.676E-01    1.73       1.0  T
   3    -10.2997665  0.591501E-02  0.913E-01    1.80       1.0  T
   4    -10.3056215 -0.585497E-02  0.410E-01    1.78       1.0  T
   5    -10.3067955 -0.117402E-02  0.399E-02    1.77       1.1  T
   6    -10.3067959 -0.449661E-06  0.318E-02    1.76       1.4  T
   7    -10.3067977 -0.176057E-05  0.954E-03    1.76       4.7  T
   8    -10.3067982 -0.540621E-06  0.234E-03    1.76      19.1  T
   9    -10.3067982  0.537441E-08  0.219E-03    1.76      20.5  T
  10    -10.3067983 -0.262855E-07  0.131E-04    1.76     341.7  T
  11    -10.3067983 -0.440554E-10  0.511E-05    1.76     875.2  T
     SCC iter.                  ...        0 min,  0.001 sec
     gradient                   ...        0 min,  0.002 sec
 * total energy  :   -10.1719045 Eh     change       -0.5856477E-03 Eh
   gradient norm :     0.0274415 Eh/α   predicted    -0.3373326E-03 ( -42.40%)
   displ. norm   :     0.7519295 α      lambda       -0.3098160E-02
   maximum displ.:     0.5828184 α      in ANC's #1, #2, #4, ...

........................................................................
.............................. CYCLE   14 ..............................
........................................................................
   1    -10.2784140 -0.102784E+02  0.535E+00    2.18       0.0  T
   2    -10.2028212  0.755928E-01  0.453E+00    2.22       1.0  T
   3    -10.2058852 -0.306397E-02  0.390E+00    1.92       1.0  T
   4    -10.2746864 -0.688012E-01  0.160E+00    2.17       1.0  T
   5    -10.2723327  0.235368E-02  0.152E+00    2.12       1.0  T
   6    -10.2805509 -0.821820E-02  0.116E+00    2.15       1.0  T
   7    -10.2810180 -0.467104E-03  0.111E+00    2.15       1.0  T
   8    -10.2851282 -0.411016E-02  0.300E-01    2.18       1.0  T
   9    -10.2850959  0.322675E-04  0.314E-01    2.18       1.0  T
  10    -10.2854379 -0.342010E-03  0.458E-02    2.19       1.0  T
  11    -10.2854409 -0.300844E-05  0.345E-02    2.19       1.3  T
  12    -10.2854437 -0.273529E-05  0.219E-02    2.19       2.0  T
  13    -10.2854456 -0.192745E-05  0.150E-03    2.19      29.8  T
  14    -10.2854456 -0.251067E-08  0.450E-04    2.19      99.3  T
  15    -10.2854456 -0.143469E-09  0.186E-04    2.19     241.0  T
     SCC iter.                  ...        0 min,  0.001 sec
     gradient                   ...        0 min,  0.001 sec
 * total energy  :   -10.1754696 Eh     change       -0.3565140E-02 Eh
   gradient norm :     0.0782255 Eh/α   predicted    -0.2424945E-02 ( -31.98%)
   displ. norm   :     0.0896176 α      lambda       -0.3256215E-02
   maximum displ.:     0.0879917 α      in ANC's #1, #7, #4, ...

........................................................................
.............................. CYCLE   15 ..............................
........................................................................
   1    -10.2982558 -0.102983E+02  0.581E-01    2.02       0.0  T
   2    -10.2983116 -0.558193E-04  0.372E-01    1.95       1.0  T
   3    -10.2980632  0.248345E-03  0.252E-01    2.01       1.0  T
   4    -10.2983213 -0.258104E-03  0.106E-01    1.98       1.0  T
   5    -10.2983981 -0.767456E-04  0.282E-02    1.98       1.6  T
   6    -10.2984013 -0.325086E-05  0.179E-02    1.98       2.5  T
   7    -10.2984027 -0.137858E-05  0.500E-03    1.98       8.9  T
   8    -10.2984028 -0.529816E-07  0.111E-03    1.98      40.4  T
   9    -10.2984028 -0.482647E-08  0.711E-04    1.98      62.9  T
  10    -10.2984028 -0.185426E-08  0.657E-05    1.98     680.4  T
     SCC iter.                  ...        0 min,  0.001 sec
     gradient                   ...        0 min,  0.002 sec
 * total energy  :   -10.1776487 Eh     change       -0.2179084E-02 Eh
   gradient norm :     0.0561775 Eh/α   predicted    -0.1641184E-02 ( -24.68%)
   displ. norm   :     0.4725448 α      lambda       -0.5314134E-02
   maximum displ.:     0.2627706 α      in ANC's #1, #2, #4, ...

........................................................................
.............................. CYCLE   16 ..............................
........................................................................
   1    -10.3148658 -0.103149E+02  0.372E+00    2.11       0.0  T
   2    -10.3051544  0.971138E-02  0.253E+00    2.18       1.0  T
   3    -10.2783321  0.268223E-01  0.245E+00    1.88       1.0  T
   4    -10.3153953 -0.370633E-01  0.727E-01    2.07       1.0  T
   5    -10.3183202 -0.292488E-02  0.391E-01    2.12       1.0  T
   6    -10.3189697 -0.649498E-03  0.251E-01    2.11       1.0  T
   7    -10.3191155 -0.145818E-03  0.577E-02    2.12       1.0  T
   8    -10.3191189 -0.331868E-05  0.359E-02    2.13       1.2  T
   9    -10.3191224 -0.352628E-05  0.160E-02    2.13       2.8  T
  10    -10.3191226 -0.255725E-06  0.107E-02    2.13       4.2  T
  11    -10.3191232 -0.531749E-06  0.187E-03    2.13      23.9  T
  12    -10.3191232 -0.817505E-08  0.186E-04    2.13     240.8  T
  13    -10.3191232 -0.753104E-10  0.450E-05    2.13     994.6  T
     SCC iter.                  ...        0 min,  0.002 sec
     gradient                   ...        0 min,  0.002 sec
 * total energy  :   -10.1628575 Eh     change        0.1479119E-01 Eh
   gradient norm :     0.1364206 Eh/α   predicted    -0.3250388E-02 (-121.98%)
   displ. norm   :     0.3794042 α      lambda       -0.3968791E-01
   maximum displ.:     0.2152425 α      in ANC's #1, #2, #4, ...

........................................................................
.............................. CYCLE   17 ..............................
........................................................................
   1    -10.3044116 -0.103044E+02  0.303E+00    2.14       0.0  T
   2    -10.2964861  0.792547E-02  0.219E+00    2.03       1.0  T
   3    -10.1719515  0.124535E+00  0.474E+00    2.20       1.0  T
   4    -10.3039882 -0.132037E+00  0.112E+00    2.09       1.0  T
   5    -10.2998669  0.412130E-02  0.120E+00    2.09       1.0  T
   6    -10.3075101 -0.764321E-02  0.799E-01    2.09       1.0  T
   7    -10.3087418 -0.123168E-02  0.580E-01    2.11       1.0  T
   8    -10.3092750 -0.533174E-03  0.452E-01    2.11       1.0  T
   9    -10.3096462 -0.371223E-03  0.329E-01    2.12       1.0  T
  10    -10.3100023 -0.356107E-03  0.134E-01    2.12       1.0  T
  11    -10.3100591 -0.568360E-04  0.590E-02    2.13       1.0  T
  12    -10.3100665 -0.730244E-05  0.403E-02    2.13       1.1  T
  13    -10.3100727 -0.622788E-05  0.567E-03    2.13       7.9  T
  14    -10.3100727 -0.243245E-07  0.504E-03    2.13       8.9  T
  15    -10.3100728 -0.595456E-07  0.316E-03    2.13      14.2  T
  16    -10.3100728 -0.394953E-07  0.179E-04    2.13     250.2  T
  17    -10.3100728 -0.728519E-10  0.482E-05    2.13     927.3  T
     SCC iter.                  ...        0 min,  0.002 sec
     gradient                   ...        0 min,  0.001 sec
 * total energy  :   -10.1796018 Eh     change       -0.1674427E-01 Eh
   gradient norm :     0.0307312 Eh/α   predicted    -0.2270044E-01 (  35.57%)
   displ. norm   :     0.0383706 α      lambda       -0.8049562E-03
   maximum displ.:     0.0257269 α      in ANC's #7, #2, #1, ...

........................................................................
.............................. CYCLE   18 ..............................
........................................................................
   1    -10.3129987 -0.103130E+02  0.288E-01    2.16       0.0  T
   2    -10.3128748  0.123897E-03  0.229E-01    2.16       1.0  T
   3    -10.3124872  0.387579E-03  0.242E-01    2.16       1.0  T
   4    -10.3130277 -0.540472E-03  0.274E-02    2.16       1.6  T
   5    -10.3130315 -0.383606E-05  0.118E-02    2.16       3.8  T
   6    -10.3130317 -0.162439E-06  0.122E-03    2.16      36.6  T
   7    -10.3130317 -0.503784E-09  0.728E-04    2.16      61.5  T
   8    -10.3130317 -0.383455E-09  0.616E-04    2.16      72.6  T
     SCC iter.                  ...        0 min,  0.001 sec
     gradient                   ...        0 min,  0.002 sec
 * total energy  :   -10.1802162 Eh     change       -0.6143566E-03 Eh
   gradient norm :     0.0200067 Eh/α   predicted    -0.4030710E-03 ( -34.39%)
   displ. norm   :     0.0507494 α      lambda       -0.8052994E-03
   maximum displ.:     0.0311490 α      in ANC's #7, #2, #1, ...

........................................................................
.............................. CYCLE   19 ..............................
........................................................................
   1    -10.3118862 -0.103119E+02  0.340E-01    2.28       0.0  T
   2    -10.3115635  0.322669E-03  0.323E-01    2.31       1.0  T
   3    -10.3117272 -0.163758E-03  0.205E-01    2.30       1.0  T
   4    -10.3119089 -0.181636E-03  0.109E-01    2.29       1.0  T
   5    -10.3119886 -0.797455E-04  0.372E-02    2.30       1.2  T
   6    -10.3119980 -0.937985E-05  0.115E-02    2.30       3.9  T
   7    -10.3119981 -0.128205E-06  0.128E-03    2.30      35.0  T
   8    -10.3119981 -0.588719E-08  0.645E-04    2.30      69.4  T
   9    -10.3119981  0.131314E-09  0.596E-04    2.30      75.0  T
     SCC iter.                  ...        0 min,  0.001 sec
     gradient                   ...        0 min,  0.002 sec
 * total energy  :   -10.1806069 Eh     change       -0.3907764E-03 Eh
   gradient norm :     0.0047180 Eh/α   predicted    -0.4036859E-03 (   3.30%)
   displ. norm   :     0.0096657 α      lambda       -0.3862327E-04
   maximum displ.:     0.0067591 α      in ANC's #8, #2, #4, ...

........................................................................
.............................. CYCLE   20 ..............................
........................................................................
   1    -10.3127097 -0.103127E+02  0.638E-02    2.30       0.0  T
   2    -10.3127091  0.544607E-06  0.403E-02    2.30       1.1  T
   3    -10.3126899  0.192181E-04  0.479E-02    2.30       1.0  T
   4    -10.3127086 -0.187423E-04  0.174E-02    2.30       2.6  T
   5    -10.3127109 -0.231455E-05  0.450E-03    2.30       9.9  T
   6    -10.3127110 -0.100123E-06  0.183E-03    2.30      24.5  T
   7    -10.3127111 -0.680313E-08  0.124E-04    2.30     359.9  T
   8    -10.3127111  0.343352E-10  0.988E-05    2.30     452.9  T
     SCC iter.                  ...        0 min,  0.001 sec
     gradient                   ...        0 min,  0.002 sec
 * total energy  :   -10.1806345 Eh     change       -0.2755507E-04 Eh
   gradient norm :     0.0020039 Eh/α   predicted    -0.1931274E-04 ( -29.91%)
   displ. norm   :     0.0176702 α      lambda       -0.2825402E-04
   maximum displ.:     0.0108595 α      in ANC's #1, #8, #4, ...
 * RMSD in coord.:     0.9778070 α      energy gain  -0.1183312E+00 Eh

generating ANC from model Hessian ...
Using Lindh-Hessian (1995)
 Shifting diagonal of input Hessian by    0.0000000000000000     
 Lowest  eigenvalues of input Hessian
   -0.000000   -0.000000   -0.000000    0.000000    0.000000    0.000000
    0.256059    0.461283    0.691945    0.845745    0.927498    0.962114
    1.104293    1.425207    1.556218
 Highest eigenvalues
    0.845745    0.927498    0.962114    1.104293    1.425207    1.556218


........................................................................
.............................. CYCLE   21 ..............................
........................................................................
   1    -10.3125284 -0.103125E+02  0.129E-01    2.31       0.0  T
   2    -10.3125252  0.322284E-05  0.832E-02    2.31       1.0  T
   3    -10.3124663  0.589183E-04  0.946E-02    2.30       1.0  T
   4    -10.3125306 -0.642863E-04  0.136E-02    2.31       3.3  T
   5    -10.3125313 -0.708875E-06  0.539E-03    2.31       8.3  T
   6    -10.3125313 -0.687527E-07  0.428E-03    2.31      10.4  T
   7    -10.3125315 -0.101413E-06  0.893E-04    2.31      50.1  T
   8    -10.3125315 -0.287974E-08  0.238E-04    2.31     187.7  T
     SCC iter.                  ...        0 min,  0.001 sec
     gradient                   ...        0 min,  0.001 sec
 * total energy  :   -10.1806492 Eh     change       -0.1469521E-04 Eh
   gradient norm :     0.0006092 Eh/α   predicted     0.0000000E+00 (-100.00%)
   displ. norm   :     0.0022249 α      lambda       -0.7359450E-06
   maximum displ.:     0.0021021 α      in ANC's #1, #4, #5, ...

........................................................................
.............................. CYCLE   22 ..............................
........................................................................
   1    -10.3124556 -0.103125E+02  0.144E-02    2.32       0.0  T
   2    -10.3124557 -0.187418E-07  0.852E-03    2.32       5.3  T
   3    -10.3124554  0.253668E-06  0.615E-03    2.32       7.3  T
   4    -10.3124556 -0.194502E-06  0.332E-03    2.32      13.5  T
   5    -10.3124557 -0.803677E-07  0.608E-04    2.32      73.6  T
   6    -10.3124557 -0.171086E-08  0.463E-04    2.32      96.7  T
     SCC iter.                  ...        0 min,  0.001 sec
     gradient                   ...        0 min,  0.001 sec
 * total energy  :   -10.1806500 Eh     change       -0.7680279E-06 Eh
   gradient norm :     0.0002976 Eh/α   predicted    -0.3672203E-06 ( -52.19%)
   displ. norm   :     0.0021910 α      lambda       -0.3585888E-06
   maximum displ.:     0.0020035 α      in ANC's #1, #4, #3, ...

   *** GEOMETRY OPTIMIZATION CONVERGED AFTER 22 ITERATIONS ***

------------------------------------------------------------------------
 total energy gain   :        -0.1183467 Eh      -74.2637 kcal/mol
 total RMSD          :         0.9781711 a0        0.5176 Å
 total power (kW/mol):       -14.1235989 (step)-3263.7567 (real)
------------------------------------------------------------------------

 ANCopt (total)                0 d,  0 h,  0 min,  0.095 sec
 optimizer setup                ...        0 min,  0.000 sec (  0.076%)
 model hessian                  ...        0 min,  0.000 sec (  0.171%)
 ANC generation                 ...        0 min,  0.000 sec (  0.102%)
 coordinate transformation      ...        0 min,  0.000 sec (  0.054%)
 single point calculation       ...        0 min,  0.093 sec ( 97.849%)
 optimization log               ...        0 min,  0.001 sec (  0.584%)
 hessian update                 ...        0 min,  0.000 sec (  0.054%)
 rational function              ...        0 min,  0.000 sec (  0.499%)

================
 final structure:
================
5
 xtb: 6.2.2 (9d81278992624c895f80dd42a50cac0aa55982e2)
C        -1.05604890790783   -0.31854738582635    0.01261833137166
C         0.09849576538346   -0.37876420850652    0.92127715682219
C         0.07903173614676   -0.38703967698355   -0.91972071983541
C        -0.21024018972430    0.90752770586991   -0.00189054355783
C         1.08876259610191    0.17682356544650   -0.01228422480060

 Bond Distances (Angstroems)
 ---------------------------
C1-C2=1.4705         C1-C3=1.4705         C1-C4=1.4896         C2-C1=1.4705         C2-C3=1.8411         C2-C4=1.6131         
C2-C5=1.4700         C3-C1=1.4705         C3-C2=1.8411         C3-C4=1.6131         C3-C5=1.4700         C4-C1=1.4896         
C4-C2=1.6131         C4-C3=1.6131         C4-C5=1.4905         C5-C2=1.4700         C5-C3=1.4700         C5-C4=1.4905         
 C  C  Rav=1.5476 sigma=0.1180  Rmin=1.4700  Rmax=1.8411     9

 selected bond angles (degree)
 --------------------
C3-C1-C2= 77.52                C4-C1-C2= 66.04                C4-C1-C3= 66.04                C3-C2-C1= 51.24                
C4-C2-C1= 57.55                C4-C2-C3= 55.20                C5-C2-C1= 96.95                C5-C2-C3= 51.23                
C5-C2-C4= 57.59                C2-C3-C1= 51.24                C4-C3-C1= 57.55                C4-C3-C2= 55.20                
C5-C3-C1= 96.95                C5-C3-C2= 51.23                C5-C3-C4= 57.60                C2-C4-C1= 56.41                
C3-C4-C1= 56.41                C3-C4-C2= 69.60                C5-C4-C1= 95.25                C5-C4-C2= 56.38                
C5-C4-C3= 56.38                C3-C5-C2= 77.55                C4-C5-C2= 66.03                C4-C5-C3= 66.03                

 selected dihedral angles (degree)
 ---------------------------------
C3-C2-C1-C4=290.90            C4-C2-C1-C3= 69.10            C5-C2-C1-C3= 24.93            C5-C2-C1-C4=315.83            
C2-C3-C1-C4= 69.10            C4-C3-C1-C2=290.90            C5-C3-C1-C2=335.07            C5-C3-C1-C4= 44.17            
C1-C3-C2-C4=286.26            C1-C3-C2-C5=212.45            C4-C3-C2-C1= 73.74            C4-C3-C2-C5=286.19            
C5-C3-C2-C1=147.55            C5-C3-C2-C4= 73.81            C2-C4-C1-C3=273.52            C3-C4-C1-C2= 86.48            
C5-C4-C1-C2= 43.24            C5-C4-C1-C3=316.76            C1-C4-C2-C3= 62.52            C1-C4-C2-C5=124.99            
C3-C4-C2-C1=297.48            C3-C4-C2-C5= 62.48            C5-C4-C2-C1=235.01            C5-C4-C2-C3=297.52            
C1-C4-C3-C2=297.49            C1-C4-C3-C5=235.01            C2-C4-C3-C1= 62.51            C2-C4-C3-C5=297.53            
C5-C4-C3-C1=124.99            C5-C4-C3-C2= 62.47            C3-C5-C2-C1=335.07            C3-C5-C2-C4=290.93            
C4-C5-C2-C1= 44.14            C4-C5-C2-C3= 69.07            C2-C5-C3-C1= 24.93            C2-C5-C3-C4= 69.08            
C4-C5-C3-C1=315.85            C4-C5-C3-C2=290.92            C2-C5-C4-C1=316.74            C2-C5-C4-C3=273.47            
C3-C5-C4-C1= 43.27            C3-C5-C4-C2= 86.53            
           -------------------------------------------------
          |                Final Singlepoint                |
           -------------------------------------------------

          ...................................................
          :                      SETUP                      :
          :.................................................:
          :  # basis functions                  20          :
          :  # atomic orbitals                  20          :
          :  # shells                           10          :
          :  # electrons                        20          :
          :  max. iterations                   250          :
          :  Hamiltonian                  GFN2-xTB          :
          :  restarted?                      false          :
          :  GBSA solvation                  false          :
          :  PC potential                    false          :
          :  electronic temp.          300.0000000     K    :
          :  accuracy                    1.0000000          :
          :  -> integral cutoff          0.2500000E+02      :
          :  -> integral neglect         0.1000000E-07      :
          :  -> SCF convergence          0.1000000E-05 Eh   :
          :  -> wf. convergence          0.1000000E-03 e    :
          :  Broyden damping             0.4000000          :
          ...................................................

 iter      E             dE          RMSdq      gap      omega  full diag
   1    -10.3124557 -0.103125E+02  0.178E-04    2.32       0.0  T
   2    -10.3124557  0.144617E-09  0.167E-04    2.32     267.1  T
   3    -10.3124557 -0.637801E-10  0.142E-04    2.32     315.1  T

   *** convergence criteria satisfied after 3 iterations ***

         #    Occupation            Energy/Eh            Energy/eV
      -------------------------------------------------------------
         1        2.0000           -0.7653219             -20.8255
       ...           ...                  ...                  ...
         5        2.0000           -0.5315084             -14.4631
         6        2.0000           -0.5104961             -13.8913
         7        2.0000           -0.4909696             -13.3600
         8        2.0000           -0.4702905             -12.7973
         9        1.9913           -0.4650368             -12.6543
        10        1.0087           -0.4560368             -12.4094
        11        1.0000           -0.4075938             -11.0912 (HOMO)
        12                         -0.3224578              -8.7745 (LUMO)
        13                         -0.2463127              -6.7025
        14                         -0.2071497              -5.6368
        15                         -0.0380275              -1.0348
        16                          0.0517573               1.4084
       ...                                ...                  ...
        20                          0.3581163               9.7448
      -------------------------------------------------------------
                  HL-Gap            0.0851360 Eh            2.3167 eV
             Fermi-level           -0.4127804 Eh          -11.2323 eV

 transition dipole moment (au) for excitation:          10          11
     X       Y       Z   
   0.0960   0.0224  -0.0011  total (au/Debye):    0.099   0.251
 dE (eV)             :    1.318
 oscillator strength :  0.44377E-03

 SCC (total)                   0 d,  0 h,  0 min,  0.005 sec
 SCC setup                      ...        0 min,  0.000 sec (  1.016%)
 Dispersion                     ...        0 min,  0.000 sec (  0.346%)
 integral evaluation            ...        0 min,  0.001 sec ( 30.198%)
 zeroth order Hamiltonian       ...        0 min,  0.000 sec (  0.330%)
 iterations                     ...        0 min,  0.000 sec (  8.630%)
 molecular gradient             ...        0 min,  0.002 sec ( 34.314%)
 printout                       ...        0 min,  0.001 sec ( 24.946%)

         :::::::::::::::::::::::::::::::::::::::::::::::::::::
         ::                     SUMMARY                     ::
         :::::::::::::::::::::::::::::::::::::::::::::::::::::
         :: total energy             -10.180649951568 Eh    ::
         :: gradient norm              0.000297874677 Eh/a0 ::
         :: HOMO-LUMO gap              2.316667755673 eV    ::
         ::.................................................::
         :: SCC energy               -10.312455691956 Eh    ::
         :: -> isotropic ES           -0.009013254612 Eh    ::
         :: -> anisotropic ES          0.002526947000 Eh    ::
         :: -> anisotropic XC          0.002221280596 Eh    ::
         :: -> dispersion             -0.002369580395 Eh    ::
         :: repulsion energy           0.131805726920 Eh    ::
         :: add. restraining           0.000000000000 Eh    ::
         :::::::::::::::::::::::::::::::::::::::::::::::::::::

           ------------------------------------------------- 
          |                Numerical Hessian                |
           ------------------------------------------------- 
step length          :   0.00500
SCC accuracy         :   0.30000
Hessian scale factor :   1.00000
frozen atoms in %    :   0.00000    0
RMS gradient         :   0.00030
estimated CPU  time      0.00 min
estimated wall time      0.00 min

writing file <hessian>.

 projected vibrational frequencies (cm-1)
eigval :       -0.00    -0.00    -0.00     0.00     0.00     0.00
eigval :       70.81   323.10   613.70   794.67   910.02   940.17
eigval :     1022.59  1271.08  1407.90
           -------------------------------------------------
          |                Property Printout                |
           -------------------------------------------------

    * Orbital Energies and Occupations

         #    Occupation            Energy/Eh            Energy/eV
      -------------------------------------------------------------
         1        2.0000           -0.7653219             -20.8255
         2        2.0000           -0.6588565             -17.9284
         3        2.0000           -0.6406723             -17.4336
         4        2.0000           -0.6188436             -16.8396
         5        2.0000           -0.5315085             -14.4631
         6        2.0000           -0.5104960             -13.8913
         7        2.0000           -0.4909696             -13.3600
         8        2.0000           -0.4702905             -12.7973
         9        1.9913           -0.4650368             -12.6543
        10        1.0087           -0.4560368             -12.4094
        11        1.0000           -0.4075938             -11.0912 (HOMO)
        12                         -0.3224578              -8.7745 (LUMO)
        13                         -0.2463127              -6.7025
        14                         -0.2071497              -5.6368
        15                         -0.0380274              -1.0348
        16                          0.0517573               1.4084
        17                          0.0605608               1.6479
        18                          0.1023071               2.7839
        19                          0.2112589               5.7486
        20                          0.3581163               9.7448
      -------------------------------------------------------------
                  HL-Gap            0.0851360 Eh            2.3167 eV
             Fermi-level           -0.4127804 Eh          -11.2323 eV

     #   Z        covCN         q      C6AA      α(0)
     1   6 C      3.074    -0.016    28.333     8.727
     2   6 C      3.703    -0.026    21.189     6.582
     3   6 C      3.703    -0.026    21.189     6.582
     4   6 C      3.877     0.084    19.147     6.221
     5   6 C      3.074    -0.016    28.332     8.727

 Mol. C6AA /au·bohr⁶  :        585.486759
 Mol. C8AA /au·bohr⁸  :      16933.294503
 Mol. α(0) /au        :         36.838992


Wiberg/Mayer (AO) data.
largest (>0.10) Wiberg bond orders for each atom
          total WBO             WBO to atom ...
     1  C   2.948        C    2 0.915    C    3 0.915    C    4 0.868    C    5 0.250
     2  C   3.008        C    5 0.916    C    1 0.915    C    4 0.624    C    3 0.553
     3  C   3.008        C    5 0.916    C    1 0.915    C    4 0.624    C    2 0.553
     4  C   2.982        C    1 0.868    C    5 0.866    C    2 0.624    C    3 0.624
     5  C   2.949        C    2 0.916    C    3 0.916    C    4 0.866    C    1 0.250

MOs/occ written to file <molden.input>


molecular dipole:
                 x           y           z       tot (Debye)
 q only:       -0.043       0.185      -0.000
   full:       -0.134       0.584      -0.001       1.523
molecular quadrupole (traceless):
                xx          xy          yy          xz          yz          zz
 q only:       -0.148      -0.122       0.350      -0.000      -0.001      -0.202
  q+dip:       -0.307      -0.419       1.416      -0.007      -0.007      -1.108
   full:       -1.428      -0.870       2.136       0.012      -0.004      -0.708

           -------------------------------------------------
          |                Geometry Summary                 |
           -------------------------------------------------

      molecular mass/u    :       60.0536795
   center of mass at/Å    :        0.0000002      -0.0000000      -0.0000000
  moments of inertia/u·Å² :        0.3461777E+02   0.4336465E+02   0.4945992E+02
rotational constants/cm⁻¹ :        0.4869648E+00   0.3887414E+00   0.3408342E+00

 * 6 selected distances

     #   Z        #   Z                                     value/Å
     1   6 C      2   6 C                                 1.4704626
     1   6 C      3   6 C                                 1.4704949
     1   6 C      4   6 C                                 1.4895849
     2   6 C      5   6 C                                 1.4699806 (min)
     3   6 C      5   6 C                                 1.4700133
     4   6 C      5   6 C                                 1.4904512 (max)

 * 1 distinct bonds (by element types)

   Z      Z             #   av. dist./Å        max./Å        min./Å
   6 C    6 C           6     1.4768313     1.4904512     1.4699806

           -------------------------------------------------
          |               Frequency Printout                |
           -------------------------------------------------
 projected vibrational frequencies (cm-1)
eigval :       -0.00    -0.00    -0.00     0.00     0.00     0.00
eigval :       70.81   323.10   613.70   794.67   910.02   940.17
eigval :     1022.59  1271.08  1407.90
 reduced masses (amu)
   1: 12.01   2: 12.01   3: 12.01   4: 12.01   5: 12.01   6: 12.01   7: 12.01   8: 12.01
   9: 12.01  10: 12.01  11: 12.01  12: 12.01  13: 12.01  14: 12.01  15: 12.01
Molecule has the following symmetry elements: (C2) 2*(sigma) 
It seems to be the C2v point group
 IR intensities (amu)
   1:  0.03   2:  0.05   3:  0.19   4:  0.08   5:  0.13   6:  0.11   7:  1.52   8:  0.17
   9:  0.56  10:  0.30  11:  0.01  12:  0.68  13:  1.25  14:  1.24  15:  0.23
 Raman intensities (amu)
   1:  0.00   2:  0.00   3:  0.00   4:  0.00   5:  0.00   6:  0.00   7:  0.00   8:  0.00
   9:  0.00  10:  0.00  11:  0.00  12:  0.00  13:  0.00  14:  0.00  15:  0.00
 output can be read by thermo (or use thermo option).
 writing <g98.out> molden fake output.
 recommended (thermochemical) frequency scaling factor: 1.0
           -------------------------------------------------
          |             Thermodynamic Functions             |
           -------------------------------------------------

c2v symmetry found (for desy threshold:  0.10E+00) used in thermo

          ...................................................
          :                      SETUP                      :
          :.................................................:
          :  # frequencies                           9      :
          :  # imaginary freq.                       0      :
          :  linear?                             false      :
          :  only rotor calc.                    false      :
          :  symmetry                              c2v      :
          :  rotational number                       2      :
          :  scaling factor                  1.0000000      :
          :  rotor cutoff                   50.0000000 cm⁻¹ :
          :  imag. cutoff                  -20.0000000 cm⁻¹ :
          :.................................................:

    mode    ω/cm⁻¹     T·S(HO)/kcal·mol⁻¹    T·S(FR)/kcal·mol⁻¹   T·S(vib)
   ------------------------------------------------------------------------
       1     70.81    -0.00001 ( 80.09%)     0.00181 ( 19.91%)     0.00035
   ------------------------------------------------------------------------

   temp. (K)  partition function   enthalpy   heat capacity  entropy
                                   cal/mol     cal/K/mol   cal/K/mol   J/K/mol
 298.15  VIB   4.88                  984.277      6.813      6.264
         ROT  0.104E+05              888.752      2.981     21.364
         INT  0.508E+05             1873.029      9.794     27.627
         TR   0.450E+27             1481.254      4.968     38.181
         TOT                        3354.2829    14.7618    65.8081   275.3410

   temp. (K)  partition function   enthalpy   heat capacity  entropy
                                   cal/mol     cal/K/mol   cal/K/mol   J/K/mol
 120.00  VIB   1.79                  172.377      2.609      2.573
         ROT  0.266E+04              357.707      2.981     18.651
         INT  0.475E+04              530.083      5.590     21.224
         TR   0.115E+27              596.178      4.968     33.661
         TOT                        1126.2615    10.5582    54.8851   229.6393

   temp. (K)  partition function   enthalpy   heat capacity  entropy
                                   cal/mol     cal/K/mol   cal/K/mol   J/K/mol
 100.00  VIB   1.58                  123.614      2.270      2.160
         ROT  0.202E+04              298.089      2.981     18.107
         INT  0.319E+04              421.703      5.251     20.268
         TR   0.875E+26              496.815      4.968     32.756
         TOT                         918.5185    10.2190    53.0237   221.8511

   temp. (K)  partition function   enthalpy   heat capacity  entropy
                                   cal/mol     cal/K/mol   cal/K/mol   J/K/mol
  80.00  VIB   1.39                   81.481      1.946      1.727
         ROT  0.145E+04              238.471      2.981     17.442
         INT  0.201E+04              319.952      4.926     19.169
         TR   0.626E+26              397.452      4.968     31.648
         TOT                         717.4039     9.8946    50.8167   212.6171

   temp. (K)  partition function   enthalpy   heat capacity  entropy
                                   cal/mol     cal/K/mol   cal/K/mol   J/K/mol
  60.00  VIB   1.22                   45.763      1.623      1.253
         ROT   940.                  178.853      2.981     16.585
         INT  0.115E+04              224.617      4.604     17.838
         TR   0.406E+26              298.089      4.968     30.219
         TOT                         522.7056     9.5722    48.0571   201.0711

   temp. (K)  partition function   enthalpy   heat capacity  entropy
                                   cal/mol     cal/K/mol   cal/K/mol   J/K/mol
  40.00  VIB   1.08                   17.211      1.191      0.712
         ROT   511.                  119.236      2.981     15.376
         INT   555.                  136.447      4.172     16.088
         TR   0.221E+26              198.726      4.968     28.206
         TOT                         335.1726     9.1399    44.2942   185.3271

   temp. (K)  partition function   enthalpy   heat capacity  entropy
                                   cal/mol     cal/K/mol   cal/K/mol   J/K/mol
  20.00  VIB   1.01                    1.249      0.320      0.160
         ROT   181.                   59.618      2.981     13.310
         INT   182.                   60.867      3.301     13.470
         TR   0.782E+25               99.363      4.968     24.764
         TOT                         160.2301     8.2692    38.2338   159.9704

   temp. (K)  partition function   enthalpy   heat capacity  entropy
                                   cal/mol     cal/K/mol   cal/K/mol   J/K/mol
  10.00  VIB   1.00                    0.008      0.008     -0.037
         ROT   63.9                   29.809      2.981     11.243
         INT   63.9                   29.817      2.989     11.207
         TR   0.277E+25               49.681      4.968     21.322
         TOT                          79.4980     7.9568    32.5289   136.1011

       T/K    H(0)-H(T)+PV         H(T)/Eh          T*S/Eh         G(T)/Eh
   ------------------------------------------------------------------------
    298.15    0.534539E-02    0.220991E-01    0.312675E-01   -0.916841E-02
    120.00    0.179481E-02    0.185486E-01    0.104958E-01    0.805276E-02
    100.00    0.146375E-02    0.182175E-01    0.844986E-02    0.976763E-02
     80.00    0.114326E-02    0.178970E-01    0.647853E-02    0.114185E-01
     60.00    0.832984E-03    0.175867E-01    0.459504E-02    0.129917E-01
     40.00    0.534132E-03    0.172879E-01    0.282349E-02    0.144644E-01
     20.00    0.255343E-03    0.170091E-01    0.121859E-02    0.157905E-01
     10.00    0.126688E-03    0.168804E-01    0.518382E-03    0.163620E-01 (used)
   ------------------------------------------------------------------------

         :::::::::::::::::::::::::::::::::::::::::::::::::::::
         ::                  THERMODYNAMIC                  ::
         :::::::::::::::::::::::::::::::::::::::::::::::::::::
         :: total free energy         -10.164287904677 Eh   ::
         ::.................................................::
         :: total energy              -10.180649951657 Eh   ::
         :: zero point energy           0.016753740581 Eh   ::
         :: G(RRHO) w/o ZPVE           -0.000391693600 Eh   ::
         :: G(RRHO) contrib.            0.016362046980 Eh   ::
         :::::::::::::::::::::::::::::::::::::::::::::::::::::

optimized geometry written to: xtbopt.xyz


           -------------------------------------------------
          | TOTAL ENERGY              -10.180649951657 Eh   |
          | TOTAL ENTHALPY            -10.163769522925 Eh   |
          | TOTAL FREE ENERGY         -10.164287904677 Eh   |
          | GRADIENT NORM               0.000297889392 Eh/α |
          | HOMO-LUMO GAP               2.316667565818 eV   |
           -------------------------------------------------

------------------------------------------------------------------------
 * finished run on 2020/05/12 at 11:44:38.335     
------------------------------------------------------------------------
 total:
 * wall-time:     0 d,  0 h,  0 min,  0.237 sec
 *  cpu-time:     0 d,  0 h,  0 min,  0.236 sec
 * ratio c/w:     0.997 speedup
 SCF:
 * wall-time:     0 d,  0 h,  0 min,  0.006 sec
 *  cpu-time:     0 d,  0 h,  0 min,  0.006 sec
 * ratio c/w:     0.988 speedup
 ANC optimizer:
 * wall-time:     0 d,  0 h,  0 min,  0.101 sec
 *  cpu-time:     0 d,  0 h,  0 min,  0.100 sec
 * ratio c/w:     0.998 speedup
 numerical hessian:
 * wall-time:     0 d,  0 h,  0 min,  0.114 sec
 *  cpu-time:     0 d,  0 h,  0 min,  0.113 sec
 * ratio c/w:     0.997 speedup

