[Molden Format]
[Title]
[Atoms] AU
C      1     6 -0.19956460936148E+01 -0.60195677028796E+00  0.23853204969034E-01
C      2     6  0.18613233314565E+00 -0.71575848952436E+00  0.17409619492500E+01
C      3     6  0.14933842616968E+00 -0.73140273636385E+00 -0.17380193551581E+01
C      4     6 -0.39728737497330E+00  0.17149807294659E+01 -0.35742155960444E-02
C      5     6  0.20574645989987E+01  0.33413726670038E+00 -0.23221583471419E-01
[GTO]
           1 0
 s           4   1.0000000000000000     
   51.049363095579913      -0.16312063210127389     
   8.7911227406887544      -0.19911024581000730     
  0.70640422258929825       0.31882047753655751     
  0.26922813413411617       0.12706504184240380     
 p           4   1.0000000000000000     
   5.8263656140800002       0.73716451545209605     
   1.5106896018720002       0.68216371614850257     
  0.53256483288000001       0.35783053929253711     
  0.21202323690600003        5.3983030275847881E-002

           2 0
 s           4   1.0000000000000000     
   51.049363095579913      -0.16312063210127389     
   8.7911227406887544      -0.19911024581000730     
  0.70640422258929825       0.31882047753655751     
  0.26922813413411617       0.12706504184240380     
 p           4   1.0000000000000000     
   5.8263656140800002       0.73716451545209605     
   1.5106896018720002       0.68216371614850257     
  0.53256483288000001       0.35783053929253711     
  0.21202323690600003        5.3983030275847881E-002

           3 0
 s           4   1.0000000000000000     
   51.049363095579913      -0.16312063210127389     
   8.7911227406887544      -0.19911024581000730     
  0.70640422258929825       0.31882047753655751     
  0.26922813413411617       0.12706504184240380     
 p           4   1.0000000000000000     
   5.8263656140800002       0.73716451545209605     
   1.5106896018720002       0.68216371614850257     
  0.53256483288000001       0.35783053929253711     
  0.21202323690600003        5.3983030275847881E-002

           4 0
 s           4   1.0000000000000000     
   51.049363095579913      -0.16312063210127389     
   8.7911227406887544      -0.19911024581000730     
  0.70640422258929825       0.31882047753655751     
  0.26922813413411617       0.12706504184240380     
 p           4   1.0000000000000000     
   5.8263656140800002       0.73716451545209605     
   1.5106896018720002       0.68216371614850257     
  0.53256483288000001       0.35783053929253711     
  0.21202323690600003        5.3983030275847881E-002

           5 0
 s           4   1.0000000000000000     
   51.049363095579913      -0.16312063210127389     
   8.7911227406887544      -0.19911024581000730     
  0.70640422258929825       0.31882047753655751     
  0.26922813413411617       0.12706504184240380     
 p           4   1.0000000000000000     
   5.8263656140800002       0.73716451545209605     
   1.5106896018720002       0.68216371614850257     
  0.53256483288000001       0.35783053929253711     
  0.21202323690600003        5.3983030275847881E-002

[MO]
Sym=     1a
Ene=  -0.76532189399646511     
Spin= Alpha
Occup=     2.00000000
           1 -0.23880976830940526     
           2 -0.12313702293701895     
           3  -4.3449267733491788E-002
           4   1.4993647353933857E-003
           5 -0.25884840979394108     
           6   1.4280860525013003E-002
           7  -5.5843405638306753E-002
           8  0.11647665669454563     
           9 -0.25884394316903814     
          10   1.1819287468061164E-002
          11  -5.6888389213964420E-002
          12 -0.11624164777197141     
          13 -0.28609098511969133     
          14  -3.5601319194860252E-002
          15  0.15396143356950390     
          16  -3.2027824845050150E-004
          17 -0.23877657123649232     
          18  0.12971398278143451     
          19   1.5001082332461091E-002
          20  -1.4376314179191142E-003
Sym=     2a
Ene=  -0.65885654022197515     
Spin= Alpha
Occup=     2.00000000
           1  0.43989075228933494     
           2   2.6243777861422835E-002
           3   3.7006881203080620E-002
           4  -4.4285925068022304E-004
           5  -3.8031349909960628E-004
           6 -0.25114628424506413     
           7  -5.7839320155612842E-002
           8   3.0689823718940902E-003
           9  -3.7961323585083463E-004
          10 -0.25113182495300151     
          11  -5.7836466147548386E-002
          12   2.7632665146861230E-003
          13   7.2433841312952857E-004
          14 -0.30405881279569003     
          15  -7.0339523613461977E-002
          16   3.5318268541518630E-003
          17 -0.43996231215766568     
          18   3.9759018002924106E-002
          19  -2.1143669961685440E-002
          20  -3.2693033858343865E-004
Sym=     3a
Ene=  -0.64067231160251414     
Spin= Alpha
Occup=     2.00000000
           1  -1.4174014360336022E-005
           2  -2.8570747741919781E-003
           3  -1.1965176756136729E-003
           4 -0.26927420883622705     
           5 -0.44380665388011642     
           6   1.9911458396167599E-002
           7  -8.9385009017791173E-002
           8  -6.1811768327150948E-002
           9  0.44378193824499529     
          10  -2.1228701039718561E-002
          11   8.8855108776302927E-002
          12  -6.2181727283383274E-002
          13   4.7998095541951748E-005
          14  -3.3526672707174972E-003
          15  -1.4331714080252653E-003
          16 -0.31718791190468520     
          17  -1.3455530224227619E-005
          18  -2.8471881396430932E-003
          19  -1.1944118323119551E-003
          20 -0.26939957932950048     
Sym=     4a
Ene=  -0.61884357332489770     
Spin= Alpha
Occup=     2.00000000
           1  -5.3943770039733822E-002
           2  -8.2685390226501079E-002
           3  0.27745649313667414     
           4  -3.5597513881904119E-004
           5 -0.23118241641143694     
           6  -5.3555938475896549E-002
           7  0.23735477634154434     
           8   7.7889586668751606E-002
           9 -0.23123834683077171     
          10  -5.5209152937666935E-002
          11  0.23663024451570294     
          12  -7.8858632898661685E-002
          13  0.52406820665562914     
          14  -2.2006519834236633E-002
          15   9.7195732957903236E-002
          16  -1.7319676277203949E-004
          17  -5.2833552435227769E-002
          18  -4.7383651548462302E-002
          19  0.28561730888973202     
          20  -7.6604904236597313E-004
Sym=     5a
Ene=  -0.53150845652776846     
Spin= Alpha
Occup=     2.00000000
           1  -1.8231584679339543E-005
           2  -4.5829005044618334E-003
           3  -1.8528290429055392E-003
           4 -0.43152736857603080     
           5   2.7906372241073054E-004
           6  0.40306714095737839     
           7   9.2838267393792528E-002
           8  -4.6170176868262957E-003
           9  -2.7915214243645441E-004
          10 -0.40298226413585547     
          11  -9.2818472554806936E-002
          12   4.7424694509762937E-003
          13   7.7502814118762744E-008
          14  -1.2397665561522946E-004
          15  -3.0021811652752993E-005
          16  -7.3332083378697531E-004
          17   1.9024369027211647E-005
          18   4.5867058819304826E-003
          19   1.8539276710983113E-003
          20  0.43162259214480309     
Sym=     6a
Ene=  -0.51049604862639619     
Spin= Alpha
Occup=     2.00000000
           1   9.2592752226008629E-002
           2   7.7019707181031682E-002
           3 -0.45000922400542936     
           4   1.1139871961755165E-003
           5   4.4800795231711568E-004
           6 -0.22287206261328590     
           7  -5.1020365084428081E-002
           8   2.8530508114319752E-003
           9   4.4790427404810609E-004
          10 -0.22305521990772070     
          11  -5.1063858081303912E-002
          12   2.3222242168587093E-003
          13  -3.1884239552130099E-004
          14  0.48238083333867315     
          15  0.11087816910678436     
          16  -5.6003515036842418E-003
          17  -9.5711862745926218E-002
          18 -0.13039135056790804     
          19  0.43765817515351968     
          20  -4.9394287104155370E-004
Sym=     7a
Ene=  -0.49096962568705044     
Spin= Alpha
Occup=     2.00000000
           1  0.51586224252137147     
           2 -0.35608061559803683     
           3  -7.8511969402584050E-002
           4   4.1079218649550664E-003
           5 -0.28091817284890908     
           6  -6.3756032740532910E-003
           7   1.6674291456752040E-002
           8 -0.17655329096212372     
           9 -0.28087189911059446     
          10  -2.6303696360847487E-003
          11   1.8210707674891038E-002
          12  0.17647027584728650     
          13 -0.11972835452566827     
          14   1.2624224175233383E-002
          15  -4.9360048924636170E-002
          16   1.2862606911938950E-004
          17  0.51529504992914299     
          18  0.35351984744642917     
          19   8.8355105362111108E-002
          20  -4.1472114103452704E-003
Sym=     8a
Ene=  -0.47029047776104577     
Spin= Alpha
Occup=     1.99996529
           1   1.1152763121821092E-004
           2   1.2438340815962209E-004
           3   6.1518339543938813E-005
           4   2.1924427400195925E-002
           5  0.34390567322080323     
           6   9.8494392904939096E-002
           7 -0.41896040633805159     
           8  0.18717403588142162     
           9 -0.34367372688604075     
          10  -9.4549499193607722E-002
          11  0.42060218409237765     
          12  0.18514842952036042     
          13   8.4010872895006985E-005
          14  -5.5224260561789499E-003
          15  -2.2371663453136285E-003
          16 -0.51999372367488905     
          17   1.1133601277320452E-004
          18   3.3569622715335067E-004
          19   1.0931985525840185E-004
          20   2.1092829911458971E-002
Sym=     9a
Ene=  -0.46503684645118915     
Spin= Alpha
Occup=     1.99132564
           1 -0.20705195062594089     
           2  0.23634724850007685     
           3   9.9246043433649338E-003
           4  -2.5536318929001399E-003
           5 -0.39011038860840225     
           6  -4.0749921512105314E-003
           7  -6.0382515258814214E-003
           8 -0.47833727040569984     
           9 -0.39037971106393266     
          10   5.9733455322046047E-003
          11  -1.4279282740756009E-003
          12  0.47849009766082279     
          13  -3.4293214675828999E-002
          14   2.3932547868312965E-002
          15 -0.10480158126545207     
          16   5.4141265227416780E-005
          17 -0.20682193091709680     
          18 -0.21645678539091992     
          19  -9.5580340836662198E-002
          20   2.7095555084872547E-003
Sym=    10a
Ene=  -0.45603679464657959     
Spin= Alpha
Occup=     1.00870907
           1   4.6074131593406162E-002
           2   4.2988575801828572E-003
           3 -0.13578372740897154     
           4   5.5841942868494778E-004
           5   2.1088111806780337E-002
           6   6.5148879708007798E-002
           7 -0.28925794716500380     
           8 -0.11988878245340326     
           9   2.1161735412454193E-002
          10   6.7716843147952663E-002
          11 -0.28826210253305190     
          12  0.12102883074105972     
          13  0.54792215593501570     
          14 -0.15122288091377775     
          15  0.65749575335408295     
          16  -1.2966150226002711E-003
          17   4.5602769058606989E-002
          18   5.4977196341708653E-002
          19 -0.12301593539813331     
          20  -3.4844490485430598E-005
Sym=    11a
Ene=  -0.40759381300798375     
Spin= Alpha
Occup=     1.00000000
           1  0.32083109667727061     
           2 -0.59682185041551361     
           3  -9.3294368177899295E-002
           4   6.7337126207027646E-003
           5   2.6562688271823531E-005
           6  0.20875963413059367     
           7   4.8486747563738629E-002
           8  -2.4141029841561012E-003
           9   2.6555650424479991E-005
          10  0.20875601534081858     
          11   4.8485896509175348E-002
          12  -2.4377569681859152E-003
          13  -2.3749983345395796E-004
          14  0.12905212587276607     
          15   2.9693877313838324E-002
          16  -1.4984240852993819E-003
          17 -0.32105435946550609     
          18 -0.57744081940505287     
          19 -0.17792258469581082     
          20   6.9049072329566280E-003
Sym=    12a
Ene=  -0.32245784651598497     
Spin= Alpha
Occup=     0.00000000
           1  -2.9241290210741453E-006
           2  -4.5532157946941865E-003
           3  -1.9071967000772428E-003
           4 -0.42964367657439284     
           5  0.11727177403751662     
           6  -3.5157272124315124E-002
           7  0.18170658872826245     
           8  0.58596536867079541     
           9 -0.11724092606332914     
          10   4.7574943136474021E-002
          11 -0.17650172230185657     
          12  0.58666961394115702     
          13   3.3748482976220637E-010
          14   2.1535882599012760E-003
          15   9.0110586451759198E-004
          16  0.20334032349149461     
          17  -2.9073675824184608E-006
          18  -4.5428695497991729E-003
          19  -1.9041533285242391E-003
          20 -0.42929253642106585     
Sym=    13a
Ene=  -0.24631271667902305     
Spin= Alpha
Occup=     0.00000000
           1  -1.2784221094720705E-003
           2  0.12340057212880920     
           3 -0.55238302081003210     
           4   1.1986524709372275E-003
           5  -3.2117770628130107E-002
           6 -0.12670608445694340     
           7  0.55011647663409358     
           8   3.7052163581531593E-002
           9  -3.2101547952572369E-002
          10 -0.12745233414626136     
          11  0.54951378189318212     
          12  -3.9191864541436534E-002
          13   4.6404676416451525E-002
          14  -6.0039091270478372E-002
          15  0.25974510975209703     
          16  -6.6345006665479334E-004
          17  -1.4611349369097926E-003
          18  0.13204033060753798     
          19 -0.55123881418127629     
          20   1.1020060085346344E-003
Sym=    14a
Ene=  -0.20714967628373207     
Spin= Alpha
Occup=     0.00000000
           1  -4.1472852131147269E-007
           2  -2.9585446745206351E-003
           3  -1.3926185397573623E-003
           4 -0.28228044006115083     
           5   5.5244900658924893E-002
           6  0.11781092557032256     
           7 -0.51883943323230597     
           8 -0.18598012135045802     
           9  -5.5255720154140181E-002
          10 -0.12181603513188874     
          11  0.51736350255592056     
          12 -0.18818646655286916     
          13   1.7709367142167965E-005
          14   8.5925056594701923E-003
          15   3.6911517524354960E-003
          16  0.81318645853536120     
          17  -4.2961366402607464E-007
          18  -2.9499586006012895E-003
          19  -1.3899404422133702E-003
          20 -0.28177397396748843     
Sym=    15a
Ene=   -3.8027444166698343E-002
Spin= Alpha
Occup=     0.00000000
           1   2.7802266229331331E-002
           2  0.17340748547295440     
           3 -0.60810615255703482     
           4   8.0097027279168130E-004
           5   2.4445295070313767E-004
           6  0.41264924675046405     
           7   9.5978243502122057E-002
           8  -5.0084241954832130E-003
           9   2.4405729420145139E-004
          10  0.41288684842020323     
          11   9.6034256773883622E-002
          12  -4.5862745224992891E-003
          13  -1.5462804855029199E-003
          14 -0.79418685224218322     
          15 -0.18150537913280354     
          16   9.2155369175225006E-003
          17  -2.7107780483130447E-002
          18 -0.11327838865189498     
          19  0.62305140400089931     
          20  -1.5046522360888555E-003
Sym=    16a
Ene=    5.1757325115047929E-002
Spin= Alpha
Occup=     0.00000000
           1  -4.9676304446285975E-005
           2   5.7702302128929909E-003
           3   2.3884938843774682E-003
           4  0.54947068047143810     
           5 -0.62670350695714072     
           6   9.8351151260582373E-002
           7 -0.28018877822831673     
           8  0.52803911821456762     
           9  0.62667677960764767     
          10  -8.7175680763121460E-002
          11  0.28489187711509623     
          12  0.52747013160833423     
          13   1.3224995042268874E-004
          14   3.1550370170437842E-003
          15   1.2145597915653118E-003
          16  0.29646620443175647     
          17  -4.6370539837378180E-005
          18   5.3424138839993068E-003
          19   2.1949441772114984E-003
          20  0.49869458529224786     
Sym=    17a
Ene=    6.0560813156342638E-002
Spin= Alpha
Occup=     0.00000000
           1   7.2416098086863467E-005
           2  -7.1177213629609716E-003
           3  -2.9143671707518139E-003
           4 -0.67583553432953114     
           5  -2.3299862952954688E-002
           6 -0.70608201386561953     
           7 -0.17425945040625179     
           8   2.7678265309757227E-002
           9   2.3297572069882831E-002
          10  0.70650051353799503     
          11  0.17443254176106968     
          12   1.1170300660041982E-002
          13   7.4201053930680946E-006
          14   3.2908002178242958E-004
          15   9.1064567701237142E-005
          16   1.0842069030620875E-002
          17  -7.7000907690371570E-005
          18   7.6487904845593847E-003
          19   3.1097283420365033E-003
          20  0.71481203269147231     
Sym=    18a
Ene=   0.10230708232500299     
Spin= Alpha
Occup=     0.00000000
           1  -8.4088622633313154E-002
           2  -8.8752559419494753E-003
           3 -0.42879248234597789     
           4   1.9761536013447735E-003
           5 -0.31202360811660818     
           6   7.0757794984448272E-002
           7 -0.27502498240274209     
           8  0.27462044930562440     
           9 -0.31220549368568240     
          10   6.4986952361303280E-002
          11 -0.27763580822358169     
          12 -0.27371929202976486     
          13  0.83495473198948567     
          14  0.19269632387494806     
          15 -0.82815679942971598     
          16   1.6395341838543959E-003
          17  -9.0394027300667562E-002
          18  0.20060666613050246     
          19 -0.37821297351170557     
          20  -4.7141472768249610E-004
Sym=    19a
Ene=   0.21125888660049710     
Spin= Alpha
Occup=     0.00000000
           1  0.68430978488876471     
           2  0.51953894253586341     
           3  0.20483331772920568     
           4  -6.3269103205677978E-003
           5   1.2476215098510114E-003
           6  0.55562905813105945     
           7  0.12958040275896837     
           8  -7.5618347480254661E-003
           9   1.2462053917896786E-003
          10  0.55542345513400948     
          11  0.12953711534684265     
          12  -5.3549278123272877E-003
          13  -4.8397222117738895E-003
          14  0.54634726303496417     
          15  0.13109757092030525     
          16  -6.3679484044457382E-003
          17 -0.68226689192016665     
          18  0.55322814580441870     
          19   4.7649504593287713E-002
          20  -6.1553986754066710E-003
Sym=    20a
Ene=   0.35811630122742472     
Spin= Alpha
Occup=     0.00000000
           1 -0.60641910747927541     
           2 -0.71186321849968082     
           3 -0.12544905015159705     
           4   8.0584169183045666E-003
           5  0.51907304034847890     
           6  -3.3520789175553248E-002
           7  0.12633873125198472     
           8 -0.46486040768077930     
           9  0.51893351112694242     
          10  -2.3685049168795682E-002
          11  0.13046872885975291     
          12  0.46421396504755658     
          13  0.27857965774031901     
          14   5.2030203185369855E-002
          15 -0.22712814105449236     
          16   4.8020646176974077E-004
          17 -0.60804181331857043     
          18  0.69573401697104409     
          19  0.20100729300636083     
          20  -8.2973462943850482E-003
