$hessian                                                                        
        0.4835227838   0.1358860159  -0.0045750120  -0.1459000319   0.0144815175
       -0.0991812500  -0.1416637307   0.0148977839   0.1009160625  -0.1105569746
       -0.1243022415   0.0022257760  -0.0854020466  -0.0409630758   0.0006144235
        0.1358860159   0.1176925862  -0.0015115851  -0.0324476161   0.0156607996
       -0.0165058306  -0.0312297499   0.0156062834   0.0165730896  -0.0684421848
       -0.1555104266   0.0016415984  -0.0037664652   0.0065507574  -0.0001972723
       -0.0045750120  -0.0015115851   0.1044717560  -0.0987562255   0.0210985793
       -0.0487006913   0.1009139802  -0.0220196100  -0.0528767351   0.0019641251
        0.0022445094   0.0472728080   0.0004531322   0.0001881064  -0.0501671376
       -0.1459000319  -0.0324476161  -0.0987562255   0.2153397535   0.0218611457
        0.0293985470  -0.0028466931   0.0063675479   0.0073725441   0.0517130211
        0.0380981539  -0.0194481735  -0.1183060495  -0.0338792315   0.0814333078
        0.0144815175   0.0156607996   0.0210985793   0.0218611457   0.1197017081
       -0.1245691816   0.0055089574  -0.0268601482  -0.0369937748   0.0382251241
       -0.1004700214   0.0764359009  -0.0800767448  -0.0080323382   0.0640284762
       -0.0991812500  -0.0165058306  -0.0487006913   0.0293985470  -0.1245691816
        0.2997438064  -0.0095798373   0.0361634215  -0.1066492265  -0.0192246588
        0.0755134921  -0.0909566635   0.0985871991   0.0293980986  -0.0534372251
       -0.1416637307  -0.0312297499   0.1009139802  -0.0028466931   0.0055089574
       -0.0095798373   0.2140646388   0.0242427456  -0.0277317432   0.0524547067
        0.0366936128   0.0161177341  -0.1220089217  -0.0352155659  -0.0797201337
        0.0148977839   0.0156062834  -0.0220196100   0.0063675479  -0.0268601482
        0.0361634215   0.0242427456   0.1219627354   0.1256906695   0.0367775459
       -0.1018560950  -0.0771342799  -0.0822856233  -0.0088527757  -0.0627002011
        0.1009160625   0.0165730896  -0.0528767351   0.0073725441  -0.0369937748
       -0.1066492265  -0.0277317432   0.1256906695   0.2987008498   0.0159066940
       -0.0762134787  -0.0903111565  -0.0964635573  -0.0290565056  -0.0488637317
       -0.1105569746  -0.0684421848   0.0019641251   0.0517130211   0.0382251241
       -0.0192246588   0.0524547067   0.0367775459   0.0159066940   0.2007017777
       -0.0548926936  -0.0009605583  -0.1943125310   0.0483322083   0.0023143981
       -0.1243022415  -0.1555104266   0.0022445094   0.0380981539  -0.1004700214
        0.0755134921   0.0366936128  -0.1018560950  -0.0762134787  -0.0548926936
        0.4282327868  -0.0009545394   0.1044031683  -0.0703962439  -0.0005899834
        0.0022257760   0.0016415984   0.0472728080  -0.0194481735   0.0764359009
       -0.0909566635   0.0161177341  -0.0771342799  -0.0903111565  -0.0009605583
       -0.0009545394   0.0866874519   0.0020652218   0.0000113200   0.0473075602
       -0.0854020466  -0.0037664652   0.0004531322  -0.1183060495  -0.0800767448
        0.0985871991  -0.1220089217  -0.0822856233  -0.0964635573  -0.1943125310
        0.1044031683   0.0020652218   0.5200295488   0.0617256650  -0.0046419957
       -0.0409630758   0.0065507574   0.0001881064  -0.0338792315  -0.0080323382
        0.0293980986  -0.0352155659  -0.0088527757  -0.0290565056   0.0483322083
       -0.0703962439   0.0000113200   0.0617256650   0.0807306004  -0.0005410195
        0.0006144235  -0.0001972723  -0.0501671376   0.0814333078   0.0640284762
       -0.0534372251  -0.0797201337  -0.0627002011  -0.0488637317   0.0023143981
       -0.0005899834   0.0473075602  -0.0046419957  -0.0005410195   0.1051605342
