5
 energy: -10.180649951568 gnorm: 0.000297874677 xtb: 6.2.2 (9d81278992624c895f80dd42a50cac0aa55982e2)
C        -1.05605053174879   -0.31854183433943    0.01262257364773
C         0.09849699805142   -0.37876311630824    0.92127747406835
C         0.07902649917318   -0.38704169598553   -0.91972032018954
C        -0.21023544452097    0.90752880337156   -0.00189139361576
C         1.08876347904515    0.17681784325640   -0.01228833391427
