[Molden Format]
[Title]
[Atoms] AU
O      1     8  0.00000000000000E+00  0.00000000000000E+00  0.00000000000000E+00
[GTO]
           1 0
 s           4   1.0000000000000000     
   69.137961906196551      -0.20478756370077797     
   11.906129132707308      -0.24997023136827334     
  0.95670827744340703       0.40025880240639616     
  0.36462520496073686       0.15952206667693555     
 p           4   1.0000000000000000     
   8.2124193257781641        1.1321556799186829     
   2.1293576997098116        1.0476840782254817     
  0.75066448202360914       0.54956508217158984     
  0.29885246543283073        8.2908486592766617E-002

[MO]
Sym=     1a
Ene=  -0.74343826908263000     
Spin= Alpha
Occup=     2.00000000
           1   1.0000000000225666     
           2   0.0000000000000000     
           3   0.0000000000000000     
           4   0.0000000000000000     
Sym=     2a
Ene=  -0.56972906645678911     
Spin= Alpha
Occup=     1.33333333
           1   0.0000000000000000     
           2   1.0000000000494358     
           3   0.0000000000000000     
           4   0.0000000000000000     
Sym=     3a
Ene=  -0.56972906645678911     
Spin= Alpha
Occup=     1.33333333
           1   0.0000000000000000     
           2   0.0000000000000000     
           3   1.0000000000494358     
           4   0.0000000000000000     
Sym=     4a
Ene=  -0.56972906645678911     
Spin= Alpha
Occup=     1.33333333
           1   0.0000000000000000     
           2   0.0000000000000000     
           3   0.0000000000000000     
           4   1.0000000000494358     
