      -----------------------------------------------------------      
     |                   =====================                   |     
     |                           x T B                           |     
     |                   =====================                   |     
     |                         S. Grimme                         |     
     |          Mulliken Center for Theoretical Chemistry        |     
     |                    University of Bonn                     |     
      -----------------------------------------------------------      

   * xtb version 6.2.2 (9d81278992624c895f80dd42a50cac0aa55982e2) compiled by '@Darwin' on 04/03/2020

   xtb is free software: you can redistribute it and/or modify it under
   the terms of the GNU Lesser General Public License as published by
   the Free Software Foundation, either version 3 of the License, or
   (at your option) any later version.
   
   xtb is distributed in the hope that it will be useful,
   but WITHOUT ANY WARRANTY; without even the implied warranty of
   MERCHANTABILITY or FITNESS FOR A PARTICULAR PURPOSE.  See the
   GNU Lesser General Public License for more details.
   
   Cite this work as:
   * S. Grimme, C. Bannwarth, P. Shushkov, J. Chem. Theory Comput., 2017,
     13, 1989-2009. DOI: 10.1021/acs.jctc.7b00118
   * C. Bannwarth, S. Ehlert and S. Grimme., J. Chem. Theory Comput., 2019,
     15, 1652-1671. DOI: 10.1021/acs.jctc.8b01176
   * P. Pracht, E. Caldeweyher, S. Ehlert, S. Grimme, ChemRxiv, 2019, preprint.
     DOI: 10.26434/chemrxiv.8326202.v1
   
   for DFT-D4:
   * E. Caldeweyher, C. Bannwarth and S. Grimme, J. Chem. Phys., 2017,
     147, 034112. DOI: 10.1063/1.4993215
   * E. Caldeweyher, S. Ehlert, A. Hansen, H. Neugebauer, S. Spicher,
     C. Bannwarth and S. Grimme, J. Chem. Phys., 2019, 150, 154122.
     DOI: 10.1063/1.5090222
   
   for sTDA-xTB:
   * S. Grimme and C. Bannwarth, J. Chem. Phys., 2016, 145, 054103.
     DOI: 10.1063/1.4959605
   
   in the mass-spec context:
   * V. Asgeirsson, C. Bauer and S. Grimme, Chem. Sci., 2017, 8, 4879.
     DOI: 10.1039/c7sc00601b
   
   for metadynamics refer to:
   * S. Grimme, J. Chem. Theory Comput., 2019, 155, 2847-2862
     DOI: 10.1021/acs.jctc.9b00143
   
   with help from (in alphabetical order)
   C. Bannwarth, F. Bohle, G. Brandenburg, E. Caldeweyher, M. Checinski,
   S. Dohm, S. Ehlert, S. Ehrlich, F. März, H. Neugebauer, J. Pisarek,
   P. Pracht, P. Shushkov, and S. Spicher.
   
 * started run on 2020/05/12 at 11:44:26.709     

           -------------------------------------------------
          |                Calculation Setup                |
           -------------------------------------------------

          program call               : xtb --input H2C3_3_S_2.input H2C3_3_S_2.xyz --ohess --molden --namespace H2C3_3_S_2 output.out
          calculation namespace      : H2C3_3_S_2
          coordinate file            : H2C3_3_S_2.xyz
          number of atoms            :                     5
          number of electrons        :                    14
          charge                     :                     0
          spin                       :                   1.0
          first test random number   :      0.70299253843950

   ID    Z sym.   atoms
    1    6 C      1-3
    2    1 H      4, 5

           -------------------------------------------------
          |                 G F N 2 - x T B                 |
           -------------------------------------------------

        Reference                      10.1021/acs.jctc.8b01176
      * Hamiltonian:
        H0-scaling (s, p, d)           1.850000    2.230000    2.230000
        zeta-weighting                 0.500000
      * Dispersion:
        s8                             2.700000
        a1                             0.520000
        a2                             5.000000
        s9                             5.000000
      * Repulsion:
        kExp                           1.500000    1.000000
        rExp                           1.000000
      * Coulomb:
        alpha                          2.000000
        third order                    shell-resolved
        anisotropic                    true
        a3                             3.000000
        a5                             4.000000
        cn-shift                       1.200000
        cn-exp                         4.000000
        max-rad                        5.000000


          ...................................................
          :                      SETUP                      :
          :.................................................:
          :  # basis functions                  14          :
          :  # atomic orbitals                  14          :
          :  # shells                            8          :
          :  # electrons                        14          :
          :  max. iterations                   250          :
          :  Hamiltonian                  GFN2-xTB          :
          :  restarted?                      false          :
          :  GBSA solvation                  false          :
          :  PC potential                    false          :
          :  electronic temp.          300.0000000     K    :
          :  accuracy                    1.0000000          :
          :  -> integral cutoff          0.2500000E+02      :
          :  -> integral neglect         0.1000000E-07      :
          :  -> SCF convergence          0.1000000E-05 Eh   :
          :  -> wf. convergence          0.1000000E-03 e    :
          :  Broyden damping             0.4000000          :
          ...................................................

 iter      E             dE          RMSdq      gap      omega  full diag
   1     -7.1096909 -0.710969E+01  0.808E+00    1.24       0.0  T
   2     -7.0881498  0.215411E-01  0.494E+00    1.23       1.0  T
   3     -6.2760057  0.812144E+00  0.929E+00    1.44       1.0  T
   4     -7.1055937 -0.829588E+00  0.162E+00    1.15       1.0  T
   5     -7.1136842 -0.809049E-02  0.892E-01    1.24       1.0  T
   6     -7.1172021 -0.351786E-02  0.406E-01    1.20       1.0  T
   7     -7.1174226 -0.220500E-03  0.139E-01    1.22       1.0  T
   8     -7.1174480 -0.254115E-04  0.413E-02    1.22       1.1  T
   9     -7.1174515 -0.349773E-05  0.123E-02    1.22       3.6  T
  10     -7.1174520 -0.487411E-06  0.231E-03    1.22      19.4  T
  11     -7.1174520 -0.241565E-07  0.478E-04    1.22      93.6  T
  12     -7.1174520 -0.235074E-09  0.131E-04    1.22     341.5  T

   *** convergence criteria satisfied after 12 iterations ***

         #    Occupation            Energy/Eh            Energy/eV
      -------------------------------------------------------------
         1        2.0000           -0.6270748             -17.0636
         2        2.0000           -0.5883697             -16.0104
         3        2.0000           -0.5293869             -14.4054
         4        2.0000           -0.4813076             -13.0970
         5        2.0000           -0.4537184             -12.3463
         6        2.0000           -0.4288891             -11.6707
         7        1.0000           -0.3757447             -10.2245
         8        1.0000           -0.3636707              -9.8960 (HOMO)
         9                         -0.3187893              -8.6747 (LUMO)
        10                         -0.2590375              -7.0488
        11                          0.1005372               2.7358
        12                          0.1263845               3.4391
        13                          0.1603170               4.3624
        14                          0.1786667               4.8618
      -------------------------------------------------------------
                  HL-Gap            0.0448813 Eh            1.2213 eV
             Fermi-level           -0.3717734 Eh          -10.1165 eV

 transition dipole moment (au) for excitation:           7           8
     X       Y       Z   
  -0.6313  -0.0927   0.3545  total (au/Debye):    0.730   1.855
 dE (eV)             :    0.329
 oscillator strength :  0.60661E-02

 SCC (total)                   0 d,  0 h,  0 min,  0.003 sec
 SCC setup                      ...        0 min,  0.000 sec (  2.683%)
 Dispersion                     ...        0 min,  0.000 sec (  0.418%)
 integral evaluation            ...        0 min,  0.001 sec ( 25.692%)
 zeroth order Hamiltonian       ...        0 min,  0.000 sec (  0.669%)
 iterations                     ...        0 min,  0.001 sec ( 31.727%)
 molecular gradient             ...        0 min,  0.001 sec ( 21.230%)
 printout                       ...        0 min,  0.001 sec ( 17.216%)

         :::::::::::::::::::::::::::::::::::::::::::::::::::::
         ::                     SUMMARY                     ::
         :::::::::::::::::::::::::::::::::::::::::::::::::::::
         :: total energy              -7.059303275712 Eh    ::
         :: gradient norm              0.271457738565 Eh/a0 ::
         :: HOMO-LUMO gap              1.221283187205 eV    ::
         ::.................................................::
         :: SCC energy                -7.117451980713 Eh    ::
         :: -> isotropic ES           -0.006319517376 Eh    ::
         :: -> anisotropic ES          0.000643559136 Eh    ::
         :: -> anisotropic XC          0.009483536923 Eh    ::
         :: -> dispersion             -0.001575145610 Eh    ::
         :: repulsion energy           0.058148719612 Eh    ::
         :: add. restraining           0.000000000000 Eh    ::
         :::::::::::::::::::::::::::::::::::::::::::::::::::::

      ----------------------------------------------------------- 
     |                   =====================                   |
     |                        A N C O P T                        |
     |                   =====================                   |
     |               Approximate Normal Coordinate               |
     |                Rational Function Optimizer                |
      ----------------------------------------------------------- 

          ...................................................
          :                      SETUP                      :
          :.................................................:
          :   optimization level            normal          :
          :   max. optcycles                   200          :
          :   ANC micro-cycles                  20          :
          :   degrees of freedom                 9          :
          :.................................................:
          :   RF solver                   davidson          :
          :   write xtbopt.log                true          :
          :   linear?                        false          :
          :   energy convergence         0.5000000E-05 Eh   :
          :   grad. convergence          0.1000000E-02 Eh/α :
          :   maximium RF displ.         1.0000000          :
          :   Hlow (freq-cutoff)         0.1000000E-01      :
          :   Hmax (freq-cutoff)         5.0000000          :
          :   S6 in model hess.         20.0000000          :
          ...................................................

generating ANC from model Hessian ...
Using Lindh-Hessian (1995)
 Shifting diagonal of input Hessian by    4.1274032833246883E-003
 Lowest  eigenvalues of input Hessian
   -0.000000   -0.000000    0.000000    0.000000    0.000000    0.000000
    0.010000    0.011797    0.046077    0.066880    0.110891    0.655645
    0.756675    0.901300    1.039078
 Highest eigenvalues
    0.066880    0.110891    0.655645    0.756675    0.901300    1.039078


........................................................................
.............................. CYCLE    1 ..............................
........................................................................
   1     -7.1174520 -0.711745E+01  0.361E-05    1.22       0.0  T
   2     -7.1174520  0.568576E-10  0.851E-05    1.22     525.6  T
   3     -7.1174520 -0.589910E-10  0.238E-05    1.22    1875.4  T
     SCC iter.                  ...        0 min,  0.000 sec
     gradient                   ...        0 min,  0.001 sec
 * total energy  :    -7.0593033 Eh     change       -0.7639391E-09 Eh
   gradient norm :     0.2714582 Eh/α   predicted     0.0000000E+00 (-100.00%)
   displ. norm   :     0.3803640 α      lambda       -0.9542074E-01
   maximum displ.:     0.3111921 α      in ANC's #6, #8, #3, ...

........................................................................
.............................. CYCLE    2 ..............................
........................................................................
   1     -7.2457505 -0.724575E+01  0.214E+00    2.37       0.0  T
   2     -7.2407943  0.495628E-02  0.163E+00    2.18       1.0  T
   3     -7.2290850  0.117093E-01  0.172E+00    2.43       1.0  T
   4     -7.2341981 -0.511319E-02  0.136E+00    2.35       1.0  T
   5     -7.2485214 -0.143233E-01  0.105E-01    2.29       1.0  T
   6     -7.2485278 -0.640360E-05  0.572E-02    2.30       1.0  T
   7     -7.2485340 -0.617781E-05  0.112E-02    2.30       4.0  T
   8     -7.2485344 -0.369535E-06  0.138E-03    2.30      32.3  T
   9     -7.2485344  0.721115E-09  0.787E-04    2.30      56.8  T
  10     -7.2485344 -0.245856E-08  0.112E-04    2.30     399.6  T
     SCC iter.                  ...        0 min,  0.001 sec
     gradient                   ...        0 min,  0.001 sec
 * total energy  :    -7.1407822 Eh     change       -0.8147891E-01 Eh
   gradient norm :     0.1743064 Eh/α   predicted    -0.5461296E-01 ( -32.97%)
   displ. norm   :     0.5404132 α      lambda       -0.8796602E-01
   maximum displ.:     0.4372817 α      in ANC's #6, #3, #8, ...

........................................................................
.............................. CYCLE    3 ..............................
........................................................................
   1     -7.4110362 -0.741104E+01  0.221E+00    4.67       0.0  T
   2     -7.4112354 -0.199176E-03  0.143E+00    4.44       1.0  T
   3     -7.4025672  0.866814E-02  0.120E+00    4.72       1.0  T
   4     -7.4111961 -0.862887E-02  0.490E-01    4.56       1.0  T
   5     -7.4126922 -0.149609E-02  0.490E-02    4.55       1.0  T
   6     -7.4126928 -0.592095E-06  0.219E-02    4.55       2.0  T
   7     -7.4126945 -0.172110E-05  0.256E-03    4.55      17.4  T
   8     -7.4126945 -0.266081E-07  0.469E-04    4.55      95.4  T
   9     -7.4126945 -0.105871E-09  0.249E-04    4.55     179.6  T
     SCC iter.                  ...        0 min,  0.001 sec
     gradient                   ...        0 min,  0.001 sec
 * total energy  :    -7.1675843 Eh     change       -0.2680215E-01 Eh
   gradient norm :     0.2358459 Eh/α   predicted    -0.5682808E-01 ( 112.03%)
   displ. norm   :     0.5936159 α      lambda       -0.7073022E-01
   maximum displ.:     0.4042266 α      in ANC's #3, #2, #5, ...

........................................................................
.............................. CYCLE    4 ..............................
........................................................................
   1     -7.3482072 -0.734821E+01  0.137E+00    3.97       0.0  T
   2     -7.3483784 -0.171218E-03  0.903E-01    4.07       1.0  T
   3     -7.3467113  0.166712E-02  0.636E-01    3.95       1.0  T
   4     -7.3474628 -0.751541E-03  0.396E-01    4.00       1.0  T
   5     -7.3488027 -0.133989E-02  0.526E-02    4.03       1.0  T
   6     -7.3488133 -0.106097E-04  0.940E-03    4.03       4.8  T
   7     -7.3488133  0.230280E-07  0.355E-03    4.03      12.6  T
   8     -7.3488134 -0.487117E-07  0.568E-04    4.03      78.7  T
   9     -7.3488134 -0.471847E-09  0.100E-04    4.03     446.7  T
     SCC iter.                  ...        0 min,  0.001 sec
     gradient                   ...        0 min,  0.001 sec
 * total energy  :    -7.1919888 Eh     change       -0.2440450E-01 Eh
   gradient norm :     0.1091054 Eh/α   predicted    -0.4782705E-01 (  95.98%)
   displ. norm   :     0.4907826 α      lambda       -0.1489080E-01
   maximum displ.:     0.4512112 α      in ANC's #2, #5, #1, ...

........................................................................
.............................. CYCLE    5 ..............................
........................................................................
   1     -7.3593501 -0.735935E+01  0.964E-01    4.47       0.0  T
   2     -7.3587763  0.573852E-03  0.636E-01    4.46       1.0  T
   3     -7.3529758  0.580045E-02  0.924E-01    4.47       1.0  T
   4     -7.3595592 -0.658341E-02  0.572E-02    4.48       1.0  T
   5     -7.3595709 -0.116803E-04  0.257E-02    4.46       1.7  T
   6     -7.3595731 -0.213715E-05  0.545E-03    4.47       8.2  T
   7     -7.3595731 -0.169302E-07  0.257E-03    4.47      17.4  T
   8     -7.3595731 -0.134776E-07  0.229E-04    4.47     195.6  T
   9     -7.3595731 -0.106738E-09  0.423E-05    4.47    1056.2  T
     SCC iter.                  ...        0 min,  0.001 sec
     gradient                   ...        0 min,  0.001 sec
 * total energy  :    -7.1974130 Eh     change       -0.5424203E-02 Eh
   gradient norm :     0.1080024 Eh/α   predicted    -0.9238748E-02 (  70.32%)
   displ. norm   :     0.2880718 α      lambda       -0.2007359E-01
   maximum displ.:     0.1639271 α      in ANC's #2, #5, #9, ...

........................................................................
.............................. CYCLE    6 ..............................
........................................................................
   1     -7.4039957 -0.740400E+01  0.115E+00    5.31       0.0  T
   2     -7.4036106  0.385071E-03  0.709E-01    5.20       1.0  T
   3     -7.3990505  0.456010E-02  0.869E-01    5.35       1.0  T
   4     -7.4042941 -0.524363E-02  0.900E-02    5.25       1.0  T
   5     -7.4043273 -0.331697E-04  0.245E-02    5.23       1.8  T
   6     -7.4043286 -0.126729E-05  0.631E-03    5.24       7.1  T
   7     -7.4043287 -0.127617E-06  0.194E-03    5.24      23.0  T
   8     -7.4043287 -0.161944E-07  0.324E-04    5.24     138.1  T
   9     -7.4043287 -0.169628E-09  0.731E-05    5.24     611.8  T
     SCC iter.                  ...        0 min,  0.001 sec
     gradient                   ...        0 min,  0.001 sec
 * total energy  :    -7.1932994 Eh     change        0.4113677E-02 Eh
   gradient norm :     0.2124008 Eh/α   predicted    -0.1086970E-01 (-364.23%)
   displ. norm   :     0.2457804 α      lambda       -0.2950628E-01
   maximum displ.:     0.1974714 α      in ANC's #5, #2, #6, ...

........................................................................
.............................. CYCLE    7 ..............................
........................................................................
   1     -7.3920151 -0.739202E+01  0.817E-01    4.89       0.0  T
   2     -7.3919714  0.436781E-04  0.492E-01    4.91       1.0  T
   3     -7.3897129  0.225859E-02  0.544E-01    4.86       1.0  T
   4     -7.3920567 -0.234385E-02  0.751E-02    4.89       1.0  T
   5     -7.3920843 -0.276317E-04  0.220E-02    4.90       2.0  T
   6     -7.3920851 -0.812136E-06  0.734E-03    4.90       6.1  T
   7     -7.3920853 -0.166449E-06  0.129E-03    4.90      34.7  T
   8     -7.3920853 -0.300419E-08  0.180E-04    4.90     249.1  T
   9     -7.3920853 -0.298819E-10  0.169E-05    4.90    2643.7  T
     SCC iter.                  ...        0 min,  0.001 sec
     gradient                   ...        0 min,  0.001 sec
 * total energy  :    -7.2069665 Eh     change       -0.1366715E-01 Eh
   gradient norm :     0.0236638 Eh/α   predicted    -0.1564435E-01 (  14.47%)
   displ. norm   :     0.4129954 α      lambda       -0.4970632E-02
   maximum displ.:     0.3545113 α      in ANC's #1, #2, #6, ...

........................................................................
.............................. CYCLE    8 ..............................
........................................................................
   1     -7.3869131 -0.738691E+01  0.626E-01    4.96       0.0  T
   2     -7.3868268  0.863357E-04  0.370E-01    4.96       1.0  T
   3     -7.3848578  0.196900E-02  0.529E-01    4.94       1.0  T
   4     -7.3869528 -0.209500E-02  0.211E-02    4.96       2.1  T
   5     -7.3869533 -0.498057E-06  0.615E-03    4.96       7.3  T
   6     -7.3869534 -0.149225E-06  0.237E-03    4.96      18.9  T
   7     -7.3869534 -0.478480E-08  0.951E-04    4.96      47.0  T
   8     -7.3869534 -0.544243E-09  0.206E-04    4.96     216.6  T
     SCC iter.                  ...        0 min,  0.001 sec
     gradient                   ...        0 min,  0.001 sec
 * total energy  :    -7.2082127 Eh     change       -0.1246219E-02 Eh
   gradient norm :     0.0566591 Eh/α   predicted    -0.2909218E-02 ( 133.44%)
   displ. norm   :     0.1320847 α      lambda       -0.4001430E-02
   maximum displ.:     0.0842594 α      in ANC's #6, #3, #9, ...

........................................................................
.............................. CYCLE    9 ..............................
........................................................................
   1     -7.4010644 -0.740106E+01  0.362E-01    5.24       0.0  T
   2     -7.4010675 -0.307602E-05  0.217E-01    5.22       1.0  T
   3     -7.4008464  0.221099E-03  0.190E-01    5.24       1.0  T
   4     -7.4010520 -0.205574E-03  0.678E-02    5.23       1.0  T
   5     -7.4010862 -0.342350E-04  0.105E-02    5.23       4.2  T
   6     -7.4010864 -0.163631E-06  0.194E-03    5.23      23.0  T
   7     -7.4010864 -0.158708E-08  0.639E-04    5.23      70.0  T
   8     -7.4010864 -0.231024E-09  0.184E-04    5.23     243.7  T
     SCC iter.                  ...        0 min,  0.001 sec
     gradient                   ...        0 min,  0.001 sec
 * total energy  :    -7.2107339 Eh     change       -0.2521185E-02 Eh
   gradient norm :     0.0403802 Eh/α   predicted    -0.2035620E-02 ( -19.26%)
   displ. norm   :     0.3295616 α      lambda       -0.4557085E-02
   maximum displ.:     0.1893125 α      in ANC's #2, #1, #6, ...

........................................................................
.............................. CYCLE   10 ..............................
........................................................................
   1     -7.3945222 -0.739452E+01  0.856E-01    5.02       0.0  T
   2     -7.3945134  0.885882E-05  0.533E-01    5.03       1.0  T
   3     -7.3930789  0.143442E-02  0.422E-01    5.00       1.0  T
   4     -7.3945492 -0.147025E-02  0.560E-02    5.02       1.0  T
   5     -7.3945638 -0.146402E-04  0.201E-02    5.02       2.2  T
   6     -7.3945643 -0.465404E-06  0.487E-03    5.02       9.2  T
   7     -7.3945643 -0.683928E-08  0.173E-03    5.02      25.8  T
   8     -7.3945643 -0.794034E-08  0.512E-04    5.02      87.3  T
   9     -7.3945643 -0.665969E-09  0.745E-05    5.02     600.0  T
     SCC iter.                  ...        0 min,  0.001 sec
     gradient                   ...        0 min,  0.001 sec
 * total energy  :    -7.2112463 Eh     change       -0.5124191E-03 Eh
   gradient norm :     0.0504066 Eh/α   predicted    -0.2526007E-02 ( 392.96%)
   displ. norm   :     0.1616319 α      lambda       -0.3532926E-02
   maximum displ.:     0.1381192 α      in ANC's #1, #5, #3, ...

........................................................................
.............................. CYCLE   11 ..............................
........................................................................
   1     -7.4067217 -0.740672E+01  0.311E-01    5.37       0.0  T
   2     -7.4067097  0.120028E-04  0.196E-01    5.36       1.0  T
   3     -7.4064354  0.274218E-03  0.218E-01    5.37       1.0  T
   4     -7.4067221 -0.286650E-03  0.595E-02    5.37       1.0  T
   5     -7.4067476 -0.255186E-04  0.734E-03    5.36       6.1  T
   6     -7.4067477 -0.626069E-07  0.131E-03    5.36      34.0  T
   7     -7.4067477 -0.314581E-09  0.433E-04    5.36     103.2  T
   8     -7.4067477 -0.905613E-10  0.143E-04    5.36     313.0  T
     SCC iter.                  ...        0 min,  0.001 sec
     gradient                   ...        0 min,  0.001 sec
 * total energy  :    -7.2131038 Eh     change       -0.1857499E-02 Eh
   gradient norm :     0.0134923 Eh/α   predicted    -0.1812612E-02 (  -2.42%)
   displ. norm   :     0.0883577 α      lambda       -0.5102296E-03
   maximum displ.:     0.0526461 α      in ANC's #1, #4, #6, ...

........................................................................
.............................. CYCLE   12 ..............................
........................................................................
   1     -7.4085351 -0.740854E+01  0.214E-01    5.50       0.0  T
   2     -7.4085359 -0.817245E-06  0.130E-01    5.50       1.0  T
   3     -7.4084938  0.421086E-04  0.795E-02    5.51       1.0  T
   4     -7.4085325 -0.386169E-04  0.284E-02    5.50       1.6  T
   5     -7.4085385 -0.603803E-05  0.363E-03    5.50      12.3  T
   6     -7.4085385 -0.328475E-08  0.815E-04    5.50      54.9  T
   7     -7.4085385 -0.772125E-09  0.286E-04    5.50     156.1  T
     SCC iter.                  ...        0 min,  0.001 sec
     gradient                   ...        0 min,  0.001 sec
 * total energy  :    -7.2134160 Eh     change       -0.3121476E-03 Eh
   gradient norm :     0.0163573 Eh/α   predicted    -0.2571054E-03 ( -17.63%)
   displ. norm   :     0.0956771 α      lambda       -0.3516897E-03
   maximum displ.:     0.0640872 α      in ANC's #6, #1, #8, ...

........................................................................
.............................. CYCLE   13 ..............................
........................................................................
   1     -7.4096344 -0.740963E+01  0.223E-01    5.59       0.0  T
   2     -7.4096260  0.842745E-05  0.141E-01    5.59       1.0  T
   3     -7.4094189  0.207032E-03  0.168E-01    5.59       1.0  T
   4     -7.4096392 -0.220303E-03  0.102E-02    5.59       4.4  T
   5     -7.4096397 -0.458335E-06  0.366E-03    5.59      12.2  T
   6     -7.4096397 -0.126281E-07  0.958E-04    5.59      46.7  T
   7     -7.4096397 -0.420302E-09  0.226E-04    5.59     198.2  T
     SCC iter.                  ...        0 min,  0.000 sec
     gradient                   ...        0 min,  0.001 sec
 * total energy  :    -7.2136804 Eh     change       -0.2643696E-03 Eh
   gradient norm :     0.0146414 Eh/α   predicted    -0.1774541E-03 ( -32.88%)
   displ. norm   :     0.0963566 α      lambda       -0.4179803E-03
   maximum displ.:     0.0617897 α      in ANC's #6, #8, #1, ...

........................................................................
.............................. CYCLE   14 ..............................
........................................................................
   1     -7.4149187 -0.741492E+01  0.254E-01    5.73       0.0  T
   2     -7.4149175  0.122433E-05  0.158E-01    5.73       1.0  T
   3     -7.4147800  0.137565E-03  0.134E-01    5.73       1.0  T
   4     -7.4149223 -0.142393E-03  0.151E-02    5.73       3.0  T
   5     -7.4149234 -0.105526E-05  0.566E-03    5.73       7.9  T
   6     -7.4149235 -0.604860E-07  0.147E-03    5.73      30.4  T
   7     -7.4149235 -0.119069E-08  0.282E-04    5.73     158.3  T
   8     -7.4149235 -0.716271E-10  0.120E-04    5.73     371.6  T
     SCC iter.                  ...        0 min,  0.000 sec
     gradient                   ...        0 min,  0.001 sec
 * total energy  :    -7.2138680 Eh     change       -0.1876488E-03 Eh
   gradient norm :     0.0131847 Eh/α   predicted    -0.2109317E-03 (  12.41%)
   displ. norm   :     0.1644916 α      lambda       -0.4300265E-03
   maximum displ.:     0.1014094 α      in ANC's #6, #1, #4, ...

........................................................................
.............................. CYCLE   15 ..............................
........................................................................
   1     -7.4067738 -0.740677E+01  0.400E-01    5.72       0.0  T
   2     -7.4067080  0.658234E-04  0.260E-01    5.72       1.0  T
   3     -7.4059859  0.722056E-03  0.334E-01    5.72       1.0  T
   4     -7.4068024 -0.816507E-03  0.117E-02    5.72       3.8  T
   5     -7.4068028 -0.438609E-06  0.479E-03    5.72       9.3  T
   6     -7.4068029 -0.501828E-08  0.835E-04    5.72      53.5  T
   7     -7.4068029 -0.731514E-09  0.324E-04    5.72     137.9  T
     SCC iter.                  ...        0 min,  0.000 sec
     gradient                   ...        0 min,  0.001 sec
 * total energy  :    -7.2138932 Eh     change       -0.2522767E-04 Eh
   gradient norm :     0.0095220 Eh/α   predicted    -0.2208285E-03 ( 775.34%)
   displ. norm   :     0.0791010 α      lambda       -0.3074409E-03
   maximum displ.:     0.0556643 α      in ANC's #6, #2, #9, ...

........................................................................
.............................. CYCLE   16 ..............................
........................................................................
   1     -7.4117831 -0.741178E+01  0.205E-01    5.77       0.0  T
   2     -7.4117664  0.167602E-04  0.132E-01    5.77       1.0  T
   3     -7.4115841  0.182296E-03  0.169E-01    5.77       1.0  T
   4     -7.4117908 -0.206742E-03  0.740E-03    5.77       6.0  T
   5     -7.4117910 -0.210319E-06  0.248E-03    5.77      18.0  T
   6     -7.4117910 -0.230915E-08  0.552E-04    5.77      81.1  T
   7     -7.4117910 -0.282184E-09  0.140E-04    5.77     318.7  T
     SCC iter.                  ...        0 min,  0.000 sec
     gradient                   ...        0 min,  0.001 sec
 * total energy  :    -7.2140450 Eh     change       -0.1517476E-03 Eh
   gradient norm :     0.0044467 Eh/α   predicted    -0.1546839E-03 (   1.93%)
   displ. norm   :     0.0276771 α      lambda       -0.4649968E-04
   maximum displ.:     0.0198899 α      in ANC's #1, #8, #4, ...

........................................................................
.............................. CYCLE   17 ..............................
........................................................................
   1     -7.4123023 -0.741230E+01  0.686E-02    5.80       0.0  T
   2     -7.4123024 -0.517922E-07  0.419E-02    5.80       1.1  T
   3     -7.4123012  0.115096E-05  0.128E-02    5.80       3.5  T
   4     -7.4123023 -0.109710E-05  0.406E-03    5.80      11.0  T
   5     -7.4123024 -0.118093E-06  0.998E-04    5.80      44.8  T
   6     -7.4123024 -0.160467E-08  0.245E-04    5.80     182.8  T
     SCC iter.                  ...        0 min,  0.000 sec
     gradient                   ...        0 min,  0.001 sec
 * total energy  :    -7.2140848 Eh     change       -0.3977721E-04 Eh
   gradient norm :     0.0044218 Eh/α   predicted    -0.2326964E-04 ( -41.50%)
   displ. norm   :     0.0792930 α      lambda       -0.1131435E-03
   maximum displ.:     0.0571461 α      in ANC's #1, #8, #4, ...

........................................................................
.............................. CYCLE   18 ..............................
........................................................................
   1     -7.4117393 -0.741174E+01  0.194E-01    5.86       0.0  T
   2     -7.4117392  0.666856E-07  0.119E-01    5.86       1.0  T
   3     -7.4117137  0.255271E-04  0.571E-02    5.86       1.0  T
   4     -7.4117401 -0.263897E-04  0.452E-03    5.86       9.9  T
   5     -7.4117401 -0.371902E-07  0.240E-03    5.86      18.6  T
   6     -7.4117401 -0.125317E-07  0.713E-04    5.86      62.7  T
   7     -7.4117401 -0.180615E-09  0.895E-05    5.86     499.9  T
     SCC iter.                  ...        0 min,  0.000 sec
     gradient                   ...        0 min,  0.001 sec
 * total energy  :    -7.2141477 Eh     change       -0.6295466E-04 Eh
   gradient norm :     0.0016084 Eh/α   predicted    -0.5692762E-04 (  -9.57%)
   displ. norm   :     0.0227563 α      lambda       -0.1191145E-04
   maximum displ.:     0.0151651 α      in ANC's #1, #8, #7, ...

........................................................................
.............................. CYCLE   19 ..............................
........................................................................
   1     -7.4123038 -0.741230E+01  0.532E-02    5.88       0.0  T
   2     -7.4123036  0.205339E-06  0.326E-02    5.88       1.4  T
   3     -7.4122951  0.850106E-05  0.341E-02    5.88       1.3  T
   4     -7.4123040 -0.889420E-05  0.205E-03    5.88      21.8  T
   5     -7.4123040 -0.123772E-07  0.945E-04    5.88      47.3  T
   6     -7.4123040 -0.128066E-08  0.228E-04    5.88     196.2  T
     SCC iter.                  ...        0 min,  0.000 sec
     gradient                   ...        0 min,  0.001 sec
 * total energy  :    -7.2141547 Eh     change       -0.6994199E-05 Eh
   gradient norm :     0.0036497 Eh/α   predicted    -0.5956351E-05 ( -14.84%)
   displ. norm   :     0.0240659 α      lambda       -0.1226529E-04
   maximum displ.:     0.0219978 α      in ANC's #1, #7, #8, ...

........................................................................
.............................. CYCLE   20 ..............................
........................................................................
   1     -7.4121070 -0.741211E+01  0.475E-02    5.90       0.0  T
   2     -7.4121069  0.564020E-07  0.289E-02    5.90       1.5  T
   3     -7.4121037  0.320369E-05  0.203E-02    5.90       2.2  T
   4     -7.4121070 -0.331361E-05  0.112E-03    5.90      40.0  T
   5     -7.4121070 -0.344267E-08  0.564E-04    5.90      79.3  T
   6     -7.4121070 -0.119607E-09  0.452E-05    5.90     988.8  T
     SCC iter.                  ...        0 min,  0.000 sec
     gradient                   ...        0 min,  0.001 sec
 * total energy  :    -7.2141635 Eh     change       -0.8759636E-05 Eh
   gradient norm :     0.0023239 Eh/α   predicted    -0.6135742E-05 ( -29.95%)
   displ. norm   :     0.0246462 α      lambda       -0.1902267E-04
   maximum displ.:     0.0172217 α      in ANC's #1, #7, #4, ...
 * RMSD in coord.:     1.1142323 α      energy gain  -0.1548602E+00 Eh

generating ANC from model Hessian ...
Using Lindh-Hessian (1995)
 Shifting diagonal of input Hessian by    9.5608593406891016E-003
 Lowest  eigenvalues of input Hessian
   -0.000000   -0.000000    0.000000    0.000000    0.000000    0.000000
    0.010000    0.010610    0.141538    0.270571    0.398039    0.750913
    0.898075    1.541475    2.682266
 Highest eigenvalues
    0.270571    0.398039    0.750913    0.898075    1.541475    2.682266


........................................................................
.............................. CYCLE   21 ..............................
........................................................................
   1     -7.4120746 -0.741207E+01  0.493E-02    5.91       0.0  T
   2     -7.4120744  0.252855E-06  0.302E-02    5.91       1.5  T
   3     -7.4120662  0.814495E-05  0.331E-02    5.91       1.3  T
   4     -7.4120748 -0.854365E-05  0.112E-03    5.91      39.9  T
   5     -7.4120748 -0.260128E-08  0.610E-04    5.91      73.3  T
   6     -7.4120748 -0.411494E-09  0.150E-04    5.91     298.5  T
     SCC iter.                  ...        0 min,  0.001 sec
     gradient                   ...        0 min,  0.001 sec
 * total energy  :    -7.2141785 Eh     change       -0.1502371E-04 Eh
   gradient norm :     0.0014106 Eh/α   predicted     0.0000000E+00 (-100.00%)
   displ. norm   :     0.0852923 α      lambda       -0.4037197E-04
   maximum displ.:     0.0843895 α      in ANC's #1, #3, #2, ...

........................................................................
.............................. CYCLE   22 ..............................
........................................................................
   1     -7.4118273 -0.741183E+01  0.220E-01    5.86       0.0  T
   2     -7.4118275 -0.181582E-06  0.132E-01    5.86       1.0  T
   3     -7.4118274  0.139380E-06  0.656E-03    5.86       6.8  T
   4     -7.4118276 -0.184698E-06  0.383E-03    5.86      11.7  T
   5     -7.4118276 -0.552141E-07  0.195E-03    5.86      22.9  T
   6     -7.4118276 -0.131284E-07  0.103E-04    5.86     433.0  T
   7     -7.4118276 -0.941380E-11  0.335E-05    5.86    1336.7  T
     SCC iter.                  ...        0 min,  0.000 sec
     gradient                   ...        0 min,  0.001 sec
 * total energy  :    -7.2142033 Eh     change       -0.2480799E-04 Eh
   gradient norm :     0.0015508 Eh/α   predicted    -0.2025013E-04 ( -18.37%)
   displ. norm   :     0.0227901 α      lambda       -0.1280751E-04
   maximum displ.:     0.0170336 α      in ANC's #2, #3, #1, ...

........................................................................
.............................. CYCLE   23 ..............................
........................................................................
   1     -7.4123454 -0.741235E+01  0.534E-02    5.87       0.0  T
   2     -7.4123454 -0.581732E-08  0.325E-02    5.87       1.4  T
   3     -7.4123448  0.685571E-06  0.943E-03    5.87       4.7  T
   4     -7.4123455 -0.713497E-06  0.951E-04    5.87      47.0  T
   5     -7.4123455 -0.255289E-09  0.558E-04    5.87      80.2  T
     SCC iter.                  ...        0 min,  0.000 sec
     gradient                   ...        0 min,  0.001 sec
 * total energy  :    -7.2142142 Eh     change       -0.1094840E-04 Eh
   gradient norm :     0.0009576 Eh/α   predicted    -0.6404604E-05 ( -41.50%)
   displ. norm   :     0.0622825 α      lambda       -0.3216838E-04
   maximum displ.:     0.0395348 α      in ANC's #3, #1, #2, ...

........................................................................
.............................. CYCLE   24 ..............................
........................................................................
   1     -7.4134368 -0.741344E+01  0.103E-01    5.90       0.0  T
   2     -7.4134368  0.309792E-07  0.623E-02    5.90       1.0  T
   3     -7.4134313  0.546631E-05  0.264E-02    5.90       1.7  T
   4     -7.4134370 -0.565396E-05  0.200E-03    5.90      22.3  T
   5     -7.4134370 -0.406354E-08  0.117E-03    5.90      38.2  T
   6     -7.4134370 -0.252320E-08  0.310E-04    5.90     144.2  T
   7     -7.4134370 -0.453140E-10  0.359E-05    5.90    1246.4  T
     SCC iter.                  ...        0 min,  0.000 sec
     gradient                   ...        0 min,  0.001 sec
 * total energy  :    -7.2142196 Eh     change       -0.5399851E-05 Eh
   gradient norm :     0.0033085 Eh/α   predicted    -0.1611229E-04 ( 198.38%)
   displ. norm   :     0.0198693 α      lambda       -0.2117269E-04
   maximum displ.:     0.0154792 α      in ANC's #1, #2, #3, ...

........................................................................
.............................. CYCLE   25 ..............................
........................................................................
   1     -7.4127040 -0.741270E+01  0.544E-02    5.89       0.0  T
   2     -7.4127040 -0.392342E-08  0.329E-02    5.89       1.4  T
   3     -7.4127033  0.691830E-06  0.945E-03    5.89       4.7  T
   4     -7.4127040 -0.718680E-06  0.934E-04    5.89      47.9  T
   5     -7.4127040 -0.562675E-09  0.510E-04    5.89      87.7  T
     SCC iter.                  ...        0 min,  0.000 sec
     gradient                   ...        0 min,  0.001 sec
 * total energy  :    -7.2142348 Eh     change       -0.1518268E-04 Eh
   gradient norm :     0.0016831 Eh/α   predicted    -0.1059083E-04 ( -30.24%)
   displ. norm   :     0.0280741 α      lambda       -0.8328937E-05
   maximum displ.:     0.0242205 α      in ANC's #1, #2, #3, ...

........................................................................
.............................. CYCLE   26 ..............................
........................................................................
   1     -7.4119889 -0.741199E+01  0.804E-02    5.88       0.0  T
   2     -7.4119889 -0.158105E-07  0.485E-02    5.88       1.0  T
   3     -7.4119879  0.999452E-06  0.114E-02    5.88       3.9  T
   4     -7.4119889 -0.104241E-05  0.123E-03    5.88      36.5  T
   5     -7.4119889 -0.109298E-08  0.385E-04    5.88     116.3  T
   6     -7.4119889 -0.178895E-09  0.199E-04    5.88     225.3  T
     SCC iter.                  ...        0 min,  0.000 sec
     gradient                   ...        0 min,  0.001 sec
 * total energy  :    -7.2142384 Eh     change       -0.3604556E-05 Eh
   gradient norm :     0.0012500 Eh/α   predicted    -0.4164383E-05 (  15.53%)
   displ. norm   :     0.0085404 α      lambda       -0.2111407E-05
   maximum displ.:     0.0071385 α      in ANC's #1, #2, #4, ...

........................................................................
.............................. CYCLE   27 ..............................
........................................................................
   1     -7.4122816 -0.741228E+01  0.212E-02    5.89       0.0  T
   2     -7.4122816  0.127409E-08  0.129E-02    5.89       3.5  T
   3     -7.4122813  0.276286E-06  0.595E-03    5.89       7.5  T
   4     -7.4122816 -0.285224E-06  0.533E-04    5.89      84.0  T
   5     -7.4122816 -0.790082E-09  0.265E-04    5.89     168.8  T
     SCC iter.                  ...        0 min,  0.000 sec
     gradient                   ...        0 min,  0.001 sec
 * total energy  :    -7.2142406 Eh     change       -0.2164176E-05 Eh
   gradient norm :     0.0008081 Eh/α   predicted    -0.1054544E-05 ( -51.27%)
   displ. norm   :     0.0069132 α      lambda       -0.1743374E-05
   maximum displ.:     0.0046177 α      in ANC's #1, #7, #2, ...

   *** GEOMETRY OPTIMIZATION CONVERGED AFTER 27 ITERATIONS ***

------------------------------------------------------------------------
 total energy gain   :        -0.1549373 Eh      -97.2246 kcal/mol
 total RMSD          :         1.1076552 a0        0.5861 Å
 total power (kW/mol):       -15.0662176 (step)-7552.5967 (real)
------------------------------------------------------------------------

 ANCopt (total)                0 d,  0 h,  0 min,  0.054 sec
 optimizer setup                ...        0 min,  0.000 sec (  0.122%)
 model hessian                  ...        0 min,  0.000 sec (  0.208%)
 ANC generation                 ...        0 min,  0.000 sec (  0.176%)
 coordinate transformation      ...        0 min,  0.000 sec (  0.114%)
 single point calculation       ...        0 min,  0.051 sec ( 95.147%)
 optimization log               ...        0 min,  0.001 sec (  1.238%)
 hessian update                 ...        0 min,  0.000 sec (  0.105%)
 rational function              ...        0 min,  0.001 sec (  1.271%)

================
 final structure:
================
5
 xtb: 6.2.2 (9d81278992624c895f80dd42a50cac0aa55982e2)
C        -0.00018506886402    0.00525655378914   -0.11101854712805
C         1.20916457319040   -0.13405086235339   -0.44278976547862
C        -1.20940380691855    0.02739564328036    0.24883561469337
H         2.20582432331724   -0.10110525348635   -0.76357208330541
H        -2.20540002072506    0.20250291877025    0.52208078121869

 Bond Distances (Angstroems)
 ---------------------------
C1-C2=1.2617         C1-C3=1.2618         C2-C1=1.2617         C2-H4=1.0475         C3-C1=1.2618         C3-H5=1.0475         
H4-C2=1.0475         H5-C3=1.0475         
 C  H  Rav=1.0475 sigma=0.0000  Rmin=1.0475  Rmax=1.0475     2
 C  C  Rav=1.2618 sigma=0.0000  Rmin=1.2617  Rmax=1.2618     2

 selected bond angles (degree)
 --------------------
C3-C1-C2=174.53                H4-C2-C1=171.48                H5-C3-C1=171.30                

 selected dihedral angles (degree)
 ---------------------------------
H4-C2-C1-C3=175.90            H5-C3-C1-C2=175.11            
           -------------------------------------------------
          |                Final Singlepoint                |
           -------------------------------------------------

          ...................................................
          :                      SETUP                      :
          :.................................................:
          :  # basis functions                  14          :
          :  # atomic orbitals                  14          :
          :  # shells                            8          :
          :  # electrons                        14          :
          :  max. iterations                   250          :
          :  Hamiltonian                  GFN2-xTB          :
          :  restarted?                      false          :
          :  GBSA solvation                  false          :
          :  PC potential                    false          :
          :  electronic temp.          300.0000000     K    :
          :  accuracy                    1.0000000          :
          :  -> integral cutoff          0.2500000E+02      :
          :  -> integral neglect         0.1000000E-07      :
          :  -> SCF convergence          0.1000000E-05 Eh   :
          :  -> wf. convergence          0.1000000E-03 e    :
          :  Broyden damping             0.4000000          :
          ...................................................

 iter      E             dE          RMSdq      gap      omega  full diag
   1     -7.4122816 -0.741228E+01  0.421E-05    5.89       0.0  T
   2     -7.4122816 -0.134026E-11  0.192E-05    5.89    2334.0  T
   3     -7.4122816  0.111910E-12  0.154E-05    5.89    2895.6  T

   *** convergence criteria satisfied after 3 iterations ***

         #    Occupation            Energy/Eh            Energy/eV
      -------------------------------------------------------------
         1        2.0000           -0.6176830             -16.8080
         2        2.0000           -0.5831999             -15.8697
         3        2.0000           -0.5222895             -14.2122
         4        2.0000           -0.4858766             -13.2214
         5        2.0000           -0.4495384             -12.2326
         6        2.0000           -0.4494112             -12.2291
         7        1.0000           -0.3255057              -8.8575
         8        1.0000           -0.3245332              -8.8310 (HOMO)
         9                         -0.1081729              -2.9435 (LUMO)
        10                         -0.1048447              -2.8530
        11                          0.0549818               1.4961
        12                          0.2243580               6.1051
        13                          0.7191345              19.5686
        14                          1.4306695              38.9305
      -------------------------------------------------------------
                  HL-Gap            0.2163603 Eh            5.8875 eV
             Fermi-level           -0.3019057 Eh           -8.2153 eV

 transition dipole moment (au) for excitation:           7           8
     X       Y       Z   
   0.0136   0.0089   0.0386  total (au/Debye):    0.042   0.107
 dE (eV)             :    0.026
 oscillator strength :  0.16101E-05

 SCC (total)                   0 d,  0 h,  0 min,  0.002 sec
 SCC setup                      ...        0 min,  0.000 sec (  2.894%)
 Dispersion                     ...        0 min,  0.000 sec (  0.552%)
 integral evaluation            ...        0 min,  0.001 sec ( 30.724%)
 zeroth order Hamiltonian       ...        0 min,  0.000 sec (  0.473%)
 iterations                     ...        0 min,  0.000 sec (  9.584%)
 molecular gradient             ...        0 min,  0.001 sec ( 30.161%)
 printout                       ...        0 min,  0.001 sec ( 25.183%)

         :::::::::::::::::::::::::::::::::::::::::::::::::::::
         ::                     SUMMARY                     ::
         :::::::::::::::::::::::::::::::::::::::::::::::::::::
         :: total energy              -7.214240596457 Eh    ::
         :: gradient norm              0.000808344327 Eh/a0 ::
         :: HOMO-LUMO gap              5.887464553166 eV    ::
         ::.................................................::
         :: SCC energy                -7.412281578062 Eh    ::
         :: -> isotropic ES            0.001295902417 Eh    ::
         :: -> anisotropic ES         -0.001494887594 Eh    ::
         :: -> anisotropic XC          0.015356555804 Eh    ::
         :: -> dispersion             -0.001549025689 Eh    ::
         :: repulsion energy           0.198041252478 Eh    ::
         :: add. restraining           0.000000000000 Eh    ::
         :::::::::::::::::::::::::::::::::::::::::::::::::::::

           ------------------------------------------------- 
          |                Numerical Hessian                |
           ------------------------------------------------- 
step length          :   0.00500
SCC accuracy         :   0.30000
Hessian scale factor :   1.00000
frozen atoms in %    :   0.00000    0
RMS gradient         :   0.00081
estimated CPU  time      0.00 min
estimated wall time      0.00 min

writing file <hessian>.

 projected vibrational frequencies (cm-1)
eigval :       -0.00    -0.00    -0.00    -0.00    -0.00     0.00
eigval :      192.83   278.73   297.33   426.11   443.70  1351.80
eigval :     1896.82  3387.09  3395.86
           -------------------------------------------------
          |                Property Printout                |
           -------------------------------------------------

    * Orbital Energies and Occupations

         #    Occupation            Energy/Eh            Energy/eV
      -------------------------------------------------------------
         1        2.0000           -0.6176829             -16.8080
         2        2.0000           -0.5831998             -15.8697
         3        2.0000           -0.5222895             -14.2122
         4        2.0000           -0.4858766             -13.2214
         5        2.0000           -0.4495384             -12.2326
         6        2.0000           -0.4494111             -12.2291
         7        1.0000           -0.3255056              -8.8575
         8        1.0000           -0.3245331              -8.8310 (HOMO)
         9                         -0.1081729              -2.9435 (LUMO)
        10                         -0.1048446              -2.8530
        11                          0.0549818               1.4961
        12                          0.2243581               6.1051
        13                          0.7191346              19.5686
        14                          1.4306696              38.9305
      -------------------------------------------------------------
                  HL-Gap            0.2163603 Eh            5.8875 eV
             Fermi-level           -0.3019057 Eh           -8.2153 eV

     #   Z        covCN         q      C6AA      α(0)
     1   6 C      1.962     0.019    30.569     8.929
     2   6 C      1.912    -0.090    33.575     9.358
     3   6 C      1.912    -0.090    33.576     9.358
     4   1 H      0.928     0.080     1.977     2.199
     5   1 H      0.928     0.080     1.977     2.199

 Mol. C6AA /au·bohr⁶  :        397.145466
 Mol. C8AA /au·bohr⁸  :      10369.302241
 Mol. α(0) /au        :         32.042008


Wiberg/Mayer (AO) data.
largest (>0.10) Wiberg bond orders for each atom
          total WBO             WBO to atom ...
     1  C   3.983        C    2 1.983    C    3 1.982
     2  C   2.970        C    1 1.983    H    4 0.973
     3  C   2.970        C    1 1.982    H    5 0.973
     4  H   0.993        C    2 0.973
     5  H   0.993        C    3 0.973

MOs/occ written to file <molden.input>


molecular dipole:
                 x           y           z       tot (Debye)
 q only:        0.000       0.034      -0.008
   full:        0.000       0.074      -0.017       0.192
molecular quadrupole (traceless):
                xx          xy          yy          xz          yz          zz
 q only:        1.760      -0.193      -0.996      -0.815       0.047      -0.764
  q+dip:        6.509      -0.710      -3.663      -2.999       0.180      -2.846
   full:        3.704      -0.410      -2.092      -1.722       0.096      -1.612

           -------------------------------------------------
          |                Geometry Summary                 |
           -------------------------------------------------

      molecular mass/u    :       38.0480892
   center of mass at/Å    :       -0.0001232      -0.0293228      -0.1026688
  moments of inertia/u·Å² :        0.4362959E-01   0.4884359E+02   0.4888673E+02
rotational constants/cm⁻¹ :        0.3863807E+03   0.3451350E+00   0.3448304E+00

 * 4 selected distances

     #   Z        #   Z                                     value/Å
     1   6 C      2   6 C                                 1.2617469
     1   6 C      3   6 C                                 1.2618221 (max)
     2   6 C      4   1 H                                 1.0475292 (min)
     3   6 C      5   1 H                                 1.0475371

 * 2 distinct bonds (by element types)

   Z      Z             #   av. dist./Å        max./Å        min./Å
   1 H    6 C           2     1.0475331     1.0475371     1.0475292
   6 C    6 C           2     1.2617845     1.2618221     1.2617469

           -------------------------------------------------
          |               Frequency Printout                |
           -------------------------------------------------
Molecule has the following symmetry elements: (C2) 2*(sigma) 
It seems to be the C2v point group
 projected vibrational frequencies (cm-1)
eigval :       -0.00    -0.00    -0.00    -0.00    -0.00     0.00
eigval :      192.83   278.73   297.33   426.11   443.70  1351.80
eigval :     1896.82  3387.09  3395.86
 reduced masses (amu)
   1: 10.49   2:  9.58   3: 10.56   4: 11.52   5: 11.43   6:  8.45   7:  8.93   8:  3.42
   9:  3.48  10:  4.67  11:  5.00  12: 10.89  13: 11.51  14:  2.09  15:  2.14
 IR intensities (amu)
   1:  0.17   2:  0.06   3:  0.07   4:  0.16   5:  0.20   6:  0.26   7:  0.35   8:  0.01
   9:  0.12  10:  0.07  11:  0.05  12:  0.03  13:  0.02  14:  0.17  15:  0.02
 Raman intensities (amu)
   1:  0.00   2:  0.00   3:  0.00   4:  0.00   5:  0.00   6:  0.00   7:  0.00   8:  0.00
   9:  0.00  10:  0.00  11:  0.00  12:  0.00  13:  0.00  14:  0.00  15:  0.00
 output can be read by thermo (or use thermo option).
 writing <g98.out> molden fake output.
 recommended (thermochemical) frequency scaling factor: 1.0
           -------------------------------------------------
          |             Thermodynamic Functions             |
           -------------------------------------------------

c2v symmetry found (for desy threshold:  0.10E+00) used in thermo

          ...................................................
          :                      SETUP                      :
          :.................................................:
          :  # frequencies                           9      :
          :  # imaginary freq.                       0      :
          :  linear?                             false      :
          :  only rotor calc.                    false      :
          :  symmetry                              c2v      :
          :  rotational number                       2      :
          :  scaling factor                  1.0000000      :
          :  rotor cutoff                   50.0000000 cm⁻¹ :
          :  imag. cutoff                  -20.0000000 cm⁻¹ :
          :.................................................:

    mode    ω/cm⁻¹     T·S(HO)/kcal·mol⁻¹    T·S(FR)/kcal·mol⁻¹   T·S(vib)
   ------------------------------------------------------------------------
       1    192.83    -0.00000 ( 99.55%)     0.01173 (  0.45%)     0.00005
       2    278.73    -0.00000 ( 99.90%)     0.01539 (  0.10%)     0.00002
       3    297.33    -0.00000 ( 99.92%)     0.01603 (  0.08%)     0.00001
   ------------------------------------------------------------------------

   temp. (K)  partition function   enthalpy   heat capacity  entropy
                                   cal/mol     cal/K/mol   cal/K/mol   J/K/mol
 298.15  VIB   3.81                 1259.441      8.172      6.885
         ROT   390.                  888.752      2.981     14.836
         INT  0.149E+04             2148.194     11.153     21.722
         TR   0.227E+27             1481.254      4.968     36.821
         TOT                        3629.4477    16.1211    58.5427   244.9428

   temp. (K)  partition function   enthalpy   heat capacity  entropy
                                   cal/mol     cal/K/mol   cal/K/mol   J/K/mol
 120.00  VIB   1.20                  128.248      3.492      1.430
         ROT   99.5                  357.707      2.981     12.124
         INT   119.                  485.955      6.473     13.554
         TR   0.580E+26              596.178      4.968     32.302
         TOT                        1082.1331    11.4413    45.8554   191.8591

   temp. (K)  partition function   enthalpy   heat capacity  entropy
                                   cal/mol     cal/K/mol   cal/K/mol   J/K/mol
 100.00  VIB   1.11                   68.159      2.506      0.885
         ROT   75.7                  298.089      2.981     11.580
         INT   83.7                  366.248      5.487     12.465
         TR   0.441E+26              496.815      4.968     31.396
         TOT                         863.0635    10.4547    43.8615   183.5167

   temp. (K)  partition function   enthalpy   heat capacity  entropy
                                   cal/mol     cal/K/mol   cal/K/mol   J/K/mol
  80.00  VIB   1.04                   28.154      1.502      0.443
         ROT   54.2                  238.471      2.981     10.915
         INT   56.6                  266.625      4.483     11.358
         TR   0.316E+26              397.452      4.968     30.288
         TOT                         664.0772     9.4510    41.6458   174.2459

   temp. (K)  partition function   enthalpy   heat capacity  entropy
                                   cal/mol     cal/K/mol   cal/K/mol   J/K/mol
  60.00  VIB   1.01                    7.219      0.631      0.147
         ROT   35.2                  178.853      2.981     10.057
         INT   35.6                  186.072      3.612     10.204
         TR   0.205E+26              298.089      4.968     28.860
         TOT                         484.1611     8.5797    39.0635   163.4418

   temp. (K)  partition function   enthalpy   heat capacity  entropy
                                   cal/mol     cal/K/mol   cal/K/mol   J/K/mol
  40.00  VIB   1.00                    0.591      0.107      0.017
         ROT   19.2                  119.236      2.981      8.849
         INT   19.2                  119.827      3.088      8.866
         TR   0.112E+26              198.726      4.968     26.846
         TOT                         318.5531     8.0563    35.7120   149.4189

   temp. (K)  partition function   enthalpy   heat capacity  entropy
                                   cal/mol     cal/K/mol   cal/K/mol   J/K/mol
  20.00  VIB   1.00                    0.001      0.000     -0.004
         ROT   6.77                   59.618      2.981      6.782
         INT   6.77                   59.618      2.981      6.778
         TR   0.395E+25               99.363      4.968     23.404
         TOT                         158.9813     7.9494    30.1824   126.2833

   temp. (K)  partition function   enthalpy   heat capacity  entropy
                                   cal/mol     cal/K/mol   cal/K/mol   J/K/mol
  10.00  VIB   1.00                    0.000      0.000     -0.009
         ROT   2.39                   29.809      2.981      4.716
         INT   2.39                   29.809      2.981      4.707
         TR   0.139E+25               49.681      4.968     19.962
         TOT                          79.4904     7.9490    24.6696   103.2177

       T/K    H(0)-H(T)+PV         H(T)/Eh          T*S/Eh         G(T)/Eh
   ------------------------------------------------------------------------
    298.15    0.578389E-02    0.323707E-01    0.278155E-01    0.455519E-02
    120.00    0.172449E-02    0.283113E-01    0.876903E-02    0.195423E-01
    100.00    0.137538E-02    0.279622E-01    0.698978E-02    0.209724E-01
     80.00    0.105827E-02    0.276451E-01    0.530934E-02    0.223358E-01
     60.00    0.771560E-03    0.273584E-01    0.373510E-02    0.236233E-01
     40.00    0.507647E-03    0.270945E-01    0.227643E-02    0.248181E-01
     20.00    0.253353E-03    0.268402E-01    0.961975E-03    0.258782E-01
     10.00    0.126676E-03    0.267135E-01    0.393136E-03    0.263204E-01 (used)
   ------------------------------------------------------------------------

         :::::::::::::::::::::::::::::::::::::::::::::::::::::
         ::                  THERMODYNAMIC                  ::
         :::::::::::::::::::::::::::::::::::::::::::::::::::::
         :: total free energy          -7.187920218946 Eh   ::
         ::.................................................::
         :: total energy               -7.214240596406 Eh   ::
         :: zero point energy           0.026586837001 Eh   ::
         :: G(RRHO) w/o ZPVE           -0.000266459540 Eh   ::
         :: G(RRHO) contrib.            0.026320377461 Eh   ::
         :::::::::::::::::::::::::::::::::::::::::::::::::::::

optimized geometry written to: xtbopt.xyz


           -------------------------------------------------
          | TOTAL ENERGY               -7.214240596406 Eh   |
          | TOTAL ENTHALPY             -7.187527083390 Eh   |
          | TOTAL FREE ENERGY          -7.187920218946 Eh   |
          | GRADIENT NORM               0.000808333079 Eh/α |
          | HOMO-LUMO GAP               5.887463394741 eV   |
           -------------------------------------------------

------------------------------------------------------------------------
 * finished run on 2020/05/12 at 11:44:26.836     
------------------------------------------------------------------------
 total:
 * wall-time:     0 d,  0 h,  0 min,  0.126 sec
 *  cpu-time:     0 d,  0 h,  0 min,  0.126 sec
 * ratio c/w:     0.999 speedup
 SCF:
 * wall-time:     0 d,  0 h,  0 min,  0.003 sec
 *  cpu-time:     0 d,  0 h,  0 min,  0.003 sec
 * ratio c/w:     1.000 speedup
 ANC optimizer:
 * wall-time:     0 d,  0 h,  0 min,  0.057 sec
 *  cpu-time:     0 d,  0 h,  0 min,  0.056 sec
 * ratio c/w:     0.998 speedup
 numerical hessian:
 * wall-time:     0 d,  0 h,  0 min,  0.051 sec
 *  cpu-time:     0 d,  0 h,  0 min,  0.051 sec
 * ratio c/w:     0.999 speedup

