$hessian                                                                        
        1.0394425309  -0.0677072560  -0.2894892602  -0.5100331253   0.0440810491
        0.1425179290  -0.5094755635   0.0239361172   0.1474708731  -0.0099489259
        0.0076649985  -0.0020590503  -0.0099849162  -0.0079749088   0.0015595083
       -0.0677072560   0.0384048622   0.0184337905   0.0654620290  -0.0148889163
       -0.0177290385   0.0019936794  -0.0094619089   0.0000872603  -0.0017434303
       -0.0074637922   0.0002718134   0.0019949779  -0.0065902448  -0.0010638256
       -0.2894892602   0.0184337905   0.1130761290   0.1366216614  -0.0111437879
       -0.0454198487   0.1517280677  -0.0067500478  -0.0510938527   0.0010031935
       -0.0026362950  -0.0078604673   0.0001363377   0.0020963403  -0.0087019602
       -0.5100331253   0.0654620290   0.1366216614   1.0195633964  -0.0540858282
       -0.2980914879  -0.1556467813   0.0019765563   0.0454706960  -0.3532948760
       -0.0157934352   0.1149750518  -0.0005886139   0.0024406781   0.0010240788
        0.0440810491  -0.0148889163  -0.0111437879  -0.0540858282   0.0139926714
        0.0138799823   0.0182616194  -0.0010019577  -0.0061468686  -0.0085668132
       -0.0011416037   0.0030842228   0.0003099729   0.0030398062   0.0003264514
        0.1425179290  -0.0177290385  -0.0454198487  -0.2980914879   0.0138799823
        0.0936396704   0.0416409279  -0.0006368438  -0.0146754751   0.1125561313
        0.0052333782  -0.0370997805   0.0013764996  -0.0007474782   0.0035554338
       -0.5094755635   0.0019936794   0.1517280677  -0.1556467813   0.0182616194
        0.0416409279   1.0185011334  -0.0849331645  -0.2914733762  -0.0005935821
       -0.0016880229   0.0019768797  -0.3527852065   0.0663658886   0.0961275009
        0.0239361172  -0.0094619089  -0.0067500478   0.0019765563  -0.0010019577
       -0.0006368438  -0.0849331645   0.0190552202   0.0235544884   0.0003691356
        0.0033282892  -0.0001651042   0.0586513553  -0.0119196429  -0.0160024926
        0.1474708731   0.0000872603  -0.0510938527   0.0454706960  -0.0061468686
       -0.0146754751  -0.2914733762   0.0235544884   0.0891451875   0.0013657837
        0.0008088855   0.0033199373   0.0971660235  -0.0183037656  -0.0266957970
       -0.0099489259  -0.0017434303   0.0010031935  -0.3532948760  -0.0085668132
        0.1125561313  -0.0005935821   0.0003691356   0.0013657837   0.3641469902
        0.0097790981  -0.1153253873  -0.0003096062   0.0001620098   0.0004002788
        0.0076649985  -0.0074637922  -0.0026362950  -0.0157934352  -0.0011416037
        0.0052333782  -0.0016880229   0.0033282892   0.0008088855   0.0097790981
        0.0041195763  -0.0033068238   0.0000373616   0.0011575303  -0.0000991449
       -0.0020590503   0.0002718134  -0.0078604673   0.1149750518   0.0030842228
       -0.0370997805   0.0019768797  -0.0001651042   0.0033199373  -0.1153253873
       -0.0033068238   0.0405336930   0.0004325061   0.0001158918   0.0011066175
       -0.0099849162   0.0019949779   0.0001363377  -0.0005886139   0.0003099729
        0.0013764996  -0.3527852065   0.0586513553   0.0971660235  -0.0003096062
        0.0000373616   0.0004325061   0.3636683428  -0.0609936677  -0.0991113669
       -0.0079749088  -0.0065902448   0.0020963403   0.0024406781   0.0030398062
       -0.0007474782   0.0663658886  -0.0119196429  -0.0183037656   0.0001620098
        0.0011575303   0.0001158918  -0.0609936677   0.0143125511   0.0168390117
        0.0015595083  -0.0010638256  -0.0087019602   0.0010240788   0.0003264514
        0.0035554338   0.0961275009  -0.0160024926  -0.0266957970   0.0004002788
       -0.0000991449   0.0011066175  -0.0991113669   0.0168390117   0.0307357058
