5
 energy: -7.059303276476 gnorm: 0.271458168144 xtb: 6.2.2 (9d81278992624c895f80dd42a50cac0aa55982e2)
C         0.12172900000000   -0.59235000000000    0.29629200000000
C         0.89146400000000    0.22076900000000   -0.72507500000000
C        -1.36732300000000   -0.36732900000000    0.12111200000000
H         1.97919500000000    0.05058400000000   -0.58915900000000
H        -1.62506500000000    0.68832500000000    0.35036600000000
5
 energy: -7.140782185472 gnorm: 0.174327987408 xtb: 6.2.2 (9d81278992624c895f80dd42a50cac0aa55982e2)
C         0.06874729780412   -0.50151348146860    0.18755643066601
C         0.90739666690530    0.13975451433468   -0.67753987512529
C        -1.30431303707950   -0.35499117419421    0.16036089650386
H         1.99170001796360    0.05833424180848   -0.58368346353918
H        -1.66353094559352    0.65841489951966    0.36684201149460
5
 energy: -7.167584338131 gnorm: 0.237142869091 xtb: 6.2.2 (9d81278992624c895f80dd42a50cac0aa55982e2)
C         0.02859688378309   -0.39881143238706    0.04087896075508
C         0.93236949669408    0.01789031686133   -0.57637384450621
C        -1.21635337654075   -0.31323500897961    0.20866422360601
H         2.00847981276964    0.07295595356379   -0.60350378002899
H        -1.75309281670606    0.62119917094154    0.38387044017411
5
 energy: -7.191988836028 gnorm: 0.110191055681 xtb: 6.2.2 (9d81278992624c895f80dd42a50cac0aa55982e2)
C        -0.05131233657379   -0.32213789127072   -0.04332072295869
C         1.09564159226069   -0.03690784814886   -0.61896524785175
C        -1.30894827378315   -0.31458333683484    0.29538505032793
H         2.13103642082245    0.08680165372842   -0.61273600425620
H        -1.86641740272619    0.58682642252600    0.43317292473872
5
 energy: -7.197413038895 gnorm: 0.108748712756 xtb: 6.2.2 (9d81278992624c895f80dd42a50cac0aa55982e2)
C        -0.01694457827063   -0.23015898164011   -0.03189238603510
C         1.12492341850965   -0.10341307323431   -0.65484297686094
C        -1.26183651641508   -0.25813056154025    0.21008899773226
H         2.16945636732375    0.04801515005413   -0.60938928881392
H        -2.01559869114768    0.54368646636053    0.53957165397771
5
 energy: -7.193299362232 gnorm: 0.216915796651 xtb: 6.2.2 (9d81278992624c895f80dd42a50cac0aa55982e2)
C         0.03122707140450   -0.25241790394500   -0.10518576014682
C         1.08539874872813   -0.08457012992078   -0.60371583843212
C        -1.24318408879405   -0.22518627924616    0.27894374284141
H         2.14762740096835    0.02970079412227   -0.59891471914797
H        -2.02106913230693    0.53247251898967    0.48240857488550
5
 energy: -7.206966514730 gnorm: 0.023861226028 xtb: 6.2.2 (9d81278992624c895f80dd42a50cac0aa55982e2)
C        -0.03217927305146   -0.18654445080651   -0.08634411868201
C         1.12336077508489   -0.10186560359500   -0.58786824205083
C        -1.27048235852516   -0.23349013840015    0.25505330260402
H         2.17038841081549    0.03201830370234   -0.63197543548135
H        -1.99108755432375    0.48988088909932    0.50467049361017
5
 energy: -7.208212733260 gnorm: 0.056982168750 xtb: 6.2.2 (9d81278992624c895f80dd42a50cac0aa55982e2)
C        -0.01776306435234   -0.09442488780923   -0.09175363556302
C         1.17190935763878   -0.05480414535525   -0.53410516155955
C        -1.24998889141393   -0.21368177146518    0.23909648582120
H         2.19793304022873   -0.06919883425558   -0.68893637980332
H        -2.10209044210122    0.43210863888524    0.52923469110468
5
 energy: -7.210733917872 gnorm: 0.040563039304 xtb: 6.2.2 (9d81278992624c895f80dd42a50cac0aa55982e2)
C        -0.02545077844716   -0.07080016835297   -0.08784087701768
C         1.16385673470856   -0.08178475692309   -0.50895522498376
C        -1.24666883753503   -0.18416886574857    0.22007492698113
H         2.20336881382266   -0.06207883473413   -0.70614241593338
H        -2.09510593254902    0.39883162575875    0.53639959095368
5
 energy: -7.211246336983 gnorm: 0.051458526091 xtb: 6.2.2 (9d81278992624c895f80dd42a50cac0aa55982e2)
C        -0.02948352712262   -0.01726320008250   -0.14784332804234
C         1.17179276369694   -0.18161712393574   -0.55068649486122
C        -1.25323265964632   -0.12776432702100    0.22839343309815
H         2.20730907323610   -0.02072623095944   -0.65143715326240
H        -2.09638565016409    0.34736988199867    0.57510954306782
5
 energy: -7.213103836107 gnorm: 0.013608688473 xtb: 6.2.2 (9d81278992624c895f80dd42a50cac0aa55982e2)
C        -0.01379748836906   -0.00487917355976   -0.12967199561373
C         1.17531200500510   -0.15785696844946   -0.52167818738430
C        -1.23252406751005   -0.10454294918488    0.20933972728113
H         2.20130007972338   -0.05601049862569   -0.68017141561390
H        -2.13029052884936    0.32328858981978    0.57571787133081
5
 energy: -7.213415983706 gnorm: 0.016832169870 xtb: 6.2.2 (9d81278992624c895f80dd42a50cac0aa55982e2)
C        -0.01267174226623   -0.00620410627855   -0.13105112932582
C         1.17976617920703   -0.15633513976486   -0.49478187587694
C        -1.23014736553161   -0.08604975748055    0.21358699507068
H         2.20914215047609   -0.06081489383251   -0.70212730942135
H        -2.14608922188527    0.30940289735647    0.56790931955343
5
 energy: -7.213680353303 gnorm: 0.015061313636 xtb: 6.2.2 (9d81278992624c895f80dd42a50cac0aa55982e2)
C        -0.01113470029424    0.00636913287669   -0.13617090673985
C         1.18782518855926   -0.16200757626631   -0.47472636870560
C        -1.22536385885435   -0.05959492663866    0.21390493872788
H         2.20914486131743   -0.06783283231308   -0.71640438832233
H        -2.16047149072809    0.28306520234135    0.56693272503991
5
 energy: -7.213868002066 gnorm: 0.013485319316 xtb: 6.2.2 (9d81278992624c895f80dd42a50cac0aa55982e2)
C        -0.00824280166422    0.00438872853034   -0.13794074685439
C         1.19449935407030   -0.16453177403630   -0.45288962612783
C        -1.22090215647394   -0.02871162573227    0.21830691351704
H         2.19976433303652   -0.06885943508549   -0.73098144261304
H        -2.16511872896864    0.25771310632371    0.55704090207823
5
 energy: -7.213893229735 gnorm: 0.009615039494 xtb: 6.2.2 (9d81278992624c895f80dd42a50cac0aa55982e2)
C        -0.00715005924559    0.01738276256144   -0.14512965720356
C         1.21412874158729   -0.17938505046148   -0.42186556300946
C        -1.21555995727458    0.01941930312544    0.22066805785262
H         2.20518192059078   -0.07368605112953   -0.75695292960635
H        -2.19660064565789    0.21626803590412    0.55681609196674
5
 energy: -7.214044977366 gnorm: 0.004628237007 xtb: 6.2.2 (9d81278992624c895f80dd42a50cac0aa55982e2)
C        -0.00709824455408    0.00537203970484   -0.13619569980062
C         1.20630979779567   -0.16623869816012   -0.43289344123186
C        -1.21879640545448   -0.00254849049414    0.21922912408846
H         2.20190297528428   -0.07294908195885   -0.75008724940670
H        -2.18231812307138    0.23636323090827    0.55348326635072
5
 energy: -7.214084754571 gnorm: 0.004660716879 xtb: 6.2.2 (9d81278992624c895f80dd42a50cac0aa55982e2)
C        -0.00539563962396    0.00213478440357   -0.13128870207271
C         1.20866136404984   -0.16047804290567   -0.42775987952868
C        -1.21854428172095    0.00238670854545    0.21842006166659
H         2.20059570613710   -0.07650778047560   -0.75639433254542
H        -2.18531714884201    0.23246333043226    0.55055885248022
5
 energy: -7.214147709235 gnorm: 0.001865797407 xtb: 6.2.2 (9d81278992624c895f80dd42a50cac0aa55982e2)
C        -0.00205952334606   -0.00732222045177   -0.11693465875815
C         1.21679704361962   -0.14349140242940   -0.41379843901666
C        -1.21935336226231    0.01598387971285    0.21696547340994
H         2.19867070204271   -0.08642024502812   -0.77491929586190
H        -2.19405486005395    0.22124898819643    0.54222292022677
5
 energy: -7.214154703434 gnorm: 0.003777041097 xtb: 6.2.2 (9d81278992624c895f80dd42a50cac0aa55982e2)
C        -0.00032870225732   -0.00671186495215   -0.11264059831301
C         1.21793737610582   -0.13753955663615   -0.41473889154134
C        -1.21860545947707    0.02006170976828    0.21508701569156
H         2.19700971358418   -0.09185137948042   -0.77619025793815
H        -2.19601292795560    0.21604009130043    0.54201873210094
5
 energy: -7.214163463070 gnorm: 0.002458626558 xtb: 6.2.2 (9d81278992624c895f80dd42a50cac0aa55982e2)
C         0.00014108373225   -0.00524794392686   -0.10989879891494
C         1.21903712003469   -0.13009313692879   -0.41153658667262
C        -1.21885432218273    0.02172505032397    0.21513812111620
H         2.19762370276515   -0.09822431054889   -0.78023800758824
H        -2.19794758434934    0.21183934108056    0.54007127205959
5
 energy: -7.214178486782 gnorm: 0.001410562292 xtb: 6.2.2 (9d81278992624c895f80dd42a50cac0aa55982e2)
C        -0.00002896929546   -0.00256433682799   -0.10917184745665
C         1.21884548004125   -0.12159667017480   -0.41254479784593
C        -1.21903616103781    0.02267262027142    0.21715929036229
H         2.19930522981957   -0.10568397690939   -0.78039794012946
H        -2.19908557952753    0.20717136364075    0.53849129506974
5
 energy: -7.214203294773 gnorm: 0.001550794172 xtb: 6.2.2 (9d81278992624c895f80dd42a50cac0aa55982e2)
C         0.00048833358697   -0.01090972857732   -0.10452744965252
C         1.21284228021142   -0.13837565895997   -0.43072933061857
C        -1.21343457145277    0.01791028307662    0.23903866523073
H         2.20230763993343   -0.08743614443381   -0.77355186308103
H        -2.20220368227904    0.21881024889448    0.52330597812137
5
 energy: -7.214214243175 gnorm: 0.000957756669 xtb: 6.2.2 (9d81278992624c895f80dd42a50cac0aa55982e2)
C        -0.00166712014850   -0.00843856404946   -0.11271152334267
C         1.21262675387566   -0.13472709931155   -0.43087455958747
C        -1.21275876303000    0.01880309560177    0.24074460166502
H         2.20278550052158   -0.09164927839745   -0.76955601553016
H        -2.20098637121872    0.21601084615669    0.52593349679526
5
 energy: -7.214219643026 gnorm: 0.003308619876 xtb: 6.2.2 (9d81278992624c895f80dd42a50cac0aa55982e2)
C         0.00184536823506    0.00964121465820   -0.10459047399111
C         1.21165101752932   -0.13028246254912   -0.43435978582266
C        -1.21212981673696    0.02867522409953    0.23679596837302
H         2.20091785930046   -0.10633026903056   -0.76982028626050
H        -2.20228442832787    0.19829529282194    0.52551057770124
5
 energy: -7.214234825704 gnorm: 0.001683187627 xtb: 6.2.2 (9d81278992624c895f80dd42a50cac0aa55982e2)
C         0.00050997500716    0.00711438092075   -0.10887728864753
C         1.21078284809220   -0.13200065872524   -0.43765921686663
C        -1.21110287207981    0.02729543034102    0.24242220801069
H         2.20356135475841   -0.10352683535727   -0.76685004982904
H        -2.20375130577794    0.20111668282074    0.52450034733250
5
 energy: -7.214238430260 gnorm: 0.001250083939 xtb: 6.2.2 (9d81278992624c895f80dd42a50cac0aa55982e2)
C        -0.00070646272366    0.00409715712811   -0.11269776510787
C         1.20883357690343   -0.13515342814722   -0.44375475249083
C        -1.20901824672728    0.02624587910400    0.25094515997157
H         2.20664023630297   -0.09943721701739   -0.76257717826755
H        -2.20574910375544    0.20424660893249    0.52162053589465
5
 energy: -7.214240594436 gnorm: 0.000808082722 xtb: 6.2.2 (9d81278992624c895f80dd42a50cac0aa55982e2)
C        -0.00018506886402    0.00525655378914   -0.11101854712805
C         1.20916457319040   -0.13405086235339   -0.44278976547862
C        -1.20940380691855    0.02739564328036    0.24883561469337
H         2.20582432331724   -0.10110525348635   -0.76357208330541
H        -2.20540002072506    0.20250291877025    0.52208078121869
