[Molden Format]
[Title]
[Atoms] AU
C      1     6 -0.35040974672163E-03  0.99330817733641E-02 -0.20979464547590E+00
C      2     6  0.22849854236871E+01 -0.25333281768020E+00 -0.83675884389468E+00
C      3     6 -0.22854398445789E+01  0.51783045248380E-01  0.47023900553237E+00
H      4     1  0.41683974260571E+01 -0.19108556521249E+00 -0.14429561969784E+01
H      5     1 -0.41675962001265E+01  0.38269856381959E+00  0.98660347967103E+00
[GTO]
           1 0
 s           4   1.0000000000000000     
   51.049363095579913      -0.16312063210127389     
   8.7911227406887544      -0.19911024581000730     
  0.70640422258929825       0.31882047753655751     
  0.26922813413411617       0.12706504184240380     
 p           4   1.0000000000000000     
   5.8263656140800002       0.73716451545209605     
   1.5106896018720002       0.68216371614850257     
  0.53256483288000001       0.35783053929253711     
  0.21202323690600003        5.3983030275847881E-002

           2 0
 s           4   1.0000000000000000     
   51.049363095579913      -0.16312063210127389     
   8.7911227406887544      -0.19911024581000730     
  0.70640422258929825       0.31882047753655751     
  0.26922813413411617       0.12706504184240380     
 p           4   1.0000000000000000     
   5.8263656140800002       0.73716451545209605     
   1.5106896018720002       0.68216371614850257     
  0.53256483288000001       0.35783053929253711     
  0.21202323690600003        5.3983030275847881E-002

           3 0
 s           4   1.0000000000000000     
   51.049363095579913      -0.16312063210127389     
   8.7911227406887544      -0.19911024581000730     
  0.70640422258929825       0.31882047753655751     
  0.26922813413411617       0.12706504184240380     
 p           4   1.0000000000000000     
   5.8263656140800002       0.73716451545209605     
   1.5106896018720002       0.68216371614850257     
  0.53256483288000001       0.35783053929253711     
  0.21202323690600003        5.3983030275847881E-002

           4 0
 s           3   1.0000000000000000     
   3.3702276975336001       0.27359110588908298     
  0.61389118221497996       0.26460540653860526     
  0.16614291148415999        8.2465947534082318E-002

           5 0
 s           3   1.0000000000000000     
   3.3702276975336001       0.27359110588908298     
  0.61389118221497996       0.26460540653860526     
  0.16614291148415999        8.2465947534082318E-002

[MO]
Sym=     1a
Ene=  -0.61768292434198047     
Spin= Alpha
Occup=     2.00000000
           1  0.55213391934032885     
           2   8.1246397069480039E-005
           3  -1.1952865268991933E-002
           4   2.8576446509404507E-003
           5  0.32913749422207467     
           6 -0.16356495590362732     
           7   1.7959543293662141E-002
           8   4.4987899793575495E-002
           9  0.32900199520590984     
          10  0.16351272118701340     
          11  -3.8011301914496146E-003
          12  -4.8339792838757271E-002
          13   5.6963432195250345E-002
          14   5.6954645951063670E-002
Sym=     2a
Ene=  -0.58319983643678408     
Spin= Alpha
Occup=     2.00000000
           1  -7.9961449505746172E-005
           2  0.36238867813778358     
           3  -2.4298191880202161E-002
           4 -0.10391519520895513     
           5  0.44067484862027795     
           6  -3.9963288037868375E-002
           7   1.4069337125454530E-002
           8   8.1959025079020760E-003
           9 -0.44075140833989390     
          10  -4.0014836796356097E-002
          11  -9.1077995946960803E-003
          12   1.3680363815962774E-002
          13  0.15794805629102607     
          14 -0.15797790989559055     
Sym=     3a
Ene=  -0.52228945868380761     
Spin= Alpha
Occup=     2.00000000
           1  0.19730126029991632     
           2   2.6048151545826085E-005
           3  -1.6278309320678974E-002
           4   3.6816595891437337E-003
           5 -0.28051294029672658     
           6 -0.28185357820311291     
           7   2.5672550421180808E-003
           8   8.6270579754005552E-002
           9 -0.28047423787432313     
          10  0.28158529176962677     
          11  -3.6463346392602097E-002
          12  -7.8614065719907519E-002
          13 -0.35154455733777268     
          14 -0.35140417794446072     
Sym=     4a
Ene=  -0.48587655357958776     
Spin= Alpha
Occup=     2.00000000
           1   3.1848815418245042E-005
           2 -0.31218282403536474     
           3   1.8635198309215072E-002
           4   8.3454206099694242E-002
           5   3.9052741134398578E-002
           6  0.36512102442364308     
           7  -1.7864269196873506E-002
           8 -0.11185934761711887     
           9  -3.9038128190513117E-002
          10  0.36511568499055147     
          11  -3.5174367228338728E-002
          12 -0.10828664425082363     
          13  0.34952783132930004     
          14 -0.34966185637047681     
Sym=     5a
Ene=  -0.44953838440604266     
Spin= Alpha
Occup=     2.00000000
           1   4.4845796061701623E-002
           2  -2.0455888655050358E-003
           3  0.58911101030246560     
           4 -0.14284118061067541     
           5  -4.0170704212591044E-002
           6  -8.0504755032748034E-003
           7  0.41681393906264541     
           8  -9.9064836979532694E-002
           9  -4.0759432240131281E-002
          10   7.3490520506773469E-003
          11  0.41565157682182902     
          12 -0.10345024343309132     
          13   7.6506489659256200E-004
          14  -1.4129556914757263E-004
Sym=     6a
Ene=  -0.44941113259311105     
Spin= Alpha
Occup=     2.00000000
           1   2.7362325705208097E-004
           2  0.16749088205697504     
           3  0.13818707986084616     
           4  0.56767021260464889     
           5   1.8394724938879863E-003
           6  0.12657491196414986     
           7   9.7212293997602492E-002
           8  0.39882077129943055     
           9  -2.7661695838142584E-003
          10  0.12709383080427306     
          11   9.6944071566939488E-002
          12  0.39860364421748623     
          13   3.4213859044352028E-003
          14  -3.5663372496719126E-003
Sym=     7a
Ene=  -0.32550562569197655     
Spin= Alpha
Occup=     1.00000000
           1  -2.9427882549672353E-004
           2   2.2630686185743751E-002
           3  -1.3136957286615748E-003
           4  -6.0825838619466572E-003
           5  -5.9459434396809237E-002
           6  -1.7811008026416050E-002
           7  0.69196477410383617     
           8 -0.15468894341065503     
           9   6.1032979797907470E-002
          10  -1.9501793191190022E-002
          11 -0.68953998481584877     
          12  0.16540159521877043     
          13   2.1074088781811849E-002
          14  -2.1774381171667041E-002
Sym=     8a
Ene=  -0.32453314920927562     
Spin= Alpha
Occup=     1.00000000
           1  -2.1150342495871097E-003
           2   7.3407754110461395E-006
           3   5.5482945588666919E-004
           4  -1.6697153747063565E-004
           5   5.6931843624672806E-003
           6  0.20367433831609172     
           7  0.15393893213781026     
           8  0.66507128160160522     
           9   5.4995527037431536E-003
          10 -0.20435189984303281     
          11 -0.15372615613308799     
          12 -0.66503139735599026     
          13  -2.5494866700952294E-003
          14  -2.4485547841849599E-003
Sym=     9a
Ene=  -0.10817285060916500     
Spin= Alpha
Occup=     0.00000000
           1   7.1961560561544825E-003
           2   1.0927311603550734E-003
           3  0.84774581500610124     
           4 -0.19525710274204358     
           5   8.8214649871188919E-002
           6   3.4415667507681699E-002
           7 -0.58959415559365613     
           8  0.12393346501443596     
           9   8.9901961606470251E-002
          10  -3.7019098467217772E-002
          11 -0.58361287690856423     
          12  0.14662987964622262     
          13  -7.5199450161406320E-002
          14  -7.6801771785172251E-002
Sym=    10a
Ene=  -0.10484464491709093     
Spin= Alpha
Occup=     0.00000000
           1  -7.3196624621185409E-004
           2  0.24877866453149516     
           3  0.18788023060549694     
           4  0.81716495606718864     
           5  -5.9423318501055592E-003
           6 -0.17790148785058307     
           7 -0.13207997824735784     
           8 -0.57029832761357235     
           9   6.6134077147713662E-003
          10 -0.17796322634047398     
          11 -0.13011926040897881     
          12 -0.57065286985640962     
          13   5.6582409622840911E-003
          14  -6.1639586967530361E-003
Sym=    11a
Ene=    5.4981842500417683E-002
Spin= Alpha
Occup=     0.00000000
           1  0.64483926965531313     
           2   4.9744532115222309E-004
           3   4.9560366409376409E-002
           4  -1.0708323731210686E-002
           5 -0.75190213947256268     
           6  -3.9931986459902299E-002
           7 -0.10421896470527076     
           8   4.3355555350045642E-002
           9 -0.75092782268684544     
          10   3.8893927546569472E-002
          11 -0.11468065987783753     
          12   6.7056728927261710E-003
          13  0.63112281500913847     
          14  0.63020201310278046     
Sym=    12a
Ene=   0.22435808216679295     
Spin= Alpha
Occup=     0.00000000
           1   3.6749916171525086E-004
           2 -0.33873392103261024     
           3   2.5632495737054152E-002
           4  0.10490364927250456     
           5  0.70093787156400078     
           6  0.40582257826299162     
           7   4.9925947672617398E-002
           8 -0.14523907654405285     
           9 -0.70160556213848646     
          10  0.40559022898076513     
          11 -0.11212176544257130     
          12 -0.10787211337545610     
          13 -0.78898072001353758     
          14  0.78965367676851494     
Sym=    13a
Ene=   0.71913458277863096     
Spin= Alpha
Occup=     0.00000000
           1  -1.1013252028832177     
           2   4.9832556491249502E-004
           3   9.9786703891120779E-002
           4  -2.3783066478830554E-002
           5   5.8572736177916848E-002
           6 -0.89431147993809545     
           7   2.0246271160011757E-002
           8  0.26952604065616215     
           9   5.9119848572845225E-002
          10  0.89472902816149880     
          11 -0.10253627545449194     
          12 -0.25105197240219596     
          13  0.59870180748009549     
          14  0.59885951857087427     
Sym=    14a
Ene=    1.4306695587623046     
Spin= Alpha
Occup=     0.00000000
           1   6.3544035230174770E-004
           2   1.4350005386880167     
           3  -9.5368327861820784E-002
           4 -0.40907950975459939     
           5 -0.58961899522578098     
           6  0.92201405512598311     
           7  -9.2502849082969310E-002
           8 -0.25899170237364427     
           9  0.58951393117361839     
          10  0.92081535841060513     
          11  -3.2577028744733026E-002
          12 -0.27353406134147268     
          13 -0.36975716059850366     
          14  0.36906262327561912     
