 Entering Gaussian System
 *********************************************
 Gaussian 98:
 frequency output generated by the xtb code
 *********************************************
                         Standard orientation:
 --------------------------------------------------------------------
  Center     Atomic     Atomic              Coordinates (Angstroms)
  Number     Number      Type              X           Y           Z
 --------------------------------------------------------------------
    1          6             0        0.216137    0.857781   -0.061767
    2          6             0       -0.836774   -0.037699   -0.701911
    3          6             0        0.193971   -0.863368    0.057313
    4          6             0       -0.820024    0.060278    0.719865
    5          7             0        1.246691   -0.016992   -0.013500
 --------------------------------------------------------------------
     1 basis functions        1 primitive gaussians
     1 alpha electrons        1 beta electrons

 Harmonic frequencies (cm**-1), IR intensities (KM/Mole),
 Raman scattering activities (A**4/amu), Raman depolarization ratios,
 reduced masses (AMU), force constants (mDyne/A) and normal coordinates:
                      1                      2                      3
                        a                      a                      a 
 Frequencies -- -1016.7608               241.5774               726.0517
 Red. masses --    12.0107                12.7437                12.4257
 Frc consts  --     0.0000                 0.0000                 0.0000
 IR Inten    --     0.0057                 0.1597                 1.3428
 Raman Activ --     0.0000                 0.0000                 0.0000
 Depolar     --     0.0000                 0.0000                 0.0000
 Atom AN      X      Y      Z        X      Y      Z        X      Y      Z
   1   6    -0.00  -0.03  -0.45     0.01   0.03   0.47    -0.23   0.23  -0.01
   2   6     0.01   0.54  -0.04     0.26  -0.01  -0.15     0.48  -0.02  -0.24
   3   6     0.01   0.03   0.45     0.01   0.03   0.47    -0.24  -0.23   0.02
   4   6    -0.01  -0.54   0.04    -0.27  -0.01  -0.14     0.48   0.01   0.23
   5   7     0.00  -0.00  -0.00    -0.01  -0.04  -0.60    -0.46   0.01   0.00
                      4                      5                      6
                        a                      a                      a 
 Frequencies --   794.0984               851.1539               905.6877
 Red. masses --    12.0307                12.2632                12.5901
 Frc consts  --     0.0000                 0.0000                 0.0000
 IR Inten    --     0.7212                 0.5140                 1.9447
 Raman Activ --     0.0000                 0.0000                 0.0000
 Depolar     --     0.0000                 0.0000                 0.0000
 Atom AN      X      Y      Z        X      Y      Z        X      Y      Z
   1   6     0.00   0.02   0.28     0.58   0.09  -0.01    -0.05   0.54  -0.03
   2   6    -0.56  -0.01  -0.32    -0.01  -0.29   0.02    -0.01  -0.25   0.01
   3   6     0.00   0.01   0.28    -0.58   0.11  -0.00     0.06   0.54  -0.04
   4   6     0.55  -0.03  -0.33    -0.00  -0.29   0.02     0.00  -0.25   0.01
   5   7     0.00   0.01   0.10     0.01   0.35  -0.02    -0.01  -0.54   0.04
                      7                      8                      9
                        a                      a                      a 
 Frequencies --   964.6796              1399.3090              1449.8839
 Red. masses --    12.2115                12.3664                12.5847
 Frc consts  --     0.0000                 0.0000                 0.0000
 IR Inten    --     0.4879                 1.5918                 0.1972
 Raman Activ --     0.0000                 0.0000                 0.0000
 Depolar     --     0.0000                 0.0000                 0.0000
 Atom AN      X      Y      Z        X      Y      Z        X      Y      Z
   1   6     0.27   0.50  -0.04     0.41  -0.08   0.00     0.10  -0.44   0.03
   2   6    -0.09   0.03   0.35    -0.19  -0.03  -0.45     0.19   0.02   0.35
   3   6     0.26  -0.50   0.03     0.41   0.07  -0.01     0.11   0.43  -0.03
   4   6    -0.10  -0.02  -0.35    -0.18   0.03   0.45     0.18  -0.03  -0.35
   5   7    -0.32   0.00   0.00    -0.42   0.01   0.00    -0.54   0.01   0.01
