5
 energy: -11.003436727284 gnorm: 0.163137700131 xtb: 6.2.2 (9d81278992624c895f80dd42a50cac0aa55982e2)
C         0.16225700000000    0.95350000000000   -0.06770100000000
C        -0.79319700000000   -0.03849100000000   -0.70441900000000
C         0.13762900000000   -0.95758300000000    0.06443400000000
C        -0.77639000000000    0.05986300000000    0.72142300000000
N         1.26970100000000   -0.01728900000000   -0.01373700000000
5
 energy: -11.023293518615 gnorm: 0.083506176483 xtb: 6.2.2 (9d81278992624c895f80dd42a50cac0aa55982e2)
C         0.18837787399045    0.90088297254186   -0.06437798228160
C        -0.80948500614233   -0.03878526900016   -0.71173889814617
C         0.16510298781630   -0.90569882311344    0.06053134267027
C        -0.79250588468692    0.06060325914804    0.72909522727184
N         1.24851002902249   -0.01700213957631   -0.01350968951434
5
 energy: -11.027645769072 gnorm: 0.049470352935 xtb: 6.2.2 (9d81278992624c895f80dd42a50cac0aa55982e2)
C         0.21980422618221    0.84504021144858   -0.06089439048956
C        -0.83246517991569   -0.03851890003315   -0.71221959290632
C         0.19796770170475   -0.85073252272494    0.05635502832665
C        -0.81547740036030    0.06096816867040    0.73007475416628
N         1.23017065238903   -0.01675695736088   -0.01331579909706
5
 energy: -11.028768292670 gnorm: 0.010091556460 xtb: 6.2.2 (9d81278992624c895f80dd42a50cac0aa55982e2)
C         0.21112433199957    0.86034084337550   -0.06184841834323
C        -0.83016792601009   -0.03835062009360   -0.70938464902475
C         0.18889576679217   -0.86579116437396    0.05750320254841
C        -0.81324853719832    0.06073774595121    0.72718992537111
N         1.24339636441666   -0.01693680485915   -0.01346006055155
5
 energy: -11.028867646855 gnorm: 0.006141177765 xtb: 6.2.2 (9d81278992624c895f80dd42a50cac0aa55982e2)
C         0.21362016346908    0.85778580732844   -0.06170322349810
C        -0.83361991560016   -0.03809989327325   -0.70646353278747
C         0.19145861396815   -0.86330480081739    0.05730564626419
C        -0.81677119278314    0.06058285931425    0.72434387456623
N         1.24531233094606   -0.01696397255205   -0.01348276454485
5
 energy: -11.028915963856 gnorm: 0.001520939575 xtb: 6.2.2 (9d81278992624c895f80dd42a50cac0aa55982e2)
C         0.21668155309980    0.85646280574723   -0.06166136554449
C        -0.83791108498817   -0.03767527685794   -0.70134406083301
C         0.19455990680069   -0.86205720938019    0.05719406573834
C        -0.82117607284938    0.06027489357551    0.71931782500922
N         1.24784569793706   -0.01700521308461   -0.01350646437005
5
 energy: -11.028918285980 gnorm: 0.000476026916 xtb: 6.2.2 (9d81278992624c895f80dd42a50cac0aa55982e2)
C         0.21613268313123    0.85778262337242   -0.06176469692214
C        -0.83677172777994   -0.03770184861002   -0.70191394105519
C         0.19397483343845   -0.86336703472144    0.05731225987039
C        -0.82002691281499    0.06027205885811    0.71986250644936
N         1.24669112402525   -0.01698579889906   -0.01349612834241
