[Molden Format]
[Title]
[Atoms] AU
C      1     6  0.30342462948169E+01 -0.19111445237417E+00  0.87463136865477E-01
C      2     6  0.69858429679107E+00  0.83877404619397E-01  0.33672960520462E-01
C      3     6 -0.18593357497466E+01 -0.11038890196932E+01 -0.16895980722596E+00
O      4     8 -0.18734967315973E+01  0.12111241777319E+01  0.47823709849916E-01
[GTO]
           1 0
 s           4   1.0000000000000000     
   51.049363095579913      -0.16312063210127389     
   8.7911227406887544      -0.19911024581000730     
  0.70640422258929825       0.31882047753655751     
  0.26922813413411617       0.12706504184240380     
 p           4   1.0000000000000000     
   5.8263656140800002       0.73716451545209605     
   1.5106896018720002       0.68216371614850257     
  0.53256483288000001       0.35783053929253711     
  0.21202323690600003        5.3983030275847881E-002

           2 0
 s           4   1.0000000000000000     
   51.049363095579913      -0.16312063210127389     
   8.7911227406887544      -0.19911024581000730     
  0.70640422258929825       0.31882047753655751     
  0.26922813413411617       0.12706504184240380     
 p           4   1.0000000000000000     
   5.8263656140800002       0.73716451545209605     
   1.5106896018720002       0.68216371614850257     
  0.53256483288000001       0.35783053929253711     
  0.21202323690600003        5.3983030275847881E-002

           3 0
 s           4   1.0000000000000000     
   51.049363095579913      -0.16312063210127389     
   8.7911227406887544      -0.19911024581000730     
  0.70640422258929825       0.31882047753655751     
  0.26922813413411617       0.12706504184240380     
 p           4   1.0000000000000000     
   5.8263656140800002       0.73716451545209605     
   1.5106896018720002       0.68216371614850257     
  0.53256483288000001       0.35783053929253711     
  0.21202323690600003        5.3983030275847881E-002

           4 0
 s           4   1.0000000000000000     
   69.137961906196551      -0.20478756370077797     
   11.906129132707308      -0.24997023136827334     
  0.95670827744340703       0.40025880240639616     
  0.36462520496073686       0.15952206667693555     
 p           4   1.0000000000000000     
   8.2124193257781641        1.1321556799186829     
   2.1293576997098116        1.0476840782254817     
  0.75066448202360914       0.54956508217158984     
  0.29885246543283073        8.2908486592766617E-002

[MO]
Sym=     1a
Ene=  -0.82955096960166785     
Spin= Alpha
Occup=     2.00000000
           1   6.1964676795990010E-003
           2  -9.0249509456580453E-003
           3   7.6853695473871712E-004
           4  -2.3870340491194276E-004
           5  0.13734693346156926     
           6 -0.11596441051302124     
           7   1.7524347726063483E-002
           8  -2.4941123286786587E-003
           9  0.29407918151894896     
          10   2.6913154237179805E-002
          11  0.18403742636423956     
          12   1.8239462808686459E-002
          13  0.62414510852744087     
          14   7.9140711994095947E-002
          15 -0.22181093624732107     
          16  -1.7980289778523909E-002
Sym=     2a
Ene=  -0.70548408970486376     
Spin= Alpha
Occup=     2.00000000
           1  0.20993008222326134     
           2  -9.9502190414937033E-002
           3   3.4500452050341868E-003
           4  -3.0967079239015063E-003
           5  0.40361842731111985     
           6  -1.7235789958797081E-002
           7  -5.1872614842411284E-002
           8  -5.6383380181326791E-003
           9  0.15529076841484479     
          10  0.23819532026366577     
          11  -7.3816748779158489E-002
          12   1.4936207191978276E-003
          13 -0.47438044100622195     
          14  0.41085131481867315     
          15 -0.23681657789578572     
          16  -7.7201984678270134E-003
Sym=     3a
Ene=  -0.69341695899034173     
Spin= Alpha
Occup=     2.00000000
           1 -0.11071421474925791     
           2   4.5879450835147773E-002
           3  -3.0029335230804397E-002
           4  -1.2461515211969869E-003
           5 -0.19345162982281944     
           6  -1.7056376499746635E-002
           7 -0.17609054716685046     
           8  -1.7050350823253280E-002
           9  0.39765217971887629     
          10 -0.13625293266228983     
          11   2.4204746260448360E-002
          12  -2.5444211815070497E-003
          13 -0.39665951139766331     
          14 -0.34692034519736614     
          15 -0.53239329269328661     
          16  -6.2278295468424845E-002
Sym=     4a
Ene=  -0.65599532037623565     
Spin= Alpha
Occup=     2.00000000
           1  0.53078884674878368     
           2 -0.11718326566836156     
           3   5.7223288154552507E-003
           4  -3.5152446497857732E-003
           5  0.19172516709443152     
           6  0.37144415625862276     
           7  -8.3668434830571431E-002
           8   4.4563907908733436E-003
           9   1.7984288618962174E-002
          10 -0.14667393026058562     
          11   5.0281557680734376E-002
          12  -1.4905553390108558E-003
          13  0.14880950707070981     
          14 -0.39933139563302283     
          15   1.5040865258428486E-002
          16  -1.4681304546603425E-002
Sym=     5a
Ene=  -0.64702255655180474     
Spin= Alpha
Occup=     2.00000000
           1  -1.4028715304748903E-003
           2   1.9086587037694732E-003
           3   4.3664039490676539E-003
           4  -4.6578764333867387E-002
           5  -7.0657679920828255E-004
           6   7.2548668600382841E-003
           7   2.2124178404269994E-002
           8 -0.23325050744890402     
           9  -4.1002012127621808E-005
          10   1.4372610155436356E-002
          11   3.6971491699354986E-002
          12 -0.39502572095429495     
          13  -3.2591881868988712E-004
          14   2.7955864364631568E-002
          15   7.1148093113753252E-002
          16 -0.75857228718867797     
Sym=     6a
Ene=  -0.53853923109813029     
Spin= Alpha
Occup=     2.00000000
           1   8.3324350702352210E-002
           2   5.5984553452817956E-002
           3  0.19879090966947746     
           4   2.0611210820454348E-002
           5  -4.8217346621111067E-002
           6   9.0304275013563473E-002
           7  0.40656886330129322     
           8   4.1309415898447284E-002
           9 -0.39457085400675002     
          10 -0.21648699984758096     
          11  0.44671742886524096     
          12   3.4243848469039377E-002
          13 -0.19194853374160356     
          14  0.18125274091589152     
          15 -0.43882531104490957     
          16  -3.4681329635254547E-002
Sym=     7a
Ene=  -0.48568934571835637     
Spin= Alpha
Occup=     2.00000000
           1  0.10929341847715746     
           2   9.2300958631826316E-002
           3  0.30922451834200110     
           4   3.1946701109147588E-002
           5  -2.7273973314648731E-002
           6   4.0143013294481208E-002
           7  0.41068438394244661     
           8   3.9598908015720101E-002
           9  0.54109707103868754     
          10 -0.37323763991731251     
          11 -0.43905623252005588     
          12  -5.4439193438652521E-002
          13  -8.4617608240671847E-003
          14  0.18843393790673074     
          15  0.13148438095734893     
          16   1.9246310226932992E-002
Sym=     8a
Ene=  -0.46235891286582731     
Spin= Alpha
Occup=     2.00000000
           1   4.0914614680200518E-003
           2   2.3916862182421689E-002
           3   5.4224482497981716E-002
           4 -0.59109365214699683     
           5  -2.3684887875248749E-003
           6   2.0962665169719685E-002
           7   5.7808239021751973E-002
           8 -0.62479113158833433     
           9  -2.7446465274011183E-004
          10  -1.7261100236682129E-004
          11  -2.4731827738487689E-003
          12   2.9011303868689348E-002
          13   2.3901834086343166E-004
          14  -1.1121921681527895E-002
          15  -3.2324672014527496E-002
          16  0.34315828326621228     
Sym=     9a
Ene=  -0.45401109174552212     
Spin= Alpha
Occup=     2.00000000
           1  0.63852463453723429     
           2  0.62223120771884910     
           3 -0.18538144075918492     
           4   7.8193606609779642E-003
           5 -0.30321324802311728     
           6 -0.12469282363232430     
           7  -9.6073671838905902E-002
           8  -9.4016121899676858E-003
           9   8.0451069015616012E-003
          10  0.10465822439276792     
          11   7.9609208424247114E-003
          12   4.3832865868638771E-003
          13   4.6100280388229817E-002
          14  0.19355696399747607     
          15  -1.3065284991384084E-002
          16   3.4236911212710648E-003
Sym=    10a
Ene=  -0.35344340027599958     
Spin= Alpha
Occup=     0.00000000
           1  -1.6101625534531221E-004
           2  -8.1772435846885153E-003
           3  -2.3431022120605220E-002
           4  0.21170302191089815     
           5  -2.6195314520573458E-004
           6   2.6426596807003848E-004
           7  -2.9275592532686468E-004
           8   5.4195314435834686E-003
           9   1.8569451429561654E-004
          10   2.9922276342347662E-002
          11   8.5265526575604392E-002
          12 -0.90900046876806095     
          13   1.2776860863042433E-004
          14  -1.8897238127064685E-002
          15  -5.5183505191095966E-002
          16  0.58673236830125930     
Sym=    11a
Ene=  -0.35078393640697753     
Spin= Alpha
Occup=     0.00000000
           1  -3.1078981850000662E-002
           2 -0.21562756621100318     
           3 -0.76185151062905299     
           4  -7.9801650674793001E-002
           5  -4.1423749911262894E-002
           6   9.1195061363614952E-002
           7   4.7338264788867879E-002
           8   7.4988392191867514E-003
           9   3.1001886688640064E-002
          10 -0.54311377790140614     
          11  -6.4364406700895410E-003
          12  -1.5648130001429485E-002
          13   2.2898902079613780E-002
          14  0.41827863811701627     
          15  -2.1457274870276797E-002
          16   1.0182218281156537E-002
Sym=    12a
Ene=  -0.21172948149158055     
Spin= Alpha
Occup=     0.00000000
           1   1.3882051739626735E-004
           2   2.8628695449155812E-002
           3   7.5726432103894639E-002
           4 -0.81409430093335944     
           5   1.7730896061843155E-003
           6  -2.8870802833824965E-002
           7  -7.4906314587850589E-002
           8  0.80593716903782908     
           9  -1.6092410005055427E-004
          10   9.0594691168410339E-003
          11   2.5067952659599324E-002
          12 -0.26759633952225909     
          13  -4.5465464813993829E-004
          14   1.9205059466953034E-003
          15   7.6679559767354110E-003
          16  -7.9917119784403745E-002
Sym=    13a
Ene=  -0.11882243527079436     
Spin= Alpha
Occup=     0.00000000
           1  -2.5804978371946324E-002
           2  0.23074491896054927     
           3 -0.49843822267051208     
           4  -3.7548848324160111E-002
           5  0.54363836819104638     
           6 -0.29048642834791988     
           7  0.72357055022466477     
           8   5.6075682897371783E-002
           9  -2.1211472914594947E-002
          10  0.18335721607892402     
          11 -0.11505272678360520     
          12  -3.8708454456181998E-003
          13 -0.23699535411971270     
          14 -0.63021766727086326     
          15   1.3878995746735737E-002
          16  -2.0985677182903499E-002
Sym=    14a
Ene=   -1.4033725537317251E-003
Spin= Alpha
Occup=     0.00000000
           1  -5.6619775775997763E-002
           2  0.32445261300574618     
           3  0.22950073086415040     
           4   3.3433780765694039E-002
           5  0.75042366599706789     
           6 -0.48971868501583415     
           7 -0.48608592016933461     
           8  -6.3935875025878983E-002
           9 -0.17422000589123959     
          10 -0.75406374030724388     
          11  0.23301080328586349     
          12  -4.8260537439339616E-003
          13 -0.29854598084551048     
          14  -5.2218075538879631E-002
          15  0.32486213640230477     
          16   2.8740750082763673E-002
Sym=    15a
Ene=   0.42571310906567295     
Spin= Alpha
Occup=     0.00000000
           1   9.1628501289706191E-002
           2 -0.15601946339085562     
           3  -6.0953405416690525E-002
           4  -1.1151751577617835E-002
           5 -0.32297506505986306     
           6   7.5133720586455163E-002
           7  0.20649843833246967     
           8   2.2317395827853623E-002
           9  0.82799185002906239     
          10  0.18824885125513480     
          11  0.98292986470085442     
          12   9.8928492904431661E-002
          13 -0.69918622925075902     
          14   8.4599319735353048E-003
          15  0.82483230478020797     
          16   7.7693860398633671E-002
Sym=    16a
Ene=   0.89817415962051261     
Spin= Alpha
Occup=     0.00000000
           1 -0.92266194382885347     
           2  0.98522956029039344     
           3 -0.12767307285037224     
           4   2.1465721527038389E-002
           5  0.63254286969826701     
           6   1.2643694978276456     
           7 -0.10062646425710886     
           8   3.4100232328849907E-002
           9  0.26570917762470292     
          10  0.17910947540683364     
          11  0.16406592331549563     
          12   2.1971410627229754E-002
          13  0.12070420095045323     
          14  0.21120134060878515     
          15   1.4789884347876857E-002
          16   9.0589255363857958E-003
