$hessian                                                                        
        0.3928282994  -0.0021599992  -0.0694859696  -0.2651517556   0.0184674480
        0.1029060248  -0.0541241830   0.0434927822  -0.0098516711  -0.0735523608
       -0.0598002310  -0.0235683841
       -0.0021599992   0.3629007418   0.0061325965   0.0183618458  -0.0296845782
       -0.0080651208   0.0618232771  -0.1768286999   0.0851066285  -0.0780251238
       -0.1563874637  -0.0831741042
       -0.0694859696   0.0061325965   0.1793972420   0.1380937399  -0.0108585119
       -0.0610762022  -0.0289757558   0.0664427031  -0.0586646490  -0.0396320145
       -0.0617167877  -0.0596563908
       -0.2651517556   0.0183618458   0.1380937399   0.3164042841  -0.0224790810
       -0.0903344453  -0.0218806132   0.0273237254  -0.0242459079  -0.0293719154
       -0.0232064902  -0.0235133867
        0.0184674480  -0.0296845782  -0.0108585119  -0.0224790810   0.0312789689
        0.0071452936   0.0234796966  -0.0044997708  -0.0038497981  -0.0194680635
        0.0029053802   0.0075630164
        0.1029060248  -0.0080651208  -0.0610762022  -0.0903344453   0.0071452936
        0.0381441664  -0.0065642106  -0.0039389287   0.0114321018  -0.0060073689
        0.0048587559   0.0114999341
       -0.0541241830   0.0618232771  -0.0289757558  -0.0218806132   0.0234796966
       -0.0065642106   0.0727213505  -0.0758113465   0.0318114306   0.0032834456
       -0.0094916272   0.0037285358
        0.0434927822  -0.1768286999   0.0664427031   0.0273237254  -0.0044997708
       -0.0039389287  -0.0758113465   0.2060669141  -0.0715445218   0.0049948389
       -0.0247384434   0.0090407474
       -0.0098516711   0.0851066285  -0.0586646490  -0.0242459079  -0.0038497981
        0.0114321018   0.0318114306  -0.0715445218   0.0430600772   0.0022861484
       -0.0097123087   0.0041724700
       -0.0735523608  -0.0780251238  -0.0396320145  -0.0293719154  -0.0194680635
       -0.0060073689   0.0032834456   0.0049948389   0.0022861484   0.0996408306
        0.0924983484   0.0433532351
       -0.0598002310  -0.1563874637  -0.0617167877  -0.0232064902   0.0029053802
        0.0048587559  -0.0094916272  -0.0247384434  -0.0097123087   0.0924983484
        0.1782205269   0.0665703404
       -0.0235683841  -0.0831741042  -0.0596563908  -0.0235133867   0.0075630164
        0.0114999341   0.0037285358   0.0090407474   0.0041724700   0.0433532351
        0.0665703404   0.0439839867
