5
 energy: -8.727215887047 gnorm: 0.000741291120 xtb: 6.2.2 (9d81278992624c895f80dd42a50cac0aa55982e2)
N        -0.38001686479873   -0.05081595156365    0.00732456368802
C        -1.42548367106916   -0.82163317205304    0.23835281332582
N         0.86478695551256   -0.39343917419199    0.16675423177996
H        -0.57907560656913    0.91402983562347   -0.33990669649761
H         1.51978918692796    0.35185846218696   -0.07252391229620
