      -----------------------------------------------------------      
     |                   =====================                   |     
     |                           x T B                           |     
     |                   =====================                   |     
     |                         S. Grimme                         |     
     |          Mulliken Center for Theoretical Chemistry        |     
     |                    University of Bonn                     |     
      -----------------------------------------------------------      

   * xtb version 6.2.2 (9d81278992624c895f80dd42a50cac0aa55982e2) compiled by '@Darwin' on 04/03/2020

   xtb is free software: you can redistribute it and/or modify it under
   the terms of the GNU Lesser General Public License as published by
   the Free Software Foundation, either version 3 of the License, or
   (at your option) any later version.
   
   xtb is distributed in the hope that it will be useful,
   but WITHOUT ANY WARRANTY; without even the implied warranty of
   MERCHANTABILITY or FITNESS FOR A PARTICULAR PURPOSE.  See the
   GNU Lesser General Public License for more details.
   
   Cite this work as:
   * S. Grimme, C. Bannwarth, P. Shushkov, J. Chem. Theory Comput., 2017,
     13, 1989-2009. DOI: 10.1021/acs.jctc.7b00118
   * C. Bannwarth, S. Ehlert and S. Grimme., J. Chem. Theory Comput., 2019,
     15, 1652-1671. DOI: 10.1021/acs.jctc.8b01176
   * P. Pracht, E. Caldeweyher, S. Ehlert, S. Grimme, ChemRxiv, 2019, preprint.
     DOI: 10.26434/chemrxiv.8326202.v1
   
   for DFT-D4:
   * E. Caldeweyher, C. Bannwarth and S. Grimme, J. Chem. Phys., 2017,
     147, 034112. DOI: 10.1063/1.4993215
   * E. Caldeweyher, S. Ehlert, A. Hansen, H. Neugebauer, S. Spicher,
     C. Bannwarth and S. Grimme, J. Chem. Phys., 2019, 150, 154122.
     DOI: 10.1063/1.5090222
   
   for sTDA-xTB:
   * S. Grimme and C. Bannwarth, J. Chem. Phys., 2016, 145, 054103.
     DOI: 10.1063/1.4959605
   
   in the mass-spec context:
   * V. Asgeirsson, C. Bauer and S. Grimme, Chem. Sci., 2017, 8, 4879.
     DOI: 10.1039/c7sc00601b
   
   for metadynamics refer to:
   * S. Grimme, J. Chem. Theory Comput., 2019, 155, 2847-2862
     DOI: 10.1021/acs.jctc.9b00143
   
   with help from (in alphabetical order)
   C. Bannwarth, F. Bohle, G. Brandenburg, E. Caldeweyher, M. Checinski,
   S. Dohm, S. Ehlert, S. Ehrlich, F. März, H. Neugebauer, J. Pisarek,
   P. Pracht, P. Shushkov, and S. Spicher.
   
 * started run on 2020/05/12 at 11:45:20.757     

           -------------------------------------------------
          |                Calculation Setup                |
           -------------------------------------------------

          program call               : xtb --input H2C1N2_2_S_2.input H2C1N2_2_S_2.xyz --ohess --molden --namespace H2C1N2_2_S_2 output.out
          calculation namespace      : H2C1N2_2_S_2
          coordinate file            : H2C1N2_2_S_2.xyz
          number of atoms            :                     5
          number of electrons        :                    16
          charge                     :                     0
          spin                       :                   1.0
          first test random number   :      0.46395200173515

   ID    Z sym.   atoms
    1    7 N      1, 3
    2    6 C      2
    3    1 H      4, 5

           -------------------------------------------------
          |                 G F N 2 - x T B                 |
           -------------------------------------------------

        Reference                      10.1021/acs.jctc.8b01176
      * Hamiltonian:
        H0-scaling (s, p, d)           1.850000    2.230000    2.230000
        zeta-weighting                 0.500000
      * Dispersion:
        s8                             2.700000
        a1                             0.520000
        a2                             5.000000
        s9                             5.000000
      * Repulsion:
        kExp                           1.500000    1.000000
        rExp                           1.000000
      * Coulomb:
        alpha                          2.000000
        third order                    shell-resolved
        anisotropic                    true
        a3                             3.000000
        a5                             4.000000
        cn-shift                       1.200000
        cn-exp                         4.000000
        max-rad                        5.000000


          ...................................................
          :                      SETUP                      :
          :.................................................:
          :  # basis functions                  14          :
          :  # atomic orbitals                  14          :
          :  # shells                            8          :
          :  # electrons                        16          :
          :  max. iterations                   250          :
          :  Hamiltonian                  GFN2-xTB          :
          :  restarted?                      false          :
          :  GBSA solvation                  false          :
          :  PC potential                    false          :
          :  electronic temp.          300.0000000     K    :
          :  accuracy                    1.0000000          :
          :  -> integral cutoff          0.2500000E+02      :
          :  -> integral neglect         0.1000000E-07      :
          :  -> SCF convergence          0.1000000E-05 Eh   :
          :  -> wf. convergence          0.1000000E-03 e    :
          :  Broyden damping             0.4000000          :
          ...................................................

 iter      E             dE          RMSdq      gap      omega  full diag
   1     -8.6566972 -0.865670E+01  0.655E+00    0.56       0.0  T
   2     -8.5546358  0.102061E+00  0.615E+00    0.30       1.0  T
   3     -8.6922939 -0.137658E+00  0.371E+00    0.24       1.0  T
   4     -8.7121042 -0.198103E-01  0.126E+00    0.35       1.0  T
   5     -8.7160765 -0.397233E-02  0.459E-01    0.28       1.0  T
   6     -8.7161194 -0.428928E-04  0.266E-01    0.27       1.0  T
   7     -8.7163202 -0.200795E-03  0.134E-01    0.28       1.0  T
   8     -8.7163472 -0.269689E-04  0.389E-02    0.28       1.1  T
   9     -8.7163540 -0.686588E-05  0.158E-02    0.28       2.8  T
  10     -8.7163534  0.639704E-06  0.128E-02    0.28       3.5  T
  11     -8.7163544 -0.101705E-05  0.489E-03    0.28       9.1  T
  12     -8.7163545 -0.948432E-07  0.706E-04    0.28      63.3  T
  13     -8.7163545 -0.265022E-08  0.309E-04    0.28     144.6  T

   *** convergence criteria satisfied after 13 iterations ***

         #    Occupation            Energy/Eh            Energy/eV
      -------------------------------------------------------------
         1        2.0000           -0.7016468             -19.0928
       ...           ...                  ...                  ...
         3        2.0000           -0.6126196             -16.6702
         4        2.0000           -0.5743064             -15.6277
         5        2.0000           -0.5043015             -13.7227
         6        2.0000           -0.4910586             -13.3624
         7        1.9999           -0.4206718             -11.4471
         8        1.0001           -0.4019504             -10.9376
         9        0.9956           -0.3483953              -9.4803 (HOMO)
        10        0.0044           -0.3380855              -9.1998 (LUMO)
        11                         -0.0188660              -0.5134
        12                          0.0037715               0.1026
        13                          0.0722886               1.9671
        14                          0.1244472               3.3864
      -------------------------------------------------------------
                  HL-Gap            0.0103098 Eh            0.2805 eV
             Fermi-level           -0.3772757 Eh          -10.2662 eV

 transition dipole moment (au) for excitation:           8           9
     X       Y       Z   
  -0.7090  -0.3109  -0.2325  total (au/Debye):    0.808   2.055
 dE (eV)             :    1.457
 oscillator strength :  0.32989E-01

 SCC (total)                   0 d,  0 h,  0 min,  0.004 sec
 SCC setup                      ...        0 min,  0.000 sec (  2.484%)
 Dispersion                     ...        0 min,  0.000 sec (  0.381%)
 integral evaluation            ...        0 min,  0.001 sec ( 20.117%)
 zeroth order Hamiltonian       ...        0 min,  0.000 sec (  0.799%)
 iterations                     ...        0 min,  0.001 sec ( 36.828%)
 molecular gradient             ...        0 min,  0.001 sec ( 20.965%)
 printout                       ...        0 min,  0.001 sec ( 18.076%)

         :::::::::::::::::::::::::::::::::::::::::::::::::::::
         ::                     SUMMARY                     ::
         :::::::::::::::::::::::::::::::::::::::::::::::::::::
         :: total energy              -8.671043025364 Eh    ::
         :: gradient norm              0.134736056091 Eh/a0 ::
         :: HOMO-LUMO gap              0.280545028002 eV    ::
         ::.................................................::
         :: SCC energy                -8.716354504407 Eh    ::
         :: -> isotropic ES           -0.007984499231 Eh    ::
         :: -> anisotropic ES          0.002400890112 Eh    ::
         :: -> anisotropic XC          0.013998405808 Eh    ::
         :: -> dispersion             -0.001483218290 Eh    ::
         :: repulsion energy           0.045311440810 Eh    ::
         :: add. restraining           0.000000000000 Eh    ::
         :::::::::::::::::::::::::::::::::::::::::::::::::::::

      ----------------------------------------------------------- 
     |                   =====================                   |
     |                        A N C O P T                        |
     |                   =====================                   |
     |               Approximate Normal Coordinate               |
     |                Rational Function Optimizer                |
      ----------------------------------------------------------- 

          ...................................................
          :                      SETUP                      :
          :.................................................:
          :   optimization level            normal          :
          :   max. optcycles                   200          :
          :   ANC micro-cycles                  20          :
          :   degrees of freedom                 9          :
          :.................................................:
          :   RF solver                   davidson          :
          :   write xtbopt.log                true          :
          :   linear?                        false          :
          :   energy convergence         0.5000000E-05 Eh   :
          :   grad. convergence          0.1000000E-02 Eh/α :
          :   maximium RF displ.         1.0000000          :
          :   Hlow (freq-cutoff)         0.1000000E-01      :
          :   Hmax (freq-cutoff)         5.0000000          :
          :   S6 in model hess.         20.0000000          :
          ...................................................

generating ANC from model Hessian ...
Using Lindh-Hessian (1995)
 Shifting diagonal of input Hessian by    0.0000000000000000     
 Lowest  eigenvalues of input Hessian
   -0.000000   -0.000000    0.000000    0.000000    0.000000    0.000000
    0.021150    0.060081    0.129163    0.160159    0.249549    0.731996
    0.988809    1.185584    1.387454
 Highest eigenvalues
    0.160159    0.249549    0.731996    0.988809    1.185584    1.387454


........................................................................
.............................. CYCLE    1 ..............................
........................................................................
   1     -8.7163545 -0.871635E+01  0.362E-05    0.28       0.0  T
   2     -8.7163545  0.309086E-12  0.178E-05    0.28    2512.1  T
   3     -8.7163545  0.168754E-11  0.255E-05    0.28    1755.7  T
     SCC iter.                  ...        0 min,  0.001 sec
     gradient                   ...        0 min,  0.001 sec
 * total energy  :    -8.6710430 Eh     change       -0.8427747E-09 Eh
   gradient norm :     0.1347343 Eh/α   predicted     0.0000000E+00 (-100.00%)
   displ. norm   :     0.4097896 α      lambda       -0.3288202E-01
   maximum displ.:     0.2559162 α      in ANC's #1, #2, #5, ...

........................................................................
.............................. CYCLE    2 ..............................
........................................................................
   1     -8.7459192 -0.874592E+01  0.185E+00    0.89       0.0  T
   2     -8.7390488  0.687045E-02  0.154E+00    0.73       1.0  T
   3     -8.7494442 -0.103955E-01  0.952E-01    0.84       1.0  T
   4     -8.7525877 -0.314344E-02  0.240E-01    0.82       1.0  T
   5     -8.7526333 -0.455902E-04  0.839E-02    0.81       1.0  T
   6     -8.7526449 -0.116401E-04  0.173E-02    0.81       2.6  T
   7     -8.7526457 -0.806911E-06  0.399E-03    0.81      11.2  T
   8     -8.7526457 -0.357392E-07  0.937E-04    0.81      47.7  T
   9     -8.7526458 -0.114432E-08  0.221E-04    0.81     202.8  T
     SCC iter.                  ...        0 min,  0.001 sec
     gradient                   ...        0 min,  0.001 sec
 * total energy  :    -8.6970054 Eh     change       -0.2596241E-01 Eh
   gradient norm :     0.1024287 Eh/α   predicted    -0.1920191E-01 ( -26.04%)
   displ. norm   :     0.4047079 α      lambda       -0.3395983E-01
   maximum displ.:     0.2661538 α      in ANC's #6, #2, #1, ...

........................................................................
.............................. CYCLE    3 ..............................
........................................................................
   1     -8.7858705 -0.878587E+01  0.246E+00    1.93       0.0  T
   2     -8.7674359  0.184346E-01  0.224E+00    1.62       1.0  T
   3     -8.7961979 -0.287620E-01  0.121E+00    1.78       1.0  T
   4     -8.8010386 -0.484066E-02  0.403E-01    1.75       1.0  T
   5     -8.8012807 -0.242054E-03  0.863E-02    1.74       1.0  T
   6     -8.8012801  0.564351E-06  0.462E-02    1.74       1.0  T
   7     -8.8012847 -0.461574E-05  0.520E-03    1.74       8.6  T
   8     -8.8012847 -0.898869E-08  0.141E-03    1.74      31.7  T
   9     -8.8012847 -0.279334E-08  0.634E-04    1.74      70.5  T
  10     -8.8012847 -0.114168E-08  0.101E-04    1.74     443.0  T
     SCC iter.                  ...        0 min,  0.001 sec
     gradient                   ...        0 min,  0.001 sec
 * total energy  :    -8.7147642 Eh     change       -0.1775878E-01 Eh
   gradient norm :     0.0378529 Eh/α   predicted    -0.1976103E-01 (  11.27%)
   displ. norm   :     0.4849586 α      lambda       -0.9539487E-02
   maximum displ.:     0.4500189 α      in ANC's #1, #2, #3, ...

........................................................................
.............................. CYCLE    4 ..............................
........................................................................
   1     -8.7783602 -0.877836E+01  0.162E+00    1.56       0.0  T
   2     -8.7798817 -0.152148E-02  0.697E-01    1.59       1.0  T
   3     -8.7799719 -0.902170E-04  0.287E-01    1.58       1.0  T
   4     -8.7799822 -0.103170E-04  0.122E-01    1.57       1.0  T
   5     -8.7799639  0.182837E-04  0.815E-02    1.58       1.0  T
   6     -8.7800004 -0.364993E-04  0.267E-02    1.58       1.7  T
   7     -8.7800016 -0.119028E-05  0.246E-03    1.58      18.2  T
   8     -8.7800016 -0.381967E-08  0.132E-03    1.58      33.8  T
   9     -8.7800016 -0.261367E-08  0.233E-04    1.58     191.7  T
  10     -8.7800016 -0.849756E-10  0.406E-05    1.58    1100.4  T
     SCC iter.                  ...        0 min,  0.001 sec
     gradient                   ...        0 min,  0.001 sec
 * total energy  :    -8.7166614 Eh     change       -0.1897154E-02 Eh
   gradient norm :     0.0674495 Eh/α   predicted    -0.5891513E-02 ( 210.54%)
   displ. norm   :     0.1430950 α      lambda       -0.4709693E-02
   maximum displ.:     0.1246297 α      in ANC's #1, #2, #3, ...

........................................................................
.............................. CYCLE    5 ..............................
........................................................................
   1     -8.7948120 -0.879481E+01  0.590E-01    1.71       0.0  T
   2     -8.7950624 -0.250452E-03  0.251E-01    1.69       1.0  T
   3     -8.7950782 -0.157230E-04  0.112E-01    1.70       1.0  T
   4     -8.7950806 -0.246548E-05  0.451E-02    1.70       1.0  T
   5     -8.7950777  0.290021E-05  0.256E-02    1.70       1.7  T
   6     -8.7950813 -0.356745E-05  0.118E-02    1.70       3.8  T
   7     -8.7950817 -0.384941E-06  0.142E-03    1.70      31.5  T
   8     -8.7950817 -0.100554E-08  0.397E-04    1.70     112.5  T
   9     -8.7950817  0.120686E-10  0.185E-04    1.70     241.2  T
     SCC iter.                  ...        0 min,  0.001 sec
     gradient                   ...        0 min,  0.001 sec
 * total energy  :    -8.7194158 Eh     change       -0.2754396E-02 Eh
   gradient norm :     0.0272590 Eh/α   predicted    -0.2403063E-02 ( -12.76%)
   displ. norm   :     0.1318901 α      lambda       -0.1825486E-02
   maximum displ.:     0.1091363 α      in ANC's #1, #6, #2, ...

........................................................................
.............................. CYCLE    6 ..............................
........................................................................
   1     -8.8016655 -0.880167E+01  0.456E-01    1.80       0.0  T
   2     -8.8017458 -0.802283E-04  0.211E-01    1.78       1.0  T
   3     -8.8016716  0.741290E-04  0.156E-01    1.79       1.0  T
   4     -8.8017762 -0.104582E-03  0.495E-02    1.78       1.0  T
   5     -8.8017812 -0.497241E-05  0.173E-02    1.78       2.6  T
   6     -8.8017819 -0.686342E-06  0.461E-03    1.78       9.7  T
   7     -8.8017819 -0.799439E-08  0.672E-04    1.78      66.6  T
   8     -8.8017819 -0.342524E-09  0.226E-04    1.78     197.7  T
     SCC iter.                  ...        0 min,  0.001 sec
     gradient                   ...        0 min,  0.001 sec
 * total energy  :    -8.7207977 Eh     change       -0.1381904E-02 Eh
   gradient norm :     0.0219233 Eh/α   predicted    -0.9286201E-03 ( -32.80%)
   displ. norm   :     0.3043187 α      lambda       -0.3348751E-02
   maximum displ.:     0.2574199 α      in ANC's #1, #6, #7, ...

........................................................................
.............................. CYCLE    7 ..............................
........................................................................
   1     -8.8026664 -0.880267E+01  0.119E+00    1.85       0.0  T
   2     -8.8031212 -0.454799E-03  0.522E-01    1.82       1.0  T
   3     -8.8029856  0.135559E-03  0.266E-01    1.85       1.0  T
   4     -8.8032091 -0.223442E-03  0.112E-01    1.82       1.0  T
   5     -8.8032297 -0.206216E-04  0.158E-02    1.82       2.8  T
   6     -8.8032297 -0.254644E-07  0.315E-03    1.82      14.2  T
   7     -8.8032297 -0.997330E-08  0.737E-04    1.82      60.7  T
   8     -8.8032297 -0.795453E-10  0.377E-04    1.82     118.7  T
     SCC iter.                  ...        0 min,  0.001 sec
     gradient                   ...        0 min,  0.001 sec
 * total energy  :    -8.7234071 Eh     change       -0.2609406E-02 Eh
   gradient norm :     0.0247751 Eh/α   predicted    -0.1829441E-02 ( -29.89%)
   displ. norm   :     0.3411678 α      lambda       -0.3233438E-02
   maximum displ.:     0.2515581 α      in ANC's #1, #7, #6, ...

........................................................................
.............................. CYCLE    8 ..............................
........................................................................
   1     -8.7974479 -0.879745E+01  0.141E+00    1.79       0.0  T
   2     -8.7980774 -0.629492E-03  0.637E-01    1.77       1.0  T
   3     -8.7981126 -0.351903E-04  0.201E-01    1.78       1.0  T
   4     -8.7981190 -0.639149E-05  0.114E-01    1.76       1.0  T
   5     -8.7981654 -0.464365E-04  0.182E-02    1.77       2.5  T
   6     -8.7981656 -0.128211E-06  0.982E-03    1.77       4.6  T
   7     -8.7981656 -0.217103E-07  0.124E-03    1.77      36.2  T
   8     -8.7981656 -0.161817E-08  0.643E-04    1.77      69.5  T
   9     -8.7981656 -0.167965E-09  0.652E-05    1.77     686.3  T
     SCC iter.                  ...        0 min,  0.001 sec
     gradient                   ...        0 min,  0.001 sec
 * total energy  :    -8.7253348 Eh     change       -0.1927712E-02 Eh
   gradient norm :     0.0288107 Eh/α   predicted    -0.1804899E-02 (  -6.37%)
   displ. norm   :     0.1505403 α      lambda       -0.2510540E-02
   maximum displ.:     0.1015689 α      in ANC's #7, #6, #2, ...

........................................................................
.............................. CYCLE    9 ..............................
........................................................................
   1     -8.8035092 -0.880351E+01  0.651E-01    1.79       0.0  T
   2     -8.8036693 -0.160115E-03  0.277E-01    1.78       1.0  T
   3     -8.8036800 -0.107242E-04  0.107E-01    1.78       1.0  T
   4     -8.8036845 -0.450268E-05  0.420E-02    1.78       1.1  T
   5     -8.8036884 -0.384164E-05  0.164E-02    1.78       2.7  T
   6     -8.8036891 -0.733146E-06  0.522E-03    1.78       8.6  T
   7     -8.8036891 -0.621036E-08  0.601E-04    1.78      74.4  T
   8     -8.8036891 -0.110862E-09  0.255E-04    1.78     175.1  T
     SCC iter.                  ...        0 min,  0.001 sec
     gradient                   ...        0 min,  0.001 sec
 * total energy  :    -8.7258720 Eh     change       -0.5371647E-03 Eh
   gradient norm :     0.0330078 Eh/α   predicted    -0.1283717E-02 ( 138.98%)
   displ. norm   :     0.2111829 α      lambda       -0.2346304E-02
   maximum displ.:     0.1429237 α      in ANC's #1, #7, #6, ...

........................................................................
.............................. CYCLE   10 ..............................
........................................................................
   1     -8.7993249 -0.879932E+01  0.874E-01    1.79       0.0  T
   2     -8.7995794 -0.254567E-03  0.407E-01    1.76       1.0  T
   3     -8.7995504  0.289892E-04  0.171E-01    1.79       1.0  T
   4     -8.7996445 -0.940500E-04  0.538E-02    1.77       1.0  T
   5     -8.7996487 -0.417235E-05  0.105E-02    1.77       4.3  T
   6     -8.7996487 -0.464079E-07  0.510E-03    1.77       8.8  T
   7     -8.7996487 -0.445963E-08  0.589E-04    1.77      75.9  T
   8     -8.7996487 -0.261130E-09  0.233E-04    1.77     191.6  T
     SCC iter.                  ...        0 min,  0.001 sec
     gradient                   ...        0 min,  0.001 sec
 * total energy  :    -8.7268335 Eh     change       -0.9615467E-03 Eh
   gradient norm :     0.0178699 Eh/α   predicted    -0.1225471E-02 (  27.45%)
   displ. norm   :     0.0987796 α      lambda       -0.6838064E-03
   maximum displ.:     0.0630601 α      in ANC's #1, #2, #6, ...

........................................................................
.............................. CYCLE   11 ..............................
........................................................................
   1     -8.8058618 -0.880586E+01  0.413E-01    1.84       0.0  T
   2     -8.8059364 -0.745143E-04  0.202E-01    1.83       1.0  T
   3     -8.8059385 -0.210124E-05  0.776E-02    1.84       1.0  T
   4     -8.8059432 -0.479010E-05  0.334E-02    1.83       1.3  T
   5     -8.8059456 -0.234319E-05  0.105E-02    1.83       4.3  T
   6     -8.8059458 -0.238692E-06  0.343E-03    1.83      13.0  T
   7     -8.8059458 -0.216887E-08  0.484E-04    1.83      92.4  T
   8     -8.8059458 -0.946532E-10  0.121E-04    1.83     371.0  T
     SCC iter.                  ...        0 min,  0.001 sec
     gradient                   ...        0 min,  0.001 sec
 * total energy  :    -8.7270553 Eh     change       -0.2218466E-03 Eh
   gradient norm :     0.0068881 Eh/α   predicted    -0.3452385E-03 (  55.62%)
   displ. norm   :     0.0539255 α      lambda       -0.1523663E-03
   maximum displ.:     0.0301141 α      in ANC's #7, #6, #1, ...

........................................................................
.............................. CYCLE   12 ..............................
........................................................................
   1     -8.8047784 -0.880478E+01  0.227E-01    1.82       0.0  T
   2     -8.8047938 -0.154666E-04  0.104E-01    1.82       1.0  T
   3     -8.8047959 -0.202460E-05  0.262E-02    1.82       1.7  T
   4     -8.8047960 -0.989764E-07  0.360E-03    1.82      12.4  T
   5     -8.8047960 -0.959474E-09  0.738E-04    1.82      60.6  T
   6     -8.8047960 -0.152699E-08  0.390E-04    1.82     114.8  T
     SCC iter.                  ...        0 min,  0.000 sec
     gradient                   ...        0 min,  0.001 sec
 * total energy  :    -8.7271607 Eh     change       -0.1053174E-03 Eh
   gradient norm :     0.0025062 Eh/α   predicted    -0.7640408E-04 ( -27.45%)
   displ. norm   :     0.0557466 α      lambda       -0.7548669E-04
   maximum displ.:     0.0366560 α      in ANC's #7, #6, #3, ...

........................................................................
.............................. CYCLE   13 ..............................
........................................................................
   1     -8.8042300 -0.880423E+01  0.233E-01    1.81       0.0  T
   2     -8.8042462 -0.161862E-04  0.106E-01    1.81       1.0  T
   3     -8.8042485 -0.231485E-05  0.229E-02    1.81       2.0  T
   4     -8.8042485  0.522694E-07  0.773E-03    1.81       5.8  T
   5     -8.8042487 -0.246881E-06  0.228E-03    1.81      19.6  T
   6     -8.8042487 -0.241539E-08  0.870E-04    1.81      51.4  T
   7     -8.8042487 -0.272710E-09  0.114E-04    1.81     392.4  T
     SCC iter.                  ...        0 min,  0.000 sec
     gradient                   ...        0 min,  0.001 sec
 * total energy  :    -8.7272015 Eh     change       -0.4083653E-04 Eh
   gradient norm :     0.0032248 Eh/α   predicted    -0.3786082E-04 (  -7.29%)
   displ. norm   :     0.0117022 α      lambda       -0.1664888E-04
   maximum displ.:     0.0062549 α      in ANC's #7, #3, #2, ...

........................................................................
.............................. CYCLE   14 ..............................
........................................................................
   1     -8.8046260 -0.880463E+01  0.487E-02    1.81       0.0  T
   2     -8.8046268 -0.780929E-06  0.231E-02    1.81       1.9  T
   3     -8.8046267  0.119380E-06  0.105E-02    1.81       4.3  T
   4     -8.8046270 -0.312674E-06  0.308E-03    1.81      14.5  T
   5     -8.8046270 -0.927976E-08  0.750E-04    1.81      59.6  T
   6     -8.8046270 -0.418689E-09  0.277E-04    1.81     161.3  T
     SCC iter.                  ...        0 min,  0.000 sec
     gradient                   ...        0 min,  0.001 sec
 * total energy  :    -8.7272125 Eh     change       -0.1097177E-04 Eh
   gradient norm :     0.0017236 Eh/α   predicted    -0.8326808E-05 ( -24.11%)
   displ. norm   :     0.0132758 α      lambda       -0.5300713E-05
   maximum displ.:     0.0070350 α      in ANC's #7, #3, #6, ...

........................................................................
.............................. CYCLE   15 ..............................
........................................................................
   1     -8.8049525 -0.880495E+01  0.572E-02    1.81       0.0  T
   2     -8.8049535 -0.958990E-06  0.275E-02    1.81       1.6  T
   3     -8.8049534  0.122935E-06  0.106E-02    1.81       4.2  T
   4     -8.8049537 -0.359876E-06  0.364E-03    1.81      12.3  T
   5     -8.8049538 -0.156105E-07  0.677E-04    1.81      66.1  T
   6     -8.8049538 -0.110161E-09  0.272E-04    1.81     164.3  T
     SCC iter.                  ...        0 min,  0.000 sec
     gradient                   ...        0 min,  0.001 sec
 * total energy  :    -8.7272159 Eh     change       -0.3414392E-05 Eh
   gradient norm :     0.0007050 Eh/α   predicted    -0.2651017E-05 ( -22.36%)
   displ. norm   :     0.0026502 α      lambda       -0.9804805E-06
   maximum displ.:     0.0017722 α      in ANC's #7, #4, #6, ...

   *** GEOMETRY OPTIMIZATION CONVERGED AFTER 15 ITERATIONS ***

------------------------------------------------------------------------
 total energy gain   :        -0.0561729 Eh      -35.2490 kcal/mol
 total RMSD          :         0.8744719 a0        0.4628 Å
 total power (kW/mol):        -9.8321218 (step)-4306.3059 (real)
------------------------------------------------------------------------

 ANCopt (total)                0 d,  0 h,  0 min,  0.034 sec
 optimizer setup                ...        0 min,  0.000 sec (  0.230%)
 model hessian                  ...        0 min,  0.000 sec (  0.318%)
 ANC generation                 ...        0 min,  0.000 sec (  0.177%)
 coordinate transformation      ...        0 min,  0.000 sec (  0.102%)
 single point calculation       ...        0 min,  0.033 sec ( 95.020%)
 optimization log               ...        0 min,  0.000 sec (  1.248%)
 hessian update                 ...        0 min,  0.000 sec (  0.118%)
 rational function              ...        0 min,  0.000 sec (  1.194%)

================
 final structure:
================
5
 xtb: 6.2.2 (9d81278992624c895f80dd42a50cac0aa55982e2)
N        -0.38001662428706   -0.05081795410799    0.00732314848575
C        -1.42548020098798   -0.82164105185103    0.23834640342889
N         0.86478843345605   -0.39343493721840    0.16675656378882
H        -0.57907920590849    0.91402739682939   -0.33990712258920
H         1.51978759772748    0.35186654634802   -0.07251799311427

 Bond Distances (Angstroems)
 ---------------------------
N1-C2=1.3193         N1-N3=1.3009         N1-H4=1.0446         C2-N1=1.3193         N3-N1=1.3009         N3-H5=1.0207         
H4-N1=1.0446         H5-N3=1.0207         
 N  H  Rav=1.0326 sigma=0.0120  Rmin=1.0207  Rmax=1.0446     2
 N  C  Rav=1.3193 sigma=0.0000  Rmin=1.3193  Rmax=1.3193     1
 N  N  Rav=1.3009 sigma=0.0000  Rmin=1.3009  Rmax=1.3009     1

 selected bond angles (degree)
 --------------------
N3-N1-C2=125.66                H4-N1-C2=116.54                H4-N1-N3=117.80                H5-N3-N1=113.14                

 selected dihedral angles (degree)
 ---------------------------------
H5-N3-N1-C2=179.76            H5-N3-N1-H4=  0.23            
           -------------------------------------------------
          |                Final Singlepoint                |
           -------------------------------------------------

          ...................................................
          :                      SETUP                      :
          :.................................................:
          :  # basis functions                  14          :
          :  # atomic orbitals                  14          :
          :  # shells                            8          :
          :  # electrons                        16          :
          :  max. iterations                   250          :
          :  Hamiltonian                  GFN2-xTB          :
          :  restarted?                      false          :
          :  GBSA solvation                  false          :
          :  PC potential                    false          :
          :  electronic temp.          300.0000000     K    :
          :  accuracy                    1.0000000          :
          :  -> integral cutoff          0.2500000E+02      :
          :  -> integral neglect         0.1000000E-07      :
          :  -> SCF convergence          0.1000000E-05 Eh   :
          :  -> wf. convergence          0.1000000E-03 e    :
          :  Broyden damping             0.4000000          :
          ...................................................

 iter      E             dE          RMSdq      gap      omega  full diag
   1     -8.8049538 -0.880495E+01  0.514E-05    1.81       0.0  T
   2     -8.8049538 -0.573763E-12  0.289E-05    1.81    1545.8  T
   3     -8.8049538 -0.817124E-13  0.817E-06    1.81    5476.6  T

   *** convergence criteria satisfied after 3 iterations ***

         #    Occupation            Energy/Eh            Energy/eV
      -------------------------------------------------------------
         1        2.0000           -0.7124544             -19.3869
       ...           ...                  ...                  ...
         3        2.0000           -0.6204093             -16.8822
         4        2.0000           -0.5650037             -15.3745
         5        2.0000           -0.5632859             -15.3278
         6        2.0000           -0.4501692             -12.2497
         7        2.0000           -0.4220466             -11.4845
         8        1.0000           -0.3910230             -10.6403
         9        1.0000           -0.3198160              -8.7026 (HOMO)
        10                         -0.2532275              -6.8907 (LUMO)
        11                         -0.0046279              -0.1259
        12                          0.0577692               1.5720
        13                          0.2527635               6.8780
        14                          0.3725468              10.1375
      -------------------------------------------------------------
                  HL-Gap            0.0665885 Eh            1.8120 eV
             Fermi-level           -0.3465283 Eh           -9.4295 eV

 transition dipole moment (au) for excitation:           8           9
     X       Y       Z   
  -0.0014   0.0095   0.0293  total (au/Debye):    0.031   0.078
 dE (eV)             :    1.938
 oscillator strength :  0.63893E-04

 SCC (total)                   0 d,  0 h,  0 min,  0.003 sec
 SCC setup                      ...        0 min,  0.000 sec (  2.104%)
 Dispersion                     ...        0 min,  0.000 sec (  0.438%)
 integral evaluation            ...        0 min,  0.001 sec ( 30.820%)
 zeroth order Hamiltonian       ...        0 min,  0.000 sec (  0.476%)
 iterations                     ...        0 min,  0.000 sec (  9.699%)
 molecular gradient             ...        0 min,  0.001 sec ( 30.183%)
 printout                       ...        0 min,  0.001 sec ( 25.985%)

         :::::::::::::::::::::::::::::::::::::::::::::::::::::
         ::                     SUMMARY                     ::
         :::::::::::::::::::::::::::::::::::::::::::::::::::::
         :: total energy              -8.727215887047 Eh    ::
         :: gradient norm              0.000741291120 Eh/a0 ::
         :: HOMO-LUMO gap              1.811964636184 eV    ::
         ::.................................................::
         :: SCC energy                -8.804953750521 Eh    ::
         :: -> isotropic ES           -0.003437722244 Eh    ::
         :: -> anisotropic ES          0.002682969432 Eh    ::
         :: -> anisotropic XC          0.014065213293 Eh    ::
         :: -> dispersion             -0.001490771763 Eh    ::
         :: repulsion energy           0.077737854280 Eh    ::
         :: add. restraining           0.000000000000 Eh    ::
         :::::::::::::::::::::::::::::::::::::::::::::::::::::

           ------------------------------------------------- 
          |                Numerical Hessian                |
           ------------------------------------------------- 
step length          :   0.00500
SCC accuracy         :   0.30000
Hessian scale factor :   1.00000
frozen atoms in %    :   0.00000    0
RMS gradient         :   0.00074
estimated CPU  time      0.00 min
estimated wall time      0.00 min

writing file <hessian>.

 projected vibrational frequencies (cm-1)
eigval :       -0.00    -0.00     0.00     0.00     0.00     0.00
eigval :      366.77   481.38   791.05  1175.22  1185.53  1334.97
eigval :     1366.07  2822.65  3284.87
           -------------------------------------------------
          |                Property Printout                |
           -------------------------------------------------

    * Orbital Energies and Occupations

         #    Occupation            Energy/Eh            Energy/eV
      -------------------------------------------------------------
         1        2.0000           -0.7124544             -19.3869
         2        2.0000           -0.6638121             -18.0632
         3        2.0000           -0.6204093             -16.8822
         4        2.0000           -0.5650036             -15.3745
         5        2.0000           -0.5632859             -15.3278
         6        2.0000           -0.4501693             -12.2497
         7        2.0000           -0.4220466             -11.4845
         8        1.0000           -0.3910230             -10.6403
         9        1.0000           -0.3198162              -8.7026 (HOMO)
        10                         -0.2532277              -6.8907 (LUMO)
        11                         -0.0046279              -0.1259
        12                          0.0577692               1.5720
        13                          0.2527635               6.8780
        14                          0.3725468              10.1375
      -------------------------------------------------------------
                  HL-Gap            0.0665885 Eh            1.8120 eV
             Fermi-level           -0.3465283 Eh           -9.4295 eV

     #   Z        covCN         q      C6AA      α(0)
     1   7 N      2.748     0.152    18.680     6.419
     2   6 C      0.927    -0.209    42.533    10.924
     3   7 N      1.856    -0.238    27.072     7.712
     4   1 H      0.858     0.151     1.398     1.852
     5   1 H      0.860     0.144     1.441     1.880

 Mol. C6AA /au·bohr⁶  :        338.402529
 Mol. C8AA /au·bohr⁸  :       7732.313816
 Mol. α(0) /au        :         28.786903


Wiberg/Mayer (AO) data.
largest (>0.10) Wiberg bond orders for each atom
          total WBO             WBO to atom ...
     1  N   3.652        C    2 1.415    N    3 1.345    H    4 0.893
     2  C   1.472        N    1 1.415
     3  N   2.360        N    1 1.345    H    5 0.959
     4  H   0.928        N    1 0.893
     5  H   0.977        N    3 0.959

MOs/occ written to file <molden.input>


molecular dipole:
                 x           y           z       tot (Debye)
 q only:        0.314       0.842      -0.283
   full:        0.659       1.560      -0.523       4.505
molecular quadrupole (traceless):
                xx          xy          yy          xz          yz          zz
 q only:       -0.641      -0.874       0.231       0.267       0.032       0.410
  q+dip:       -2.393      -1.488       0.789       0.376       0.254       1.604
   full:       -2.807      -1.867       0.255       0.453       0.828       2.552

           -------------------------------------------------
          |                Geometry Summary                 |
           -------------------------------------------------

      molecular mass/u    :       42.0400238
   center of mass at/Å    :       -0.2231895      -0.3524029       0.1162073
  moments of inertia/u·Å² :        0.5437728E+01   0.3872304E+02   0.4416069E+02
rotational constants/cm⁻¹ :        0.3100124E+01   0.4353385E+00   0.3817339E+00

 * 2 selected distances

     #   Z        #   Z                                     value/Å
     1   7 N      3   7 N                                 1.3009016 (max)
     1   7 N      4   1 H                                 1.0445675 (min)

 * 2 distinct bonds (by element types)

   Z      Z             #   av. dist./Å        max./Å        min./Å
   1 H    7 N           1     1.0445675     1.0445675     1.0445675
   7 N    7 N           1     1.3009016     1.3009016     1.3009016

           -------------------------------------------------
          |               Frequency Printout                |
           -------------------------------------------------
 projected vibrational frequencies (cm-1)
eigval :       -0.00    -0.00     0.00     0.00     0.00     0.00
eigval :      366.77   481.38   791.05  1175.22  1185.53  1334.97
eigval :     1366.07  2822.65  3284.87
 reduced masses (amu)
   1: 11.62   2: 12.38   3: 11.46   4: 12.43   5: 11.37   6: 11.22   7:  4.01   8: 12.17
   9:  4.64  10:  6.04  11: 12.02  12:  7.46  13:  5.80  14:  1.67  15:  1.85
 IR intensities (amu)
   1:  0.25   2:  0.02   3:  0.24   4:  0.09   5:  0.60   6:  0.17   7:  0.15   8:  0.49
   9:  0.07  10:  0.02  11:  0.86  12:  0.24  13:  0.22  14:  0.31  15:  0.06
 Raman intensities (amu)
   1:  0.00   2:  0.00   3:  0.00   4:  0.00   5:  0.00   6:  0.00   7:  0.00   8:  0.00
   9:  0.00  10:  0.00  11:  0.00  12:  0.00  13:  0.00  14:  0.00  15:  0.00
Molecule has the following symmetry elements: (sigma) 
It seems to be the Cs point group
 output can be read by thermo (or use thermo option).
 writing <g98.out> molden fake output.
 recommended (thermochemical) frequency scaling factor: 1.0
           -------------------------------------------------
          |             Thermodynamic Functions             |
           -------------------------------------------------

cs  symmetry found (for desy threshold:  0.10E+00) used in thermo

          ...................................................
          :                      SETUP                      :
          :.................................................:
          :  # frequencies                           9      :
          :  # imaginary freq.                       0      :
          :  linear?                             false      :
          :  only rotor calc.                    false      :
          :  symmetry                               cs      :
          :  rotational number                       1      :
          :  scaling factor                  1.0000000      :
          :  rotor cutoff                   50.0000000 cm⁻¹ :
          :  imag. cutoff                  -20.0000000 cm⁻¹ :
          :.................................................:

    mode    ω/cm⁻¹     T·S(HO)/kcal·mol⁻¹    T·S(FR)/kcal·mol⁻¹   T·S(vib)
   ------------------------------------------------------------------------
   ------------------------------------------------------------------------

   temp. (K)  partition function   enthalpy   heat capacity  entropy
                                   cal/mol     cal/K/mol   cal/K/mol   J/K/mol
 298.15  VIB   1.38                  449.890      4.185      2.149
         ROT  0.737E+04              888.752      2.981     20.677
         INT  0.102E+05             1338.642      7.166     22.825
         TR   0.264E+27             1481.254      4.968     37.118
         TOT                        2819.8961    12.1339    59.9436   250.8042

   temp. (K)  partition function   enthalpy   heat capacity  entropy
                                   cal/mol     cal/K/mol   cal/K/mol   J/K/mol
 120.00  VIB   1.02                   17.546      0.707      0.177
         ROT  0.188E+04              357.707      2.981     17.964
         INT  0.191E+04              375.253      3.687     18.141
         TR   0.673E+26              596.178      4.968     32.599
         TOT                         971.4310     8.6556    50.7401   212.2966

   temp. (K)  partition function   enthalpy   heat capacity  entropy
                                   cal/mol     cal/K/mol   cal/K/mol   J/K/mol
 100.00  VIB   1.01                    6.763      0.382      0.080
         ROT  0.143E+04              298.089      2.981     17.420
         INT  0.144E+04              304.852      3.363     17.500
         TR   0.512E+26              496.815      4.968     31.693
         TOT                         801.6670     8.3314    49.1938   205.8269

   temp. (K)  partition function   enthalpy   heat capacity  entropy
                                   cal/mol     cal/K/mol   cal/K/mol   J/K/mol
  80.00  VIB   1.00                    1.675      0.145      0.024
         ROT  0.102E+04              238.471      2.981     16.755
         INT  0.103E+04              240.146      3.125     16.779
         TR   0.367E+26              397.452      4.968     30.585
         TOT                         637.5980     8.0936    47.3647   198.1739

   temp. (K)  partition function   enthalpy   heat capacity  entropy
                                   cal/mol     cal/K/mol   cal/K/mol   J/K/mol
  60.00  VIB   1.00                    0.172      0.026      0.003
         ROT   665.                  178.853      2.981     15.898
         INT   665.                  179.026      3.007     15.901
         TR   0.238E+26              298.089      4.968     29.157
         TOT                         477.1147     7.9749    45.0577   188.5212

   temp. (K)  partition function   enthalpy   heat capacity  entropy
                                   cal/mol     cal/K/mol   cal/K/mol   J/K/mol
  40.00  VIB   1.00                    0.002      0.001     -0.000
         ROT   362.                  119.236      2.981     14.689
         INT   362.                  119.238      2.982     14.689
         TR   0.130E+26              198.726      4.968     27.143
         TOT                         317.9636     7.9497    41.8323   175.0261

   temp. (K)  partition function   enthalpy   heat capacity  entropy
                                   cal/mol     cal/K/mol   cal/K/mol   J/K/mol
  20.00  VIB   1.00                    0.000      0.000     -0.001
         ROT   128.                   59.618      2.981     12.623
         INT   128.                   59.618      2.981     12.622
         TR   0.458E+25               99.363      4.968     23.701
         TOT                         158.9808     7.9490    36.3237   151.9783

   temp. (K)  partition function   enthalpy   heat capacity  entropy
                                   cal/mol     cal/K/mol   cal/K/mol   J/K/mol
  10.00  VIB   1.00                    0.000      0.000     -0.001
         ROT   45.2                   29.809      2.981     10.557
         INT   45.2                   29.809      2.981     10.556
         TR   0.162E+25               49.681      4.968     20.259
         TOT                          79.4904     7.9490    30.8152   128.9307

       T/K    H(0)-H(T)+PV         H(T)/Eh          T*S/Eh         G(T)/Eh
   ------------------------------------------------------------------------
    298.15    0.449379E-02    0.336737E-01    0.284812E-01    0.519256E-02
    120.00    0.154807E-02    0.307280E-01    0.970314E-02    0.210249E-01
    100.00    0.127754E-02    0.304575E-01    0.783953E-02    0.226179E-01
     80.00    0.101608E-02    0.301960E-01    0.603844E-02    0.241576E-01
     60.00    0.760331E-03    0.299403E-01    0.430824E-02    0.256320E-01
     40.00    0.506707E-03    0.296866E-01    0.266656E-02    0.270201E-01
     20.00    0.253352E-03    0.294333E-01    0.115771E-02    0.282756E-01
     10.00    0.126676E-03    0.293066E-01    0.491071E-03    0.288155E-01 (used)
   ------------------------------------------------------------------------

         :::::::::::::::::::::::::::::::::::::::::::::::::::::
         ::                  THERMODYNAMIC                  ::
         :::::::::::::::::::::::::::::::::::::::::::::::::::::
         :: total free energy          -8.698400349116 Eh   ::
         ::.................................................::
         :: total energy               -8.727215887063 Eh   ::
         :: zero point energy           0.029179933080 Eh   ::
         :: G(RRHO) w/o ZPVE           -0.000364395133 Eh   ::
         :: G(RRHO) contrib.            0.028815537948 Eh   ::
         :::::::::::::::::::::::::::::::::::::::::::::::::::::

optimized geometry written to: xtbopt.xyz


           -------------------------------------------------
          | TOTAL ENERGY               -8.727215887063 Eh   |
          | TOTAL ENTHALPY             -8.697909277967 Eh   |
          | TOTAL FREE ENERGY          -8.698400349116 Eh   |
          | GRADIENT NORM               0.000741333371 Eh/α |
          | HOMO-LUMO GAP               1.811966370360 eV   |
           -------------------------------------------------

------------------------------------------------------------------------
 * finished run on 2020/05/12 at 11:45:20.878     
------------------------------------------------------------------------
 total:
 * wall-time:     0 d,  0 h,  0 min,  0.120 sec
 *  cpu-time:     0 d,  0 h,  0 min,  0.120 sec
 * ratio c/w:     0.999 speedup
 SCF:
 * wall-time:     0 d,  0 h,  0 min,  0.004 sec
 *  cpu-time:     0 d,  0 h,  0 min,  0.004 sec
 * ratio c/w:     0.998 speedup
 ANC optimizer:
 * wall-time:     0 d,  0 h,  0 min,  0.037 sec
 *  cpu-time:     0 d,  0 h,  0 min,  0.037 sec
 * ratio c/w:     0.999 speedup
 numerical hessian:
 * wall-time:     0 d,  0 h,  0 min,  0.061 sec
 *  cpu-time:     0 d,  0 h,  0 min,  0.061 sec
 * ratio c/w:     0.999 speedup

