3
 energy: -6.013162287223 gnorm: 0.000457611250 xtb: 6.2.2 (9d81278992624c895f80dd42a50cac0aa55982e2)
C         0.79340328163715   -0.13833517595092    0.03266595236486
C        -0.27713440022853    0.75668177212996   -0.01167872387602
C        -0.51626888141211   -0.61834659618078   -0.02098822848884
