5
 energy: -11.056860057204 gnorm: 0.000276618439 xtb: 6.2.2 (9d81278992624c895f80dd42a50cac0aa55982e2)
C         0.05934153705890   -0.89727065154283    0.03744535116498
N        -0.77727042680254    0.01393114258901    0.71769448751536
C         0.16784921283112    0.87596252489625    0.12054429364117
C        -0.66051758706145    0.07941768532000   -0.83221537800615
C         1.21059726397397   -0.07204070126243   -0.04346875431536
