[Molden Format]
[Title]
[Atoms] AU
C      1     6  0.11213924245138E+00 -0.16955956337633E+01  0.70761451777012E-01
N      2     7 -0.14688280951501E+01  0.26326041653805E-01  0.13562458967253E+01
C      3     6  0.31718901305608E+00  0.16553291139084E+01  0.22779567973341E+00
C      4     6 -0.12481972242372E+01  0.15007766078232E+00 -0.15726589952224E+01
C      5     6  0.22876970638798E+01 -0.13613718258118E+00 -0.82144033013355E-01
[GTO]
           1 0
 s           4   1.0000000000000000     
   51.049363095579913      -0.16312063210127389     
   8.7911227406887544      -0.19911024581000730     
  0.70640422258929825       0.31882047753655751     
  0.26922813413411617       0.12706504184240380     
 p           4   1.0000000000000000     
   5.8263656140800002       0.73716451545209605     
   1.5106896018720002       0.68216371614850257     
  0.53256483288000001       0.35783053929253711     
  0.21202323690600003        5.3983030275847881E-002

           2 0
 s           4   1.0000000000000000     
   63.594024466941008      -0.19234388414721629     
   10.951417231523665      -0.23478107924953728     
  0.87999310257376984       0.37593753901700888     
  0.33538715296521110       0.14982889271862770     
 p           4   1.0000000000000000     
   7.2965040481495080       0.97658666315667420     
   1.8918745450712575       0.90372226730345739     
  0.66694432110824120       0.47404958461536373     
  0.26552202674130870        7.1516067715011844E-002

           3 0
 s           4   1.0000000000000000     
   51.049363095579913      -0.16312063210127389     
   8.7911227406887544      -0.19911024581000730     
  0.70640422258929825       0.31882047753655751     
  0.26922813413411617       0.12706504184240380     
 p           4   1.0000000000000000     
   5.8263656140800002       0.73716451545209605     
   1.5106896018720002       0.68216371614850257     
  0.53256483288000001       0.35783053929253711     
  0.21202323690600003        5.3983030275847881E-002

           4 0
 s           4   1.0000000000000000     
   51.049363095579913      -0.16312063210127389     
   8.7911227406887544      -0.19911024581000730     
  0.70640422258929825       0.31882047753655751     
  0.26922813413411617       0.12706504184240380     
 p           4   1.0000000000000000     
   5.8263656140800002       0.73716451545209605     
   1.5106896018720002       0.68216371614850257     
  0.53256483288000001       0.35783053929253711     
  0.21202323690600003        5.3983030275847881E-002

           5 0
 s           4   1.0000000000000000     
   51.049363095579913      -0.16312063210127389     
   8.7911227406887544      -0.19911024581000730     
  0.70640422258929825       0.31882047753655751     
  0.26922813413411617       0.12706504184240380     
 p           4   1.0000000000000000     
   5.8263656140800002       0.73716451545209605     
   1.5106896018720002       0.68216371614850257     
  0.53256483288000001       0.35783053929253711     
  0.21202323690600003        5.3983030275847881E-002

[MO]
Sym=     1a
Ene=  -0.78977018209627636     
Spin= Alpha
Occup=     2.00000000
           1  0.26623930637269833     
           2  -2.0723133219859982E-002
           3  0.14928776756745463     
           4   6.1551146482295921E-004
           5  0.26029700074227552     
           6  0.15043364738475626     
           7  -1.4075872596850012E-003
           8 -0.16639347770090818     
           9  0.26624055469191976     
          10  -3.8735194602675910E-002
          11 -0.14506103565805542     
          12  -1.3178435897141294E-002
          13  0.23287720443044505     
          14   6.0365303791286053E-002
          15  -8.5100679474213424E-003
          16  0.10277683689531419     
          17  0.19932589823615279     
          18 -0.11716486411772886     
          19   6.7693496859273913E-003
          20   8.5405992873968262E-003
Sym=     2a
Ene=  -0.68827450569031812     
Spin= Alpha
Occup=     2.00000000
           1   8.6405470764106776E-002
           2  0.28485109319578122     
           3   1.8152258108090014E-002
           4  -2.4445165604741123E-003
           5 -0.31472221670750211     
           6   9.7497589477931371E-002
           7  -1.3922406600738879E-002
           8  0.16975799390602747     
           9   8.6404912044585155E-002
          10  0.28053846154269202     
          11  -5.2365685311659138E-002
          12  -5.7495144491715106E-003
          13 -0.21163476043918497     
          14  0.11085996879229251     
          15  -1.8673102070662210E-003
          16 -0.10492278079880057     
          17  0.48037195611185052     
          18  -8.0609883078514091E-002
          19   3.8955602814304451E-003
          20   2.2139316746025657E-002
Sym=     3a
Ene=  -0.65678679808600626     
Spin= Alpha
Occup=     2.00000000
           1  0.44846679515531490     
           2  -7.7673586089057015E-002
           3  -6.3774343565111857E-002
           4   1.7017517852407238E-002
           5  -5.2665813837584329E-006
           6  -2.4713512802571100E-002
           7 -0.40381487481245787     
           8  -1.8926636184167834E-002
           9 -0.44846729791984263     
          10   6.9432707058746157E-002
          11  -7.0886363430090416E-002
          12  -2.3337132440196560E-002
          13   6.8358324330216003E-006
          14  -1.4654860837371294E-002
          15 -0.23950562140482715     
          16  -1.1224081316492440E-002
          17  -3.2565788325804945E-007
          18  -1.3017582435710303E-002
          19 -0.21273341187124245     
          20  -9.9719521189056831E-003
Sym=     4a
Ene=  -0.64753636589414443     
Spin= Alpha
Occup=     2.00000000
           1  -1.8002813521917956E-002
           2   2.2982076222020122E-003
           3  -9.6373455459559283E-003
           4 -0.32693921365968581     
           5 -0.39352238510812387     
           6 -0.20380996238815655     
           7   2.1834196455466311E-002
           8 -0.19967720872998551     
           9  -1.7989695347874451E-002
          10   5.3164334162903492E-003
          11   3.9708105660405363E-002
          12 -0.32462852527325903     
          13  0.42552455307247483     
          14   7.5750934702106962E-002
          15  -2.0884995818507635E-003
          16  -5.4260520304301958E-002
          17   3.6137314162176616E-002
          18  -1.2047113943131143E-002
          19   1.0043134889273355E-002
          20 -0.19850098695053905     
Sym=     5a
Ene=  -0.57629369654755580     
Spin= Alpha
Occup=     2.00000000
           1  0.14440766452260256     
           2  0.36357035221840522     
           3  -7.2141437408022938E-002
           4 -0.11171146193166744     
           5  -1.6843702512729664E-006
           6   2.2636524836499028E-002
           7  0.36991343789432701     
           8   1.7335307254684729E-002
           9 -0.14440653461834413     
          10 -0.37027609304678982     
          11  -3.7465436417058809E-002
          12  0.10657366630225228     
          13  -1.5429168920651703E-007
          14   4.0247081943979232E-003
          15   6.5750306050986071E-002
          16   3.0802650191048917E-003
          17   5.0557354626647809E-007
          18  -2.9025707168122514E-002
          19 -0.47433812973750328     
          20  -2.2229459749595077E-002
Sym=     6a
Ene=  -0.53539336073997934     
Spin= Alpha
Occup=     2.00000000
           1  0.13430458152425059     
           2  -7.4611764832844707E-002
           3  -8.4755552500346033E-003
           4   2.7299015621760184E-002
           5 -0.43837454726659120     
           6  0.51753912589363882     
           7  -3.2419400608217117E-002
           8   1.6013465016213830E-002
           9  0.13430494287902289     
          10  -7.3179127188856385E-002
          11   1.4908926399469646E-002
          12   2.8396883612539208E-002
          13  -3.0285312786202296E-002
          14  0.21749784489310042     
          15  -8.4369319674139180E-003
          16 -0.10399829441567805     
          17 -0.54908078284555040     
          18 -0.31419791616695886     
          19   1.7156550096446919E-002
          20   4.4192101745347566E-002
Sym=     7a
Ene=  -0.50377037098817079     
Spin= Alpha
Occup=     2.00000000
           1   4.9353262438800770E-003
           2  0.13000157640485352     
           3  -1.0785175187675758E-002
           4  0.45759304046014521     
           5  -5.2701580790924003E-006
           6  -1.8863484093208364E-002
           7 -0.30831473558567535     
           8  -1.4455274395896169E-002
           9  -4.9430981271961676E-003
          10 -0.12773714008069478     
          11   4.7783703678146439E-002
          12 -0.45585600372600693     
          13  -4.5913181784560875E-006
          14   3.0947778637975081E-002
          15  0.50576289230789384     
          16   2.3705513792348521E-002
          17  -9.6018857594397258E-007
          18  -8.3342969387342290E-003
          19 -0.13619064292514965     
          20  -6.3803836004996768E-003
Sym=     8a
Ene=  -0.49624627061358878     
Spin= Alpha
Occup=     2.00000000
           1   5.9263222845478004E-002
           2  -5.7007958837425729E-003
           3  -3.9644149946975703E-002
           4 -0.13993286187718232     
           5  0.47160717122518420     
           6 -0.13023806422552933     
           7  -1.9172307038296435E-002
           8  0.57910665241961556     
           9   5.9262925770886356E-002
          10  -3.9474298463227001E-005
          11   5.2908574104234274E-002
          12 -0.13560525453254196     
          13  -1.2881204727283381E-002
          14  0.31732401580276282     
          15  -1.0053164032893025E-002
          16 -0.19972154225802416     
          17 -0.14419506667878385     
          18 -0.17684420638106246     
          19   2.8027307789453663E-002
          20 -0.36717384250876256     
Sym=     9a
Ene=  -0.48841853994550538     
Spin= Alpha
Occup=     2.00000000
           1  0.46558378153487606     
           2  -2.4876134860491929E-002
           3 -0.48044449492208441     
           4  -2.8524499288458075E-002
           5  -3.1039569136627584E-002
           6 -0.18475156638928775     
           7   1.5679674259966712E-002
           8  -9.3373914133516103E-002
           9  0.46558025408375370     
          10   3.3921736222087100E-002
          11  0.48045414314954837     
          12   1.6498683955007136E-002
          13 -0.18042260856004552     
          14  -2.6065457900991712E-002
          15  -6.8245905269661315E-003
          16  0.17973002084579279     
          17  -1.2106636148254394E-002
          18  -1.2300275042734295E-003
          19  -6.2847957122061577E-004
          20   1.5013935090685732E-002
Sym=    10a
Ene=  -0.47347008704201915     
Spin= Alpha
Occup=     2.00000000
           1  0.10256279997659197     
           2   1.2344248504023766E-002
           3 -0.14210745041312950     
           4  0.11186115502975710     
           5   2.4074881452916960E-002
           6   8.5858265720896734E-002
           7  -1.7272628256863976E-002
           8  0.25642025993024659     
           9  0.10256186225782339     
          10   2.8901739167565464E-002
          11  0.12850559578874787     
          12  0.12453576805641575     
          13  0.65601675186282382     
          14 -0.26382020249008231     
          15   3.9363671337112438E-002
          16 -0.49539987187615481     
          17   6.2912191216354149E-002
          18   7.6975264575638164E-002
          19  -1.8784147925083559E-002
          20  0.30029774715226437     
Sym=    11a
Ene=  -0.42976992580513873     
Spin= Alpha
Occup=     1.00000000
           1  -2.8274977449389498E-002
           2  0.23999501265933063     
           3   7.1724035827020943E-002
           4  -7.0433381559230233E-003
           5   6.3022826480253952E-002
           6 -0.49654258947361274     
           7   3.2724085398568262E-002
           8  -4.9903588185849945E-002
           9  -2.8274490769287685E-002
          10  0.22952235828172490     
          11  -9.9418737752965669E-002
          12  -1.5061777365826326E-002
          13   1.4398275464456841E-002
          14 -0.19526641619807650     
          15   9.9564230212448365E-003
          16   4.2500991247915579E-002
          17 -0.32094832212990337     
          18 -0.63662169840254212     
          19   2.3662754753399663E-002
          20  0.32633406986864782     
Sym=    12a
Ene=  -0.36546454915301352     
Spin= Alpha
Occup=     0.00000000
           1  0.24601066660498827     
           2  -8.4895820736520702E-002
           3 -0.61281845239173005     
           4   4.0266524084856439E-002
           5   4.0569001464426250E-007
           6   1.9309142512454521E-002
           7  0.31554641653143178     
           8   1.4786728192901211E-002
           9 -0.24601256418020495     
          10   9.9373959782880477E-003
          11 -0.61215943734078482     
          12  -9.7671414491950839E-002
          13   4.6491835066387902E-008
          14   1.2525766896641829E-002
          15  0.20471043615481618     
          16   9.5925802826639511E-003
          17   1.4008805354235981E-007
          18   2.3346124555778336E-002
          19  0.38153486443066092     
          20   1.7878178595843300E-002
Sym=    13a
Ene=  -0.34084606781098364     
Spin= Alpha
Occup=     0.00000000
           1  -1.5092568133633931E-002
           2 -0.11603489626754290     
           3   3.3047492908451270E-002
           4 -0.18179495969516055     
           5   1.7607643597164047E-002
           6 -0.17691226012523065     
           7   5.2245952202525101E-003
           8  0.11953248569929335     
           9  -1.5093592449642371E-002
          10 -0.11815485405801081     
          11  -1.6039752224015493E-003
          12 -0.18341942171924244     
          13  -2.7074285715829826E-002
          14  0.59906593607320369     
          15  -3.9252584754491969E-002
          16   5.5395032471282968E-002
          17   4.1005953573717644E-003
          18  0.25405866130115268     
          19  -5.1986155419343191E-002
          20  0.77760632895516790     
Sym=    14a
Ene=  -0.18833574631646799     
Spin= Alpha
Occup=     0.00000000
           1  -9.5334456075348657E-004
           2  -1.6475348257612290E-002
           3   3.1418594322632769E-002
           4 -0.38644589857934086     
           5 -0.10760511681300881     
           6  0.34152520483616405     
           7  -5.0311187236738775E-002
           8  0.62760450169454496     
           9  -9.5272665135722422E-004
          10  -1.7972163527494568E-002
          11   6.9606401383413095E-003
          12 -0.38758884841077507     
          13   4.1730656268809507E-002
          14 -0.53933575357299790     
          15   5.4207647730595649E-003
          16  0.58864270307267352     
          17   1.4034437433274590E-002
          18  -5.9250596960994774E-003
          19  -8.5262835689729182E-003
          20  0.18966487733299470     
Sym=    15a
Ene=  -0.10751125957270673     
Spin= Alpha
Occup=     0.00000000
           1   3.2733385940072343E-002
           2   8.9700520322295918E-002
           3   7.5667976525524663E-002
           4  0.61871932112140871     
           5  -4.1024759823581937E-006
           6   3.2813078553566438E-002
           7  0.53625606768127165     
           8   2.5135717906662563E-002
           9  -3.2732536242422977E-002
          10  -7.6304354897713880E-002
          11  0.14333083494772775     
          12 -0.60845421280091794     
          13   1.1783180368316436E-006
          14  -4.6557510713660148E-002
          15 -0.76081839306768650     
          16  -3.5650546440955777E-002
          17   1.2551687448375947E-006
          18   6.7765880560944755E-003
          19  0.11075039949832850     
          20   5.1906626048425645E-003
Sym=    16a
Ene=    5.8346620938422265E-002
Spin= Alpha
Occup=     0.00000000
           1  -6.5497325692411013E-002
           2  0.23970176938935828     
           3 -0.10498357825080651     
           4 -0.51131864950725725     
           5  0.72317183552506770     
           6  0.49346272372659555     
           7  -5.5865896039114316E-003
           8 -0.52575952239739365     
           9  -6.5473279497433950E-002
          10  0.25353734627238905     
          11  0.12220470800428476     
          12 -0.50067372482000250     
          13 -0.41566691701955127     
          14 -0.20474324237159558     
          15   3.5107228720559672E-002
          16 -0.48236181445424187     
          17 -0.13300770462460448     
          18   6.2966959698704250E-002
          19  -1.2814696064822642E-002
          20  0.19174128937867646     
Sym=    17a
Ene=    9.2565536380710647E-002
Spin= Alpha
Occup=     0.00000000
           1  0.25491431988144719     
           2  0.70351557434916134     
           3  0.14995271467920271     
           4 -0.11843851087517517     
           5  -1.4049545817108960E-005
           6  -2.2191706541223641E-002
           7 -0.36253501511259373     
           8  -1.6972586644282021E-002
           9 -0.25491787555813944     
          10 -0.68065105980553753     
          11  0.22272962924704645     
          12  0.13595522082449715     
          13   4.5279894430809329E-005
          14  -6.8100098455218631E-003
          15 -0.11168631420362736     
          16  -5.1896636294093525E-003
          17  -2.7073898520076417E-005
          18   5.5498282563312816E-002
          19  0.90655552507681447     
          20   4.2471172868002761E-002
Sym=    18a
Ene=   0.10606462443281091     
Spin= Alpha
Occup=     0.00000000
           1  0.65862906196046678     
           2 -0.26366739504571923     
           3  0.56126629120819527     
           4  -4.0680361888418828E-003
           5   1.8572061129854743E-005
           6   3.5371118472012436E-002
           7  0.57784760355756548     
           8   2.7062971019349801E-002
           9 -0.65862404568992639     
          10  0.32994995211556677     
          11  0.52217887834334309     
          12   5.4798753319683764E-002
          13  -2.9785266032587077E-005
          14   3.2319080532359865E-002
          15  0.52843562870122252     
          16   2.4734080370732089E-002
          17   6.3416330104501113E-006
          18   1.3798923121649851E-002
          19  0.22560428255433715     
          20   1.0580820208212771E-002
Sym=    19a
Ene=   0.12557878410031914     
Spin= Alpha
Occup=     0.00000000
           1 -0.10852530321832810     
           2  0.67210585535076073     
           3 -0.14934833195614636     
           4  0.15001581791628016     
           5  0.22933789872116267     
           6  0.19542306869944587     
           7  -1.0045388172394112E-002
           8  -4.0043439602463086E-002
           9 -0.10852902309161029     
          10  0.68451067749778505     
          11   5.1838884509678676E-002
          12  0.15942899171223457     
          13  0.57975600820742546     
          14  0.32761710738465688     
          15  -4.4182176860399561E-002
          16  0.51539170955805902     
          17 -0.55127351658385293     
          18  0.44730837071793972     
          19  -2.2387690479974104E-002
          20 -0.10732072448600800     
Sym=    20a
Ene=   0.46136023713475094     
Spin= Alpha
Occup=     0.00000000
           1  0.67041083472022500     
           2  0.16660537282579482     
           3  0.56514135053282410     
           4  -6.6607371460705653E-002
           5 -0.27025795262387692     
           6 -0.36958473582957918     
           7   1.6401859276062056E-002
           8  0.13256438056837086     
           9  0.67042207722961900     
          10   9.6991967382776781E-002
          11 -0.57253757506581715     
          12 -0.11992192640519106     
          13 -0.36375581855769523     
          14 -0.31851504619203436     
          15   3.4066410395116230E-002
          16 -0.31105516576560099     
          17 -0.68691748997506097     
          18  0.75471619893277209     
          19  -4.2033680303766557E-002
          20  -8.8619184562794620E-002
