5
 energy: -9.426009540907 gnorm: 0.337640154561 xtb: 6.2.2 (9d81278992624c895f80dd42a50cac0aa55982e2)
N         1.38488700000000   -0.65840500000000   -0.38824100000000
C         0.67108100000000    0.17602000000000    0.56447500000000
C        -0.83271100000000   -0.00434600000000    0.40844400000000
C        -0.14633800000000    1.20966200000000   -0.18089200000000
H        -1.07691900000000   -0.72293100000000   -0.40378700000000
5
 energy: -9.537803877278 gnorm: 0.256334536782 xtb: 6.2.2 (9d81278992624c895f80dd42a50cac0aa55982e2)
N         1.42168791229444   -0.65044221254568   -0.29162969363774
C         0.70792251130010    0.13857511101768    0.41619131286021
C        -0.81463981576902    0.02549710935879    0.34177616246402
C        -0.18433480504776    1.22428679194548   -0.09482165116001
H        -1.13063580277775   -0.73791679977628   -0.37151713052648
5
 energy: -9.472540084580 gnorm: 1.202671780734 xtb: 6.2.2 (9d81278992624c895f80dd42a50cac0aa55982e2)
N         1.43769052960694   -0.55881977330135   -0.16357175695306
C         0.77220246523730    0.02021760698300    0.23272091907392
C        -0.80546420114217    0.12874825814343    0.22796012233530
C        -0.22459042442752    1.16381955095631    0.00642240475607
H        -1.17983836927455   -0.75396564278139   -0.30353268921223
5
 energy: -9.608856364914 gnorm: 0.135054261061 xtb: 6.2.2 (9d81278992624c895f80dd42a50cac0aa55982e2)
N         1.57509788720559   -0.64270383244754   -0.20618784243676
C         0.71159336792522    0.06054524667909    0.23278357795971
C        -0.83473175249274    0.12132239285695    0.23085377470963
C        -0.23766194077454    1.21316035607837    0.02884002881173
H        -1.21429756186352   -0.75232416316687   -0.28629053904430
5
 energy: -9.622936089882 gnorm: 0.114498313362 xtb: 6.2.2 (9d81278992624c895f80dd42a50cac0aa55982e2)
N         1.67680331151797   -0.61831944340404   -0.15662452517680
C         0.73171364839408    0.03692126338765    0.15574402279846
C        -0.84172292037265    0.11788136191355    0.15026188877091
C        -0.20995664722536    1.27255820891064    0.08675094420090
H        -1.35683739231404   -0.80904139080781   -0.23613333059348
5
 energy: -9.629836424724 gnorm: 0.117610756744 xtb: 6.2.2 (9d81278992624c895f80dd42a50cac0aa55982e2)
N         1.75801025586062   -0.60753122043909   -0.09932374093599
C         0.76266362389329    0.03385580183562    0.09278622532064
C        -0.81854424742892    0.08896466584523    0.12937849994406
C        -0.25038144273340    1.22683972107303    0.10301259837579
H        -1.45174818959159   -0.74212896831479   -0.22585458270448
5
 energy: -9.636886865173 gnorm: 0.062020651741 xtb: 6.2.2 (9d81278992624c895f80dd42a50cac0aa55982e2)
N         1.70684441357047   -0.59029185263493   -0.07921773995453
C         0.77570304184219    0.06212768087194    0.08093497697760
C        -0.79790583392905    0.04517212705795    0.07237231813883
C        -0.23467353879594    1.19722701125428    0.12153306580321
H        -1.44996808268767   -0.71423496654924   -0.19562362096511
5
 energy: -9.640691398165 gnorm: 0.031476012423 xtb: 6.2.2 (9d81278992624c895f80dd42a50cac0aa55982e2)
N         1.77732102435161   -0.51464055522988   -0.07008957798621
C         0.76426010928025    0.02433435429104    0.06349297886583
C        -0.81175324818690    0.06201404330034    0.01215079286333
C        -0.17990443600104    1.16054859738505    0.13625479309145
H        -1.54992344944393   -0.73225643974655   -0.14180998683440
5
 energy: -9.641637549823 gnorm: 0.025306199185 xtb: 6.2.2 (9d81278992624c895f80dd42a50cac0aa55982e2)
N         1.79297636305371   -0.52237872009209   -0.05812750871813
C         0.76251881085957    0.01668529409261    0.02954116640951
C        -0.82745554750052    0.06619103990178    0.00122262283364
C        -0.19052124324512    1.15952105893497    0.15345398166637
H        -1.53751838316764   -0.72001867283727   -0.12609126219139
5
 energy: -9.641959614637 gnorm: 0.007284508088 xtb: 6.2.2 (9d81278992624c895f80dd42a50cac0aa55982e2)
N         1.78645435939282   -0.52442041821078   -0.05118773153872
C         0.77233915182915    0.02879567133977    0.02569536444509
C        -0.82193701603667    0.05626927448032   -0.00352546009603
C        -0.19387088282250    1.15111718028247    0.15768851139111
H        -1.54298561236280   -0.71176170789179   -0.12867168420144
5
 energy: -9.642073505704 gnorm: 0.006367416474 xtb: 6.2.2 (9d81278992624c895f80dd42a50cac0aa55982e2)
N         1.79550101242122   -0.51588582306179   -0.04544854168739
C         0.77796953891328    0.03105527672060    0.01993571127078
C        -0.82344180211178    0.05205761495959   -0.01097084314530
C        -0.18932439649984    1.13974642434630    0.16106361591010
H        -1.56070435272289   -0.70697349296471   -0.12458094234819
5
 energy: -9.642176996290 gnorm: 0.006985833130 xtb: 6.2.2 (9d81278992624c895f80dd42a50cac0aa55982e2)
N         1.80369132322261   -0.51072919799432   -0.04145488297435
C         0.78547240999362    0.03495052375296    0.01508599118675
C        -0.82922791042185    0.04972311468659   -0.01338357511773
C        -0.18651110508697    1.12859096276484    0.16380855671060
H        -1.57342471770742   -0.70253540321007   -0.12405708980527
5
 energy: -9.642504276973 gnorm: 0.008905050755 xtb: 6.2.2 (9d81278992624c895f80dd42a50cac0aa55982e2)
N         1.82543111024020   -0.50154759912791   -0.03236268957418
C         0.81206099347163    0.05101457442574    0.00506326388349
C        -0.84894564552962    0.04420212225960   -0.01490096999064
C        -0.18013565630325    1.10078240980250    0.17132585259825
H        -1.60841080187897   -0.69445150735994   -0.12912645691692
5
 energy: -9.658955479981 gnorm: 0.084982551111 xtb: 6.2.2 (9d81278992624c895f80dd42a50cac0aa55982e2)
N         1.97917477938377   -0.43850463745913    0.02338483339518
C         1.00866511721167    0.17077963586728   -0.05276838023593
C        -1.00073171081526    0.00917117413085   -0.01016762545608
C        -0.13505095190482    0.89523673578424    0.21668720805543
H        -1.85205723387535   -0.63668290832324   -0.17713703575859
5
 energy: -9.677270437546 gnorm: 0.147191419751 xtb: 6.2.2 (9d81278992624c895f80dd42a50cac0aa55982e2)
N         2.11893028419533   -0.38444349966015    0.06967346500058
C         1.21586556860438    0.29969150390707   -0.09693395544465
C        -1.16259360036826   -0.01448144860016    0.01730209841170
C        -0.10301728064436    0.66766666996427    0.25430599825944
H        -2.06918497178708   -0.56843322561104   -0.24434860622708
5
 energy: -9.663081821360 gnorm: 0.417890874581 xtb: 6.2.2 (9d81278992624c895f80dd42a50cac0aa55982e2)
N         2.06683912801830   -0.40224330430850    0.00489046698037
C         1.25213666312512    0.31425276293402    0.01591495171778
C        -1.19803935731614    0.04101383865074    0.16240640710246
C        -0.17445433351883    0.52853784309043    0.16445316372318
H        -1.94648210030846   -0.48156114036669   -0.34766598952378
5
 energy: -9.684643374930 gnorm: 0.252472455290 xtb: 6.2.2 (9d81278992624c895f80dd42a50cac0aa55982e2)
N         2.13111239220539   -0.31283179455772   -0.02545111737098
C         1.20225421012443    0.27215851798138    0.04031221542297
C        -1.25117941755103    0.03356152653112    0.17356700358361
C        -0.07598622674323    0.49275955250978    0.12233874633910
H        -2.00620095803557   -0.48564780246457   -0.31076784797470
5
 energy: -9.691264639668 gnorm: 0.175470514648 xtb: 6.2.2 (9d81278992624c895f80dd42a50cac0aa55982e2)
N         2.24604280453609   -0.31679297651423    0.04473752932839
C         1.19638831828883    0.25793607778659   -0.02940752400399
C        -1.17305260639866   -0.04425499249208    0.12608153268383
C        -0.10425295378648    0.55430328666676    0.13731766668436
H        -2.16512556263978   -0.45119139544704   -0.27873020469258
5
 energy: -9.705343507362 gnorm: 0.045411590839 xtb: 6.2.2 (9d81278992624c895f80dd42a50cac0aa55982e2)
N         2.24720376445799   -0.30119469647968    0.02284104313291
C         1.24659479715169    0.26897889426147   -0.00236070136244
C        -1.24070694695417   -0.00675447840575    0.13092648069550
C        -0.11358982990650    0.45940299600945    0.13413992964332
H        -2.13950178474901   -0.42043271538549   -0.28554775210928
5
 energy: -9.713765777319 gnorm: 0.064998046315 xtb: 6.2.2 (9d81278992624c895f80dd42a50cac0aa55982e2)
N         2.29355560415928   -0.21248248537992    0.00515333054687
C         1.22761301712051    0.19863774746281    0.03942026929754
C        -1.25153583694140    0.00009024681132    0.08410063922326
C        -0.09141881883578    0.37761087468318    0.09162167720106
H        -2.17821396550261   -0.36385638357739   -0.22029691626873
5
 energy: -9.719730912130 gnorm: 0.084532662943 xtb: 6.2.2 (9d81278992624c895f80dd42a50cac0aa55982e2)
N         2.41682220010797   -0.09099954125823    0.01675569638466
C         1.27968062577968    0.15527932666511    0.07299474627301
C        -1.28323257894396   -0.02575502736932    0.03520368137044
C        -0.07490870881371    0.21311724165495    0.04321794083913
H        -2.33836153812998   -0.25164199969252   -0.16817306486724
5
 energy: -9.723296734113 gnorm: 0.033536171192 xtb: 6.2.2 (9d81278992624c895f80dd42a50cac0aa55982e2)
N         2.40867522507433   -0.02689845492376    0.03312686971081
C         1.27066522063354    0.13040189647831    0.09795725840532
C        -1.26464897550044   -0.09803253247223    0.02053867730744
C        -0.08741806542695    0.14899568485710   -0.02536560298563
H        -2.32727340478052   -0.15446659393945   -0.12625820243786
5
 energy: -9.718490902254 gnorm: 0.076776107737 xtb: 6.2.2 (9d81278992624c895f80dd42a50cac0aa55982e2)
N         2.37397208297701   -0.06778514547864    0.07595040827748
C         1.26174845441218    0.16840065096315   -0.03380936780575
C        -1.26569449228852   -0.08289961981783    0.03043001959815
C        -0.10975583998175    0.15834175087866    0.08471581147807
H        -2.26027020511895   -0.17605763654537   -0.15728787154794
5
 energy: -9.724413788090 gnorm: 0.027137989593 xtb: 6.2.2 (9d81278992624c895f80dd42a50cac0aa55982e2)
N         2.39959103994778   -0.03483495440176    0.02933042464392
C         1.26838506235906    0.11704100945626    0.07617882726531
C        -1.28177926110327   -0.03738548998857    0.00777671215967
C        -0.09461934307594    0.15451194538016    0.02017436969983
H        -2.29157749812765   -0.19933251044610   -0.13346133376869
5
 energy: -9.720378018218 gnorm: 0.074787179839 xtb: 6.2.2 (9d81278992624c895f80dd42a50cac0aa55982e2)
N         2.44270338044222    0.00810274009574    0.07891712993448
C         1.28497245901510    0.13652660593936    0.03634901727496
C        -1.27162484961083   -0.15757767133622    0.01467852886122
C        -0.07911601711781    0.09942637771033   -0.01590094656842
H        -2.37693497272873   -0.08647805240926   -0.11404472950213
5
 energy: -9.725465938499 gnorm: 0.012918286996 xtb: 6.2.2 (9d81278992624c895f80dd42a50cac0aa55982e2)
N         2.42018689927702   -0.00328826147246    0.04663219187559
C         1.27459261594870    0.10832249187113    0.06634292342867
C        -1.28228884655990   -0.06619379743017   -0.00062294582735
C        -0.09100500662485    0.11887142593844    0.00609967137612
H        -2.32148566204101   -0.15771185890697   -0.11845284085294
5
 energy: -9.725794108982 gnorm: 0.007329327760 xtb: 6.2.2 (9d81278992624c895f80dd42a50cac0aa55982e2)
N         2.42011074182269    0.00917247579450    0.05210163375245
C         1.27535695235328    0.10083741227195    0.05992839045759
C        -1.28309899363988   -0.06503784329011   -0.00798773866495
C        -0.09044812467714    0.10428449182346    0.00835015356345
H        -2.32192057585898   -0.14925653659983   -0.11239343910847
5
 energy: -9.726427765246 gnorm: 0.023611632265 xtb: 6.2.2 (9d81278992624c895f80dd42a50cac0aa55982e2)
N         2.43382200685229    0.07570520179762    0.07204153802437
C         1.27900970342258    0.05707736794040    0.04691908591591
C        -1.28947093800042   -0.05545615023332   -0.04438976224996
C        -0.08715787318964    0.03166060421271    0.00546751808639
H        -2.33620289908485   -0.10898702371745   -0.08003937977658
5
 energy: -9.726563390207 gnorm: 0.002743875896 xtb: 6.2.2 (9d81278992624c895f80dd42a50cac0aa55982e2)
N         2.42678762243158    0.07414485727748    0.07386906180101
C         1.27926073289744    0.06103439732708    0.04317601798516
C        -1.28522063975642   -0.05860874110488   -0.04491066491990
C        -0.08531707013488    0.03043113804376    0.00785997219106
H        -2.33551064543776   -0.10700165154350   -0.07999538705721
5
 energy: -9.726593625865 gnorm: 0.002243449120 xtb: 6.2.2 (9d81278992624c895f80dd42a50cac0aa55982e2)
N         2.42673348352677    0.08405934425743    0.07625921477204
C         1.27930857168749    0.05511658946645    0.04285778518571
C        -1.28559087286645   -0.05758562992938   -0.04909846497738
C        -0.08501720970748    0.01861408530909    0.00529488608255
H        -2.33543397264038   -0.10020438910364   -0.07531442106280
5
 energy: -9.726609373559 gnorm: 0.001789112968 xtb: 6.2.2 (9d81278992624c895f80dd42a50cac0aa55982e2)
N         2.42609598703513    0.09207063677918    0.07796994974554
C         1.27925468119376    0.05075294422759    0.04305238642448
C        -1.28609341661756   -0.05613648288807   -0.05080090424865
C        -0.08486872559288    0.00800851886016    0.00209431254341
H        -2.33438852601849   -0.09469561697891   -0.07231674446465
5
 energy: -9.726618719637 gnorm: 0.001605834788 xtb: 6.2.2 (9d81278992624c895f80dd42a50cac0aa55982e2)
N         2.42561269913590    0.09696184876983    0.07934512974690
C         1.27932379687988    0.04895922337859    0.04263096911513
C        -1.28621018151995   -0.05506210652202   -0.04956588270941
C        -0.08453548861591    0.00013405730411   -0.00070832783633
H        -2.33419082587997   -0.09099302293055   -0.07170288831616
5
 energy: -9.726628627489 gnorm: 0.001104632990 xtb: 6.2.2 (9d81278992624c895f80dd42a50cac0aa55982e2)
N         2.42559783817570    0.09795712896908    0.07983044978139
C         1.27945533449855    0.04975078334604    0.04193538477024
C        -1.28637779812498   -0.05301433008039   -0.04473144658633
C        -0.08411611696589   -0.00408477290710   -0.00283275890212
H        -2.33455925758343   -0.09060880932769   -0.07420262906305
5
 energy: -9.726630451042 gnorm: 0.000281643739 xtb: 6.2.2 (9d81278992624c895f80dd42a50cac0aa55982e2)
N         2.42593048248845    0.09691416990472    0.07950583892216
C         1.27940464754692    0.05062557287037    0.04180939470702
C        -1.28640201849404   -0.05155259155733   -0.04199842798553
C        -0.08408538688009   -0.00395499941556   -0.00320095910380
H        -2.33484772466128   -0.09203215180226   -0.07611684653972
