[Molden Format]
[Title]
[Atoms] AU
O      1     8  0.33755539786280E+01  0.65835350406336E+00  0.21039342473307E+00
C      2     6  0.12533521768481E+01  0.24830404033565E+00  0.79960314346999E-01
C      3     6 -0.34808296213958E+01 -0.68319754259767E+00 -0.21899389843414E+00
C      4     6 -0.11480765340804E+01 -0.22346000180136E+00 -0.71359840646148E-01
[GTO]
           1 0
 s           4   1.0000000000000000     
   69.137961906196551      -0.20478756370077797     
   11.906129132707308      -0.24997023136827334     
  0.95670827744340703       0.40025880240639616     
  0.36462520496073686       0.15952206667693555     
 p           4   1.0000000000000000     
   8.2124193257781641        1.1321556799186829     
   2.1293576997098116        1.0476840782254817     
  0.75066448202360914       0.54956508217158984     
  0.29885246543283073        8.2908486592766617E-002

           2 0
 s           4   1.0000000000000000     
   51.049363095579913      -0.16312063210127389     
   8.7911227406887544      -0.19911024581000730     
  0.70640422258929825       0.31882047753655751     
  0.26922813413411617       0.12706504184240380     
 p           4   1.0000000000000000     
   5.8263656140800002       0.73716451545209605     
   1.5106896018720002       0.68216371614850257     
  0.53256483288000001       0.35783053929253711     
  0.21202323690600003        5.3983030275847881E-002

           3 0
 s           4   1.0000000000000000     
   51.049363095579913      -0.16312063210127389     
   8.7911227406887544      -0.19911024581000730     
  0.70640422258929825       0.31882047753655751     
  0.26922813413411617       0.12706504184240380     
 p           4   1.0000000000000000     
   5.8263656140800002       0.73716451545209605     
   1.5106896018720002       0.68216371614850257     
  0.53256483288000001       0.35783053929253711     
  0.21202323690600003        5.3983030275847881E-002

           4 0
 s           4   1.0000000000000000     
   51.049363095579913      -0.16312063210127389     
   8.7911227406887544      -0.19911024581000730     
  0.70640422258929825       0.31882047753655751     
  0.26922813413411617       0.12706504184240380     
 p           4   1.0000000000000000     
   5.8263656140800002       0.73716451545209605     
   1.5106896018720002       0.68216371614850257     
  0.53256483288000001       0.35783053929253711     
  0.21202323690600003        5.3983030275847881E-002

[MO]
Sym=     1a
Ene=  -0.80865616979093780     
Spin= Alpha
Occup=     2.00000000
           1 -0.63720194925819673     
           2  0.24182950952657151     
           3   4.6666430842839834E-002
           4   1.4834642598453093E-002
           5 -0.33835434640472245     
           6 -0.21976606552143907     
           7  -4.2436147926412829E-002
           8  -1.3494120120871440E-002
           9   2.1078869780919488E-003
          10  -1.7241726377587624E-003
          11  -3.3995614779135596E-004
          12  -1.0920166108112493E-004
          13  -1.7982670490370306E-002
          14  -2.9966976571661405E-002
          15  -5.8523498054385056E-003
          16  -1.8716683320531406E-003
Sym=     2a
Ene=  -0.69688335283899860     
Spin= Alpha
Occup=     2.00000000
           1 -0.39736212461761589     
           2 -0.32686375064816153     
           3  -6.3883102106176232E-002
           4  -2.0437904526680140E-002
           5  0.45248986437176980     
           6 -0.23872366518273275     
           7  -4.7005958860352075E-002
           8  -1.5094156354141812E-002
           9  0.10698857181948161     
          10   6.4772255440453355E-002
          11   1.2743751272125754E-002
          12   4.0895314173221321E-003
          13  0.36144313632076924     
          14  0.13042053628480865     
          15   2.5556887121369665E-002
          16   8.1884024057360515E-003
Sym=     3a
Ene=  -0.64942415406073217     
Spin= Alpha
Occup=     2.00000000
           1 -0.35458325009140895     
           2 -0.34307046400625357     
           3  -6.4435248496127487E-002
           4  -2.0205001368699845E-002
           5  0.10138045674903513     
           6   9.8986393653320889E-002
           7   2.0855097639427136E-002
           8   6.9063170962155402E-003
           9 -0.48752797009752047     
          10 -0.14090793417980907     
          11  -2.7723070461452805E-002
          12  -8.8954178932727102E-003
          13 -0.38310306915836678     
          14  0.21807306040634530     
          15   4.3231989808213800E-002
          16   1.3922406878911489E-002
Sym=     4a
Ene=  -0.63455254706524067     
Spin= Alpha
Occup=     2.00000000
           1  -5.6246074414464902E-006
           2   1.9505296208863834E-002
           3 -0.30670850488260498     
           4  0.64673567893803907     
           5   3.1482637620536642E-006
           6   1.3907246156153597E-002
           7 -0.21859219199627172     
           8  0.46093338000370537     
           9   6.9389242910848268E-006
          10   6.1884778962124454E-004
          11  -9.7075662954614304E-003
          12   2.0470398062519733E-002
          13   3.6930181006529309E-008
          14   3.2337551825844918E-003
          15  -5.0923317648738198E-002
          16  0.10737634057623822     
Sym=     5a
Ene=  -0.63455234724261866     
Spin= Alpha
Occup=     2.00000000
           1   1.9779560050371118E-005
           2  0.14117676074988442     
           3 -0.63261390951519558     
           4 -0.30426918743327869     
           5  -5.6426772898712026E-004
           6  0.10092607598662057     
           7 -0.45080721069097834     
           8 -0.21683508299314655     
           9  -2.4883932830643820E-003
          10   3.9563128884379335E-003
          11  -2.0124429063124179E-002
          12  -9.6631365033638204E-003
          13  -1.3679909280445478E-003
          14   2.5106612278133277E-002
          15 -0.10470408227416766     
          16  -5.0412173040512570E-002
Sym=     6a
Ene=  -0.60433698538561820     
Spin= Alpha
Occup=     2.00000000
           1 -0.36734594912623980     
           2 -0.50734491314102059     
           3  -9.9399510848323103E-002
           4  -3.1844572641053830E-002
           5 -0.10872327130846518     
           6  0.34583428731845445     
           7   6.6266647005651269E-002
           8   2.0987020795192039E-002
           9  0.38162585840801427     
          10   1.7557941198117790E-002
          11   3.3677328928007218E-003
          12   1.0655294879736755E-003
          13 -0.11479865853638856     
          14 -0.33169211303194146     
          15  -6.5790977363963790E-002
          16  -2.1198920137933067E-002
Sym=     7a
Ene=  -0.46731256211320527     
Spin= Alpha
Occup=     2.00000000
           1  -2.5218079999812936E-006
           2   1.0528944314868291E-002
           3 -0.17197734412603127     
           4  0.36932641189679311     
           5  -7.4670482821203010E-006
           6  -5.7450375365404038E-003
           7   9.3939433875244838E-002
           8 -0.20173476927511486     
           9  -1.8597637054297601E-005
          10  -1.2238255257394448E-002
          11  0.20033477830836371     
          12 -0.43021199171272634     
          13   1.5460463478825097E-005
          14  -1.6230537827332903E-002
          15  0.26539816721915105     
          16 -0.56994183288437539     
Sym=     8a
Ene=  -0.46731248806459241     
Spin= Alpha
Occup=     2.00000000
           1   1.8912718264542112E-004
           2   8.0141220761730261E-002
           3 -0.36135707670588502     
           4 -0.17055112711064599     
           5   4.2564152519403571E-004
           6  -4.4222546862403171E-002
           7  0.19729528695881504     
           8   9.3131534895021739E-002
           9   7.2868251638693411E-004
          10  -9.5978659524010912E-002
          11  0.42041722320888503     
          12  0.19850400176545127     
          13  -3.4768486012454040E-004
          14 -0.12642090701818462     
          15  0.55710823117016817     
          16  0.26302221897294148     
Sym=     9a
Ene=  -0.43377128269938592     
Spin= Alpha
Occup=     2.00000000
           1   1.6086333049168212E-002
           2  0.10161250134172461     
           3   1.9538477506908014E-002
           4   6.2107052324085815E-003
           5  0.14873706690535651     
           6 -0.12962852886694087     
           7  -2.4939364461536349E-002
           8  -7.9238015066285788E-003
           9  0.62270769961828520     
          10 -0.66101871630699804     
          11 -0.13100090904883432     
          12  -4.2192451806397836E-002
          13 -0.22792535895645025     
          14  0.20438766279535728     
          15   3.9589194911597521E-002
          16   1.2595550618598197E-002
Sym=    10a
Ene=  -0.33297365141000806     
Spin= Alpha
Occup=     0.00000000
           1   1.4518508317271851E-004
           2  0.10502338876191065     
           3 -0.46786739193897692     
           4 -0.23128584360530705     
           5   1.2416849568866867E-003
           6 -0.12928714585063877     
           7  0.57382886013428291     
           8  0.28368251160607894     
           9  -2.5713940907867239E-004
          10  0.13849289595490732     
          11 -0.60223237605796620     
          12 -0.29781601601074059     
          13  -4.6861856568278975E-004
          14  -1.8864967690406898E-002
          15   7.9395709362446734E-002
          16   3.9282611168363221E-002
Sym=    11a
Ene=  -0.33297333225461762     
Spin= Alpha
Occup=     0.00000000
           1   8.3426765474942688E-007
           2   1.5615958259811063E-002
           3 -0.23299917671210302     
           4  0.47842423162367553     
           5   3.7640937231664097E-006
           6  -1.9157844918399732E-002
           7  0.28581234735486238     
           8 -0.58686813611953137     
           9  -1.1977622959865873E-006
          10   2.0160953931619856E-002
          11 -0.30021639292459734     
          12  0.61646180308742526     
          13  -3.4632388649704434E-007
          14  -2.6638184900315194E-003
          15   3.9636718292289021E-002
          16  -8.1390642585176462E-002
Sym=    12a
Ene=  -0.13528974986307546     
Spin= Alpha
Occup=     0.00000000
           1  -5.6126022177831268E-004
           2   6.5527732172193875E-002
           3 -0.28692885999833917     
           4 -0.13821012788633885     
           5   2.7786682485230088E-003
           6 -0.12446357881781017     
           7  0.55352807019977135     
           8  0.26656870904543234     
           9   1.6415120557302320E-004
          10 -0.12104975197497578     
          11  0.53716584181305382     
          12  0.25869705345116900     
          13  -1.7233696890772349E-003
          14  0.16816866013563642     
          15 -0.74409313512819353     
          16 -0.35836723684639887     
Sym=    13a
Ene=  -0.13528780161769163     
Spin= Alpha
Occup=     0.00000000
           1   4.8304225719434213E-007
           2   8.8877644404014161E-003
           3 -0.13940347863672872     
           4  0.29362009639919556     
           5  -1.8954094123338152E-006
           6  -1.7136701653531903E-002
           7  0.26875467571545558     
           8 -0.56606842208478203     
           9   5.4431972957919225E-007
          10  -1.6628496332830804E-002
          11  0.26082938019090546     
          12 -0.54937432981330236     
          13  -1.1552448635948133E-005
          14   2.3038656750186830E-002
          15 -0.36135305488920266     
          16  0.76110398798367573     
Sym=    14a
Ene=   0.15528190447581397     
Spin= Alpha
Occup=     0.00000000
           1  0.29370178248697648     
           2 -0.48357246750085947     
           3  -9.4844945786361573E-002
           4  -3.0393939521993700E-002
           5 -0.97709983022490088     
           6  0.14714248116943382     
           7   3.2047752454096849E-002
           8   1.0770287679751193E-002
           9 -0.24523998346134634     
          10 -0.50133261142300167     
          11  -9.7920914417624044E-002
          12  -3.1317395596220293E-002
          13  0.94961916088968623     
          14  0.27087065608160499     
          15   5.1241855640055997E-002
          16   1.6144743581666853E-002
Sym=    15a
Ene=   0.77087154348268427     
Spin= Alpha
Occup=     0.00000000
           1 -0.59465459003492704     
           2  0.62577608456050049     
           3  0.12094417876211083     
           4   3.8478206402120227E-002
           5  0.70872290891812972     
           6  0.65276687770100761     
           7  0.12594837568340730     
           8   4.0028505508868328E-002
           9 -0.64903762512048857     
          10 -0.74143664415133592     
          11 -0.14632766800894367     
          12  -4.7022741734490975E-002
          13  0.75467425935904187     
          14 -0.71306493003188298     
          15 -0.13983870968077425     
          16  -4.4794123428833307E-002
Sym=    16a
Ene=    1.3853414585111787     
Spin= Alpha
Occup=     0.00000000
           1  0.67177595852595351     
           2 -0.56951590899875659     
           3 -0.10950010616639436     
           4  -3.4742615668882273E-002
           5  0.15871840848858343     
           6  -1.3274593827906085     
           7 -0.25873452202566860     
           8  -8.2667512286072387E-002
           9 -0.59152940990334790     
          10 -0.53933868353187009     
          11 -0.10627283944647378     
          12  -3.4119387374803779E-002
          13 -0.24518009675121091     
          14  -1.2550991283023725     
          15 -0.24740021439712731     
          16  -7.9473800719454812E-002
