4
 energy: -10.062347991614 gnorm: 0.330364868230 xtb: 6.2.2 (9d81278992624c895f80dd42a50cac0aa55982e2)
O         1.40274800000000   -0.03271500000000   -0.27090100000000
C         0.27642800000000   -0.01063600000000    0.54989500000000
C        -0.85824000000000   -0.73449400000000   -0.14474800000000
C        -0.82093600000000    0.77784500000000   -0.13424600000000
4
 energy: -10.161868678301 gnorm: 0.235597224059 xtb: 6.2.2 (9d81278992624c895f80dd42a50cac0aa55982e2)
O         1.47339528218174   -0.03513774485209   -0.17313107062814
C         0.32636176004852   -0.01065747673631    0.37597949825625
C        -0.91739761497032   -0.68735891865453   -0.10635759922270
C        -0.88235942725994    0.73315414024293   -0.09649082840542
4
 energy: -10.171216147978 gnorm: 0.524297771624 xtb: 6.2.2 (9d81278992624c895f80dd42a50cac0aa55982e2)
O         1.41194390885030   -0.03445100768018   -0.05346599405768
C         0.40309055545824   -0.01125361253892    0.19017736682988
C        -0.92323269475661   -0.61397638784077   -0.07278174336286
C        -0.89180176955193    0.65968100805987   -0.06392962940934
4
 energy: -10.215871428024 gnorm: 0.091074846927 xtb: 6.2.2 (9d81278992624c895f80dd42a50cac0aa55982e2)
O         1.53501461073423   -0.03752849865922   -0.04701191344161
C         0.35563487602050   -0.00968331200735    0.13340419463250
C        -0.96169730257804   -0.63953440214118   -0.04780726592671
C        -0.92895218417668    0.68674621280775   -0.03858501526417
4
 energy: -10.220716019172 gnorm: 0.051741866987 xtb: 6.2.2 (9d81278992624c895f80dd42a50cac0aa55982e2)
O         1.51946277729244   -0.03722727891092   -0.02894923569357
C         0.35030539183614   -0.00929204005077    0.09565178635688
C        -0.95168333394386   -0.65465853170781   -0.03806023371868
C        -0.91808483518472    0.70117785066949   -0.02864231694463
4
 energy: -10.223857695140 gnorm: 0.016807388419 xtb: 6.2.2 (9d81278992624c895f80dd42a50cac0aa55982e2)
O         1.51174579296387   -0.03714130397715    0.00650433097581
C         0.34802531623670   -0.00867876707839    0.02391938228362
C        -0.94684400273475   -0.65117367801789   -0.01990876347954
C        -0.91292710646582    0.69699374907343   -0.01051494977989
4
 energy: -10.224058934467 gnorm: 0.004088547209 xtb: 6.2.2 (9d81278992624c895f80dd42a50cac0aa55982e2)
O         1.50498106998949   -0.03648719653813    0.01379243128468
C         0.34723965478752   -0.00849132536673    0.00959556517741
C        -0.94390392207391   -0.65106844264865   -0.01637194354484
C        -0.90831680270310    0.69604696455351   -0.00701605291726
4
 energy: -10.224102589254 gnorm: 0.009529804916 xtb: 6.2.2 (9d81278992624c895f80dd42a50cac0aa55982e2)
O         1.50605257590477   -0.03508393972442    0.01806175005908
C         0.34835306893493   -0.00817474583395    0.00160132363660
C        -0.94736236251186   -0.65150019022230   -0.01451163884642
C        -0.90704328232784    0.69475887578067   -0.00515143484925
4
 energy: -10.220130230394 gnorm: 0.133699420349 xtb: 6.2.2 (9d81278992624c895f80dd42a50cac0aa55982e2)
O         1.52930649089329    0.01166488962301    0.12501011578882
C         0.37617546572696    0.00225078252710   -0.19810513714214
C        -1.05106539648998   -0.66899951421875    0.03167432511456
C        -0.85441656013027    0.65508384206864    0.04142069623877
4
 energy: -10.225201110928 gnorm: 0.068928647685 xtb: 6.2.2 (9d81278992624c895f80dd42a50cac0aa55982e2)
O         1.51129168177964   -0.01630470304088    0.04684488194721
C         0.35945547587593   -0.00879084514406   -0.04966163677323
C        -0.98320445150063   -0.65476363360472   -0.00125871234756
C        -0.88754270615494    0.67985918178966    0.00407546717359
4
 energy: -10.227182787868 gnorm: 0.088493599419 xtb: 6.2.2 (9d81278992624c895f80dd42a50cac0aa55982e2)
O         1.51753586486524   -0.00434923668901    0.06053674535125
C         0.36722531032260   -0.00668084921682   -0.07291950530964
C        -1.00978110413117   -0.65756879059903    0.00363509149706
C        -0.87498007105667    0.66859887650485    0.00874766846133
4
 energy: -10.229634954273 gnorm: 0.096008242503 xtb: 6.2.2 (9d81278992624c895f80dd42a50cac0aa55982e2)
O         1.52430850969758    0.00895556015106    0.07376143167951
C         0.37583922420924   -0.00431152547017   -0.09475902754725
C        -1.03923626073598   -0.65968559345054    0.00804920196732
C        -0.86091147317084    0.65504155876964    0.01294839390042
4
 energy: -10.238710157339 gnorm: 0.154374536944 xtb: 6.2.2 (9d81278992624c895f80dd42a50cac0aa55982e2)
O         1.59289267606626    0.10194036941974    0.16443411801679
C         0.45407822570766    0.05302113411957   -0.23556419637466
C        -1.29558186038327   -0.67888649739827    0.01519582440953
C        -0.75138904139066    0.52392499385896    0.05593425394835
4
 energy: -10.251788414186 gnorm: 0.108932821373 xtb: 6.2.2 (9d81278992624c895f80dd42a50cac0aa55982e2)
O         1.60613200482457    0.07113893501534    0.14401768394452
C         0.47181082617499    0.09478334721768   -0.18601612897953
C        -1.29679232211388   -0.67303852569853   -0.02132902998956
C        -0.78115050888568    0.50711624346551    0.06332747502457
4
 energy: -10.278042103768 gnorm: 0.102975257287 xtb: 6.2.2 (9d81278992624c895f80dd42a50cac0aa55982e2)
O         1.65762345426332    0.09529847849823    0.09580083678568
C         0.53786270178235    0.15783933554911   -0.05451900263349
C        -1.44005908258498   -0.67121001419139   -0.09037360234796
C        -0.75542707346069    0.41807220014406    0.04909176819577
4
 energy: -10.292736006739 gnorm: 0.115425052444 xtb: 6.2.2 (9d81278992624c895f80dd42a50cac0aa55982e2)
O         1.75313808018792    0.10413841373034    0.06541513232105
C         0.61953276763084    0.28873513211697    0.04481425499159
C        -1.64148299900590   -0.65802259500853   -0.18420019494986
C        -0.73118784881286    0.26514904916123    0.07397080763721
4
 energy: -10.299128217807 gnorm: 0.064793916082 xtb: 6.2.2 (9d81278992624c895f80dd42a50cac0aa55982e2)
O         1.73985266307569    0.10556027779833    0.02599748183455
C         0.58565926197917    0.27068285280962    0.10482012607919
C        -1.60505390505574   -0.63208030572010   -0.18588372178396
C        -0.72045801999912    0.25583717511214    0.05506611387022
4
 energy: -10.302497353650 gnorm: 0.052013334088 xtb: 6.2.2 (9d81278992624c895f80dd42a50cac0aa55982e2)
O         1.73148865484398    0.12646605306338    0.03386241761808
C         0.59668272878611    0.27588749009299    0.09711660672937
C        -1.64031954903660   -0.61122799982671   -0.18640328772028
C        -0.68785183459349    0.20887445667034    0.05542426337283
4
 energy: -10.304527906228 gnorm: 0.044747301511 xtb: 6.2.2 (9d81278992624c895f80dd42a50cac0aa55982e2)
O         1.74523776783688    0.13364459647905    0.03219717830795
C         0.61999556484448    0.30822106846182    0.11309732846219
C        -1.69304807581285   -0.57832753635736   -0.20759228119225
C        -0.67218525686852    0.13646187141649    0.06229777442211
4
 energy: -10.305669670913 gnorm: 0.031180214105 xtb: 6.2.2 (9d81278992624c895f80dd42a50cac0aa55982e2)
O         1.74383788560481    0.14223610013974    0.03538038710815
C         0.61893353350596    0.29614394617293    0.10645551318837
C        -1.69509891721998   -0.55746804444966   -0.19945101375126
C        -0.66767250189079    0.11908799813699    0.05761511345474
4
 energy: -10.308003540407 gnorm: 0.029821592498 xtb: 6.2.2 (9d81278992624c895f80dd42a50cac0aa55982e2)
O         1.76420614112080    0.18680822907120    0.03441166129886
C         0.62807921298160    0.26076367204653    0.11270338065214
C        -1.74942920360478   -0.50802649600587   -0.18181328758784
C        -0.64285615049762    0.06045459488814    0.03469824563683
4
 energy: -10.308257891063 gnorm: 0.020421457048 xtb: 6.2.2 (9d81278992624c895f80dd42a50cac0aa55982e2)
O         1.77855693486494    0.18976016457659    0.05381211541407
C         0.63209039908297    0.27127087028696    0.07136979459930
C        -1.76139500007671   -0.49804940369811   -0.18970587813081
C        -0.64925233387117    0.03701836883457    0.06452396811756
4
 energy: -10.303687298191 gnorm: 0.109601654914 xtb: 6.2.2 (9d81278992624c895f80dd42a50cac0aa55982e2)
O         1.83806379744509    0.28124583215563    0.05420220605905
C         0.65792596122509    0.16932159744795    0.12400513354563
C        -1.82590480480162   -0.46075032589635   -0.14283168716394
C        -0.67008495386860    0.01018289629275   -0.03537565244096
4
 energy: -10.310151111005 gnorm: 0.020430099325 xtb: 6.2.2 (9d81278992624c895f80dd42a50cac0aa55982e2)
O         1.79272529529746    0.23343681260539    0.05750720016646
C         0.64307946971701    0.22301770366520    0.08882954183275
C        -1.78778050606429   -0.47562462034640   -0.16754864284048
C        -0.64802425895019    0.01917010407580    0.02121190084125
4
 energy: -10.310690462192 gnorm: 0.012537717932 xtb: 6.2.2 (9d81278992624c895f80dd42a50cac0aa55982e2)
O         1.79327465165757    0.24642771864172    0.06513679322554
C         0.64468675070556    0.21217873425926    0.07952638722145
C        -1.79628052779782   -0.46453558946313   -0.16341369117047
C        -0.64168087456531    0.00592913656215    0.01875051072346
4
 energy: -10.311628239973 gnorm: 0.037318900025 xtb: 6.2.2 (9d81278992624c895f80dd42a50cac0aa55982e2)
O         1.79837675174276    0.30668067484307    0.09481339064012
C         0.65399219354207    0.15914919319504    0.04920768911796
C        -1.83172839701081   -0.41485480000787   -0.14127233298243
C        -0.62064054827402   -0.05097506803024   -0.00274874677571
4
 energy: -10.311933527127 gnorm: 0.014301477563 xtb: 6.2.2 (9d81278992624c895f80dd42a50cac0aa55982e2)
O         1.79109529282731    0.30576006818722    0.09280271478800
C         0.65436549546143    0.15819430976514    0.05322201457941
C        -1.82482513061979   -0.41364377579910   -0.13971296305905
C        -0.62063565766896   -0.05031060215327   -0.00631176630844
4
 energy: -10.312140732078 gnorm: 0.006467579264 xtb: 6.2.2 (9d81278992624c895f80dd42a50cac0aa55982e2)
O         1.78941583888222    0.32369168663216    0.10053022829130
C         0.65948088328711    0.14244426730279    0.04710034719202
C        -1.83127508003254   -0.39677538305379   -0.13155772512826
C        -0.61762164213680   -0.06936057088117   -0.01607285035515
4
 energy: -10.312240224494 gnorm: 0.006266788281 xtb: 6.2.2 (9d81278992624c895f80dd42a50cac0aa55982e2)
O         1.78813367443071    0.34237777066271    0.10888816680678
C         0.66424918291675    0.12737754867552    0.04045297329472
C        -1.83915202474778   -0.37819665389513   -0.12288958761404
C        -0.61323083259970   -0.09155866544310   -0.02645155248756
4
 energy: -10.312286135542 gnorm: 0.005206238872 xtb: 6.2.2 (9d81278992624c895f80dd42a50cac0aa55982e2)
O         1.78630790807498    0.34836320946457    0.11170308246722
C         0.66561372544783    0.12390358166322    0.03857313349118
C        -1.84052201264112   -0.36990918816255   -0.11929024123068
C        -0.61139962088170   -0.10235760296526   -0.03098597472783
4
 energy: -10.312327916196 gnorm: 0.004721331469 xtb: 6.2.2 (9d81278992624c895f80dd42a50cac0aa55982e2)
O         1.78438067368113    0.35440436283123    0.11440840460704
C         0.66617770645110    0.12150625632988    0.03743011548876
C        -1.84231726885236   -0.36032594353267   -0.11510982359648
C        -0.60824111127990   -0.11558467562845   -0.03672869649944
4
 energy: -10.312350865167 gnorm: 0.003960117851 xtb: 6.2.2 (9d81278992624c895f80dd42a50cac0aa55982e2)
O         1.78402608783505    0.35455890309152    0.11444964750005
C         0.66524578687224    0.12408295467871    0.03847911706852
C        -1.84237148138061   -0.35684902762665   -0.11376030341012
C        -0.60690039332669   -0.12179283014359   -0.03916846115858
4
 energy: -10.312359614067 gnorm: 0.001282766155 xtb: 6.2.2 (9d81278992624c895f80dd42a50cac0aa55982e2)
O         1.78478726261874    0.35337126075296    0.11374205619238
C         0.66445483804774    0.12661422121813    0.03988934507934
C        -1.84285301595581   -0.35671631085915   -0.11371805521307
C        -0.60638908471068   -0.12326917111196   -0.03991334605878
4
 energy: -10.312361783047 gnorm: 0.000750022381 xtb: 6.2.2 (9d81278992624c895f80dd42a50cac0aa55982e2)
O         1.78626419257991    0.34839486192753    0.11134225932515
C         0.66324463505324    0.13140025060044    0.04231572455243
C        -1.84197358403978   -0.36154204591674   -0.11589365184164
C        -0.60753524359339   -0.11825306661124   -0.03776433203605
