$hessian                                                                        
        0.1984597352   0.0131870365  -0.0000468257  -0.0245137604   0.0442250657
        0.0579770476   0.0190048411  -0.0067609367   0.0000212048  -0.0316200959
        0.0492814997  -0.0629846746  -0.1613307200  -0.0999326651   0.0050332478
        0.0131870365   0.4604779406  -0.0009491721   0.0620450773  -0.1214527612
       -0.1263850517  -0.0068178341  -0.1157411872   0.0005140862   0.0690439192
       -0.1204971151   0.1226504410  -0.1374581988  -0.1027868770   0.0041696966
       -0.0000468257  -0.0009491721   0.1976488761   0.0596399499  -0.0931614523
       -0.1139063904   0.0000226715   0.0005016378   0.0192694311  -0.0647352184
        0.0904882460  -0.1077566718   0.0051194226   0.0031207407   0.0047447551
       -0.0245137604   0.0620450773   0.0596399499   0.1385860857   0.0022141738
       -0.1571630545  -0.0359364986  -0.0703081918   0.0691772001  -0.0145291232
        0.0015867746  -0.0216736231  -0.0636067035   0.0044621661   0.0500195276
        0.0442250657  -0.1214527612  -0.0931614523   0.0022141738   0.1940892412
        0.0084722844  -0.0523150973  -0.1083090446   0.0868074721   0.0016977041
        0.0179062641   0.0006527441   0.0041781537   0.0177663005  -0.0027710483
        0.0579770476  -0.1263850517  -0.1139063904  -0.1571630545   0.0084722844
        0.3453065215   0.0707447704   0.1198700632  -0.1155485936   0.0177354227
       -0.0012153956  -0.0825197556   0.0107058138  -0.0007419003  -0.0333317819
        0.0190048411  -0.0068178341   0.0000226715  -0.0359364986  -0.0523150973
        0.0707447704   0.1981648804   0.0135315748  -0.0000496393  -0.0442709381
       -0.0575589075  -0.0746005282  -0.1369622848   0.1031602641   0.0038827255
       -0.0067609367  -0.1157411872   0.0005016378  -0.0703081918  -0.1083090446
        0.1198700632   0.0135315748   0.4604260184  -0.0009683897  -0.0773898476
       -0.1092067857  -0.1155826011   0.1409274013  -0.1271690009  -0.0038207101
        0.0000212048   0.0005140862   0.0192694311   0.0691772001   0.0868074721
       -0.1155485936  -0.0000496393  -0.0009683897   0.1979743751  -0.0729494959
       -0.0836445851  -0.1063318042   0.0038007303  -0.0027085836   0.0046365917
       -0.0316200959   0.0690439192  -0.0647352184  -0.0145291232   0.0016977041
        0.0177354227  -0.0442709381  -0.0773898476  -0.0729494959   0.1574075208
        0.0024171251   0.1680232835  -0.0669873636   0.0042310992  -0.0480739918
        0.0492814997  -0.1204971151   0.0904882460   0.0015867746   0.0179062641
       -0.0012153956  -0.0575589075  -0.1092067857  -0.0836445851   0.0024171251
        0.1940147235  -0.0079841419   0.0042735082   0.0177829132   0.0023558767
       -0.0629846746   0.1226504410  -0.1077566718  -0.0216736231   0.0006527441
       -0.0825197556  -0.0746005282  -0.1155826011  -0.1063318042   0.1680232835
       -0.0079841419   0.3265282115  -0.0087644576   0.0002635580  -0.0299199798
       -0.1613307200  -0.1374581988   0.0051194226  -0.0636067035   0.0041781537
        0.0107058138  -0.1369622848   0.1409274013   0.0038007303  -0.0669873636
        0.0042735082  -0.0087644576   0.4288870719  -0.0119208643  -0.0108615092
       -0.0999326651  -0.1027868770   0.0031207407   0.0044621661   0.0177663005
       -0.0007419003   0.1031602641  -0.1271690009  -0.0027085836   0.0042310992
        0.0177829132   0.0002635580  -0.0119208643   0.1944066642   0.0000661852
        0.0050332478   0.0041696966   0.0047447551   0.0500195276  -0.0027710483
       -0.0333317819   0.0038827255  -0.0038207101   0.0046365917  -0.0480739918
        0.0023558767  -0.0299199798  -0.0108615092   0.0000661852   0.0538704150
