5
 energy: -10.168588702578 gnorm: 0.230650887787 xtb: 6.2.2 (9d81278992624c895f80dd42a50cac0aa55982e2)
C         0.06776800000000   -1.01545300000000    0.00028800000000
C        -0.73620900000000    0.03991800000000    0.74095000000000
C         0.16976600000000    1.00342800000000   -0.00712900000000
C        -0.77784300000000    0.03672700000000   -0.69729600000000
C         1.27651700000000   -0.06462000000000   -0.03681200000000
5
 energy: -10.216360762319 gnorm: 0.121459500585 xtb: 6.2.2 (9d81278992624c895f80dd42a50cac0aa55982e2)
C         0.06470708737103   -0.99689546985994    0.00033556214310
C        -0.67694152199611    0.03710698943282    0.79071804452021
C         0.16484848016232    0.98527420950363   -0.00694756995802
C        -0.72155174674880    0.03368916878845   -0.75039512540319
C         1.16893670121157   -0.05917489786497   -0.03370991130210
5
 energy: -10.233787603903 gnorm: 0.075534975144 xtb: 6.2.2 (9d81278992624c895f80dd42a50cac0aa55982e2)
C         0.05294822695824   -0.97263704225671    0.00062214285033
C        -0.61101468566751    0.03398208970891    0.84653134961084
C         0.15070185035533    0.96232159751953   -0.00649057081786
C        -0.65896232851405    0.03031269185355   -0.80991195270214
C         1.06632593686798   -0.05397933682528   -0.03074996894117
5
 energy: -10.238793884369 gnorm: 0.050212933778 xtb: 6.2.2 (9d81278992624c895f80dd42a50cac0aa55982e2)
C         0.03151064062127   -0.97583257895553    0.00124812217394
C        -0.59259765671526    0.03313049830484    0.86825368950738
C         0.12969323976391    0.96766953037216   -0.00589702752448
C        -0.64183533339360    0.02936416431469   -0.83265757702849
C         1.07322810972367   -0.05433161403615   -0.03094620712835
5
 energy: -10.246935810204 gnorm: 0.016799822301 xtb: 6.2.2 (9d81278992624c895f80dd42a50cac0aa55982e2)
C        -0.03360102399990   -0.95920544594078    0.00307909625958
C        -0.53249136974071    0.03037391713303    0.94506232373862
C         0.06323594041839    0.95770762153497   -0.00397126108222
C        -0.58629947209642    0.02626492515535   -0.91278900995916
C         1.08915492541863   -0.05514101788258   -0.03138014895682
5
 energy: -10.247460319341 gnorm: 0.008728226420 xtb: 6.2.2 (9d81278992624c895f80dd42a50cac0aa55982e2)
C        -0.04970072322034   -0.94633047456815    0.00353948878682
C        -0.51808154916101    0.02972281831179    0.96582521634785
C         0.04592150153084    0.94652373566621   -0.00342190067009
C        -0.57308043338023    0.02551729299697   -0.93436250338675
C         1.09494020423075   -0.05543337240682   -0.03157930107783
5
 energy: -10.247506739323 gnorm: 0.002544524648 xtb: 6.2.2 (9d81278992624c895f80dd42a50cac0aa55982e2)
C        -0.04844540124746   -0.94307635107315    0.00348569004769
C        -0.51908212484710    0.02977087648370    0.96511847517729
C         0.04684339680350    0.94316063147818   -0.00345041920614
C        -0.57405401933667    0.02556802111809   -0.93359325984764
C         1.09473714862773   -0.05542317800681   -0.03155948617120
5
 energy: -10.247511258824 gnorm: 0.000252165105 xtb: 6.2.2 (9d81278992624c895f80dd42a50cac0aa55982e2)
C        -0.04769690039327   -0.94184340228990    0.00347091295041
C        -0.51964202306125    0.02979865051309    0.96473108188796
C         0.04746498673648    0.94185565347665   -0.00345526304887
C        -0.57457622350095    0.02559592493300   -0.93318083004035
C         1.09444916021898   -0.05540682663283   -0.03156490174917
