$hessian                                                                        
        0.2389048339  -0.1944620838   0.0137289748  -0.0160575634   0.0100808834
       -0.0009195516  -0.2228472705   0.1843812004  -0.0128094232
       -0.1944620838   0.7156090166  -0.0117747470  -0.0687302981  -0.4616043606
       -0.0033927429   0.2631923819  -0.2540046560   0.0151674898
        0.0137289748  -0.0117747470   0.0007895986  -0.0008347432   0.0010672117
       -0.0000483869  -0.0128942316   0.0107075353  -0.0007412118
       -0.0160575634  -0.0687302981  -0.0008347432   0.3061193375   0.1707007560
        0.0171397186  -0.2900617741  -0.1019704578  -0.0163049754
        0.0100808834  -0.4616043606   0.0010672117   0.1707007560   0.4067818855
        0.0092222839  -0.1807816394   0.0548224750  -0.0102894956
       -0.0009195516  -0.0033927429  -0.0000483869   0.0171397186   0.0092222839
        0.0009600191  -0.0162201670  -0.0058295410  -0.0009116322
       -0.2228472705   0.2631923819  -0.0128942316  -0.2900617741  -0.1807816394
       -0.0162201670   0.5129090447  -0.0824107425   0.0291143986
        0.1843812004  -0.2540046560   0.0107075353  -0.1019704578   0.0548224750
       -0.0058295410  -0.0824107425   0.1991821809  -0.0048779943
       -0.0128094232   0.0151674898  -0.0007412118  -0.0163049754  -0.0102894956
       -0.0009116322   0.0291143986  -0.0048779943   0.0016528440
