3
 energy: -10.044162670169 gnorm: 0.180804178413 xtb: 6.2.2 (9d81278992624c895f80dd42a50cac0aa55982e2)
C        -0.26906600000000    0.75462600000000   -0.01603800000000
O        -0.49594600000000   -0.60286600000000   -0.02742000000000
O         0.76501200000000   -0.15176000000000    0.04345800000000
3
 energy: -10.063445227124 gnorm: 0.079409177113 xtb: 6.2.2 (9d81278992624c895f80dd42a50cac0aa55982e2)
C        -0.25152878626410    0.70544111246133   -0.01499267367408
O        -0.53536478094246   -0.58923868130172   -0.02966549845725
O         0.78689356720655   -0.11620243115962    0.04465817213133
3
 energy: -10.067570897688 gnorm: 0.021801892299 xtb: 6.2.2 (9d81278992624c895f80dd42a50cac0aa55982e2)
C        -0.23738839087656    0.66578341146482   -0.01414981921634
O        -0.56224106403797   -0.57649563422540   -0.03120021847269
O         0.79962945491453   -0.08928777723942    0.04535003768903
3
 energy: -10.067720861481 gnorm: 0.006583881443 xtb: 6.2.2 (9d81278992624c895f80dd42a50cac0aa55982e2)
C        -0.23886712603394    0.66993089290404   -0.01423796120647
O        -0.56340041332627   -0.57924870283466   -0.03126287360705
O         0.80226753936020   -0.09068219006938    0.04550083481351
3
 energy: -10.067744520438 gnorm: 0.001107086448 xtb: 6.2.2 (9d81278992624c895f80dd42a50cac0aa55982e2)
C        -0.23890687177473    0.67004258835841   -0.01424033053940
O        -0.56566421078547   -0.58012160220615   -0.03139005315930
O         0.80457108256020   -0.08992098615226    0.04563038369870
3
 energy: -10.067745404366 gnorm: 0.000481520282 xtb: 6.2.2 (9d81278992624c895f80dd42a50cac0aa55982e2)
C        -0.23874750430827    0.66959575957461   -0.01423083139669
O        -0.56660971711057   -0.58020797796304   -0.03144347026361
O         0.80535722141884   -0.08938778161157    0.04567430166030
