[Molden Format]
[Title]
[Atoms] AU
C      1     6 -0.45116082272229E+00  0.12653547977594E+01 -0.26893004955738E-01
O      2     8 -0.10707430338492E+01 -0.10964285692686E+01 -0.59413890476672E-01
O      3     8  0.15219038565715E+01 -0.16892622849081E+00  0.86306895432410E-01
[GTO]
           1 0
 s           4   1.0000000000000000     
   51.049363095579913      -0.16312063210127389     
   8.7911227406887544      -0.19911024581000730     
  0.70640422258929825       0.31882047753655751     
  0.26922813413411617       0.12706504184240380     
 p           4   1.0000000000000000     
   5.8263656140800002       0.73716451545209605     
   1.5106896018720002       0.68216371614850257     
  0.53256483288000001       0.35783053929253711     
  0.21202323690600003        5.3983030275847881E-002

           2 0
 s           4   1.0000000000000000     
   69.137961906196551      -0.20478756370077797     
   11.906129132707308      -0.24997023136827334     
  0.95670827744340703       0.40025880240639616     
  0.36462520496073686       0.15952206667693555     
 p           4   1.0000000000000000     
   8.2124193257781641        1.1321556799186829     
   2.1293576997098116        1.0476840782254817     
  0.75066448202360914       0.54956508217158984     
  0.29885246543283073        8.2908486592766617E-002

           3 0
 s           4   1.0000000000000000     
   69.137961906196551      -0.20478756370077797     
   11.906129132707308      -0.24997023136827334     
  0.95670827744340703       0.40025880240639616     
  0.36462520496073686       0.15952206667693555     
 p           4   1.0000000000000000     
   8.2124193257781641        1.1321556799186829     
   2.1293576997098116        1.0476840782254817     
  0.75066448202360914       0.54956508217158984     
  0.29885246543283073        8.2908486592766617E-002

[MO]
Sym=     1a
Ene=  -0.84827071961664835     
Spin= Alpha
Occup=     2.00000000
           1 -0.28129063878294897     
           2  -6.0327504289732006E-002
           3  0.16919837133389093     
           4  -3.5960294132550575E-003
           5 -0.40174604648976647     
           6 -0.15898599224670898     
           7 -0.17606046319147509     
           8  -8.8076078823368254E-003
           9 -0.40174607282515545     
          10  0.23436161412316331     
          11  -3.5343022353353522E-002
          12   1.3300635584763031E-002
Sym=     2a
Ene=  -0.76945231422301441     
Spin= Alpha
Occup=     2.00000000
           1  -2.8076252765517114E-008
           2 -0.23680052821418224     
           3  -8.4713848692933413E-002
           4  -1.3309487777712467E-002
           5  0.61740735943212255     
           6 -0.16587729541878196     
           7   2.7944884424259357E-002
           8  -9.4171644433701414E-003
           9 -0.61740733412604576     
          10 -0.11067491442019031     
          11 -0.12687982651862786     
          12  -6.1266326432494519E-003
Sym=     3a
Ene=  -0.70863191119340863     
Spin= Alpha
Occup=     2.00000000
           1  0.40598546514362283     
           2  -1.3648793281496941E-002
           3   3.8280071086612938E-002
           4  -8.1358198257601249E-004
           5 -0.34894794433467624     
           6 -0.16191993067504959     
           7  0.44469289757896024     
           8  -9.6416301247882457E-003
           9 -0.34894805117982297     
          10 -0.15595096536333874     
          11  0.44682811623219765     
          12  -9.3061619437800735E-003
Sym=     4a
Ene=  -0.67635573295667395     
Spin= Alpha
Occup=     2.00000000
           1  -8.6482475386601903E-010
           2  -2.1392697465719014E-002
           3   4.0678583329535416E-004
           4  0.37802676980608346     
           5   2.8425348499120533E-008
           6  -3.1945550002174881E-002
           7   6.0746567610274384E-004
           8  0.56450475726009786     
           9  -2.7230892070589505E-008
          10  -3.1945549165225615E-002
          11   6.0744373045228854E-004
          12  0.56450476976529973     
Sym=     5a
Ene=  -0.65784571887266174     
Spin= Alpha
Occup=     2.00000000
           1   7.1268702006816717E-002
           2  -2.1978904458721478E-002
           3   6.1643305899418056E-002
           4  -1.3101267003744778E-003
           5  0.35636681147330224     
           6 -0.58491652073782396     
           7  -6.9694903721839535E-002
           8  -3.3025663150339037E-002
           9  0.35636662621330351     
          10  0.49665771633015504     
          11  0.31723118714335236     
          12   2.7764695929835700E-002
Sym=     6a
Ene=  -0.61567438528595775     
Spin= Alpha
Occup=     2.00000000
           1   2.4385537482334407E-008
           2  0.40680023042017865     
           3  0.14553012912906763     
           4   2.2864386474286683E-002
           5  0.25991780860032293     
           6   6.7246770513907622E-002
           7 -0.54795304597931727     
           8   4.3951734270402665E-003
           9 -0.25991790942188980     
          10 -0.29450931612180248     
          11  0.46665144536721970     
          12  -1.7168551466193529E-002
Sym=     7a
Ene=  -0.51875551490521787     
Spin= Alpha
Occup=     2.00000000
           1   1.8530109023000390E-009
           2  -1.3971509096113293E-009
           3   5.7330707402058293E-009
           4  -9.2032471999053465E-009
           5  -1.8372560496189406E-008
           6   4.1995124671709079E-002
           7  -7.9855439461836537E-004
           8 -0.74208930912104076     
           9  -1.6727483864798818E-008
          10  -4.1995124403418571E-002
          11   7.9855695377895031E-004
          12  0.74208930665942641     
Sym=     8a
Ene=  -0.49149190523176284     
Spin= Alpha
Occup=     2.00000000
           1 -0.67142464060688700     
           2  0.22297605936342071     
           3 -0.62537304016082518     
           4   1.3291259549977823E-002
           5  -4.5058972858942711E-002
           6 -0.14117676195547688     
           7  0.26098062799738247     
           8  -8.2700888869907067E-003
           9  -4.5059010852199086E-002
          10  -5.5815985365413129E-002
          11  0.29151786777071176     
          12  -3.4723443461989805E-003
Sym=     9a
Ene=  -0.34593224517669108     
Spin= Alpha
Occup=     0.00000000
           1   1.2475407769401863E-009
           2   5.4241549549861080E-002
           3  -1.0314297306654571E-003
           4 -0.95849416442811786     
           5   2.7674288507862987E-009
           6  -2.3064224130766600E-002
           7   4.3857269180151183E-004
           8  0.40756429865381805     
           9  -2.2252051716770721E-009
          10  -2.3064225025332324E-002
          11   4.3857781638505683E-004
          12  0.40756428361553321     
Sym=    10a
Ene=  -0.28908416549297816     
Spin= Alpha
Occup=     0.00000000
           1  -1.0911771439270302E-008
           2 -0.26099689468667792     
           3  -9.3369922633754043E-002
           4  -1.4669442562420991E-002
           5  0.23733129963095023     
           6  0.81562152688863720     
           7   2.8902441179464590E-002
           8   4.6125235893694862E-002
           9 -0.23733136505004757     
          10  0.64936794800293274     
          11  0.49518793632484437     
          12   3.6215114592616761E-002
Sym=    11a
Ene=   -8.4221631011766607E-003
Spin= Alpha
Occup=     0.00000000
           1  -2.6245985066859600E-008
           2 -0.91924882038269018     
           3 -0.32885520042426208     
           4  -5.1666758592455848E-002
           5 -0.43375031746441989     
           6  -9.4012737845826894E-002
           7 -0.59599131118990123     
           8  -4.6788752286411640E-003
           9  0.43375032139144726     
          10 -0.44966508415788259     
          11  0.40149416369082269     
          12  -2.5878766077912611E-002
Sym=    12a
Ene=   0.40668797701714043     
Spin= Alpha
Occup=     0.00000000
           1 -0.88489493175495448     
           2 -0.34016500844094305     
           3  0.95404883870725754     
           4  -2.0276714700325507E-002
           5  0.47807418978495198     
           6  0.12195316938256209     
           7  0.58855403638007586     
           8   6.2680362279657576E-003
           9  0.47807414797257936     
          10 -0.46658045435854739     
          11  0.37800996139821791     
          12  -2.6810740395032402E-002
