 Entering Gaussian System
 *********************************************
 Gaussian 98:
 frequency output generated by the xtb code
 *********************************************
                         Standard orientation:
 --------------------------------------------------------------------
  Center     Atomic     Atomic              Coordinates (Angstroms)
  Number     Number      Type              X           Y           Z
 --------------------------------------------------------------------
    1          6             0       -0.238744    0.669597   -0.014231
    2          8             0       -0.566613   -0.580205   -0.031440
    3          8             0        0.805357   -0.089392    0.045672
 --------------------------------------------------------------------
     1 basis functions        1 primitive gaussians
     1 alpha electrons        1 beta electrons

 Harmonic frequencies (cm**-1), IR intensities (KM/Mole),
 Raman scattering activities (A**4/amu), Raman depolarization ratios,
 reduced masses (AMU), force constants (mDyne/A) and normal coordinates:
                      1                      2                      3
                        a                      a                      a 
 Frequencies --   902.7565               986.9576              1634.1737
 Red. masses --    14.1676                15.4957                13.6030
 Frc consts  --     0.0000                 0.0000                 0.0000
 IR Inten    --     1.8594                 0.2023                 0.4079
 Raman Activ --     0.0000                 0.0000                 0.0000
 Depolar     --     0.0000                 0.0000                 0.0000
 Atom AN      X      Y      Z        X      Y      Z        X      Y      Z
   1   6    -0.64  -0.23  -0.04     0.12  -0.33   0.01    -0.26   0.73  -0.02
   2   8     0.13   0.50   0.01    -0.66  -0.07  -0.04    -0.16  -0.42  -0.01
   3   8     0.42  -0.31   0.02     0.55   0.36   0.03     0.39  -0.22   0.02
