[Molden Format]
[Title]
[Atoms] AU
C      1     6  0.30435496053529E+01 -0.53808550070997E-01 -0.11709567580091E+00
C      2     6  0.68137909556131E+00 -0.14690358506598E-01  0.25949168728933E+00
C      3     6 -0.18403416624177E+01  0.12616174472502E+01 -0.59888013588853E-01
C      4     6 -0.18845870385064E+01 -0.11931204283985E+01 -0.82507997896271E-01
[GTO]
           1 0
 s           4   1.0000000000000000     
   51.049363095579913      -0.16312063210127389     
   8.7911227406887544      -0.19911024581000730     
  0.70640422258929825       0.31882047753655751     
  0.26922813413411617       0.12706504184240380     
 p           4   1.0000000000000000     
   5.8263656140800002       0.73716451545209605     
   1.5106896018720002       0.68216371614850257     
  0.53256483288000001       0.35783053929253711     
  0.21202323690600003        5.3983030275847881E-002

           2 0
 s           4   1.0000000000000000     
   51.049363095579913      -0.16312063210127389     
   8.7911227406887544      -0.19911024581000730     
  0.70640422258929825       0.31882047753655751     
  0.26922813413411617       0.12706504184240380     
 p           4   1.0000000000000000     
   5.8263656140800002       0.73716451545209605     
   1.5106896018720002       0.68216371614850257     
  0.53256483288000001       0.35783053929253711     
  0.21202323690600003        5.3983030275847881E-002

           3 0
 s           4   1.0000000000000000     
   51.049363095579913      -0.16312063210127389     
   8.7911227406887544      -0.19911024581000730     
  0.70640422258929825       0.31882047753655751     
  0.26922813413411617       0.12706504184240380     
 p           4   1.0000000000000000     
   5.8263656140800002       0.73716451545209605     
   1.5106896018720002       0.68216371614850257     
  0.53256483288000001       0.35783053929253711     
  0.21202323690600003        5.3983030275847881E-002

           4 0
 s           4   1.0000000000000000     
   51.049363095579913      -0.16312063210127389     
   8.7911227406887544      -0.19911024581000730     
  0.70640422258929825       0.31882047753655751     
  0.26922813413411617       0.12706504184240380     
 p           4   1.0000000000000000     
   5.8263656140800002       0.73716451545209605     
   1.5106896018720002       0.68216371614850257     
  0.53256483288000001       0.35783053929253711     
  0.21202323690600003        5.3983030275847881E-002

[MO]
Sym=     1a
Ene=  -0.72256260497361369     
Spin= Alpha
Occup=     2.00000000
           1  -9.5708775012603386E-002
           2   6.4563319878275072E-002
           3  -1.1371662755796116E-003
           4  -2.9271256087349323E-003
           5 -0.34526061251873341     
           6  0.13469790730975501     
           7  -2.6963238314581762E-003
           8   2.8959888373797600E-002
           9 -0.39023683567931722     
          10  -8.1979170695040807E-002
          11  0.16015547923297868     
          12  -9.4345778490027964E-003
          13 -0.39023788018451228     
          14  -8.7696574185320786E-002
          15 -0.15689632158414143     
          16  -1.2356456451225423E-002
Sym=     2a
Ene=  -0.67252150592360582     
Spin= Alpha
Occup=     2.00000000
           1 -0.53541925685201719     
           2  0.15846057276414585     
           3  -2.6339720959804571E-003
           4  -2.4145513256106779E-002
           5 -0.36922354379701150     
           6 -0.30689549098393609     
           7   5.2328691717542031E-003
           8   3.2774078741658622E-002
           9  0.16183784783714897     
          10  -7.1996683688485177E-002
          11  -6.4066368027066570E-002
          12   3.9529275736463441E-003
          13  0.16183434473328948     
          14  -6.9644956157959029E-002
          15   6.6537470321225339E-002
          16   5.1564675314128517E-003
Sym=     3a
Ene=  -0.57567334224738753     
Spin= Alpha
Occup=     2.00000000
           1  -4.9741776597754315E-005
           2  -2.8806318926246346E-003
           3 -0.15920976148688062     
           4  -1.4650278313378096E-003
           5   3.7814313003172657E-005
           6  -7.8102537256766070E-003
           7 -0.43095295431935038     
           8  -3.9625664783382170E-003
           9 -0.45641809094631769     
          10 -0.10596402904328459     
          11 -0.25769964575444720     
          12  -1.6364860743363917E-002
          13  0.45635527516007124     
          14   9.6706849840775294E-002
          15 -0.26165080082856140     
          16   1.1605162036158774E-002
Sym=     4a
Ene=  -0.56690720250184867     
Spin= Alpha
Occup=     2.00000000
           1 -0.34505340825141190     
           2  -8.2930058533515455E-002
           3   1.2589829104050897E-003
           4   2.8320985125468795E-002
           5  0.26435684449776942     
           6 -0.25327765682849435     
           7   3.8299792414124931E-003
           8   8.6691931033565539E-002
           9 -0.22908955652801397     
          10  0.40466321466921279     
          11  0.11290573147680794     
          12  0.11483776862304068     
          13 -0.22921363872603048     
          14  0.40027074551750919     
          15 -0.12943768380099452     
          16  0.11260227434540755     
Sym=     5a
Ene=  -0.53976619688447669     
Spin= Alpha
Occup=     2.00000000
           1  -6.0954854338769071E-002
           2  -4.0415671332253322E-002
           3   2.9131590465531986E-003
           4 -0.23687702968851979     
           5  -4.0749639989791177E-002
           6  -5.5661352498152399E-002
           7   5.4508544860667240E-003
           8 -0.48225630793272262     
           9  -3.6060076401764445E-002
          10  0.13212533901355566     
          11   2.3902039174115926E-002
          12 -0.43372583800962378     
          13  -3.6064321994337831E-002
          14  0.13132202610967719     
          15  -2.0650448754558001E-002
          16 -0.43414149343799890     
Sym=     6a
Ene=  -0.46749287496699499     
Spin= Alpha
Occup=     2.00000000
           1  -8.5624915851607483E-006
           2  -8.6332997584605432E-003
           3 -0.47841127620000046     
           4  -4.4062368744757930E-003
           5   3.1672450768161836E-006
           6  -8.4416884413869610E-003
           7 -0.46832841571091594     
           8  -4.3147438601542206E-003
           9  0.34386063920233989     
          10 -0.23859935477579003     
          11  0.24862584111069896     
          12  -2.4061458871805257E-002
          13 -0.34383539055885759     
          14  0.24739208888343636     
          15  0.23934486830023288     
          16   2.8554241556709586E-002
Sym=     7a
Ene=  -0.45586763551674447     
Spin= Alpha
Occup=     1.99999066
           1 -0.55560253433530793     
           2 -0.56117250102388105     
           3   7.3063943020777559E-003
           4  0.30578936427967635     
           5  0.19993843657044352     
           6  0.20650888110645696     
           7  -5.1598040023939267E-003
           8  0.15651750920102725     
           9   1.2166367768202239E-002
          10 -0.16735446989919192     
          11  -9.5048339589900114E-003
          12 -0.19587699182311805     
          13   1.2174415782522742E-002
          14 -0.16684353896927520     
          15   1.9129629729536517E-002
          16 -0.19561162324048742     
Sym=     8a
Ene=  -0.43386143249381198     
Spin= Alpha
Occup=     1.00000934
           1  0.20964407986582134     
           2  0.37679008928284380     
           3  -1.1777680204509507E-002
           4  0.54047173404914761     
           5  -2.6587688840943185E-002
           6  -7.2857375816427594E-002
           7  -2.1944074667444497E-003
           8  0.38040603109977827     
           9  -2.2889201317700083E-002
          10  0.13306501448220676     
          11  -5.0634473981662494E-002
          12 -0.35811035490282872     
          13  -2.2890736402944731E-002
          14  0.13492279977549743     
          15   5.2396545761777019E-002
          16 -0.35715283204533260     
Sym=     9a
Ene=  -0.42285526953445218     
Spin= Alpha
Occup=     1.00000000
           1  -3.0094626362786814E-002
           2  -2.6360615296573076E-002
           3   9.1315308313891187E-004
           4  -5.0285346491878387E-002
           5  -5.0456384121643962E-003
           6   1.7879150519492452E-002
           7  -4.9009145045396149E-005
           8  -3.0971529007914580E-002
           9 -0.39229256263113332     
          10   5.8244055685491387E-003
          11 -0.60200930767867156     
          12   2.6522574023168193E-002
          13 -0.39230563255847173     
          14   2.7523925085438248E-002
          15  0.60082798571877793     
          16   3.7607586390943928E-002
Sym=    10a
Ene=  -0.32908825773180755     
Spin= Alpha
Occup=     0.00000000
           1   1.6178872876889215E-006
           2   1.4312733399073331E-002
           3  0.79362149663978354     
           4   7.3108925945387952E-003
           5   5.8179244707686365E-006
           6  -4.7700131822013807E-003
           7 -0.26424726373186147     
           8  -2.4336207252894748E-003
           9   5.7455351010397636E-002
          10 -0.45530851813767481     
          11   6.9718485876707106E-002
          12  -8.1053200670361439E-002
          13  -5.7467515235850225E-002
          14  0.45748440183365369     
          15   5.1770633061161045E-002
          16   8.2169160009043632E-002
Sym=    11a
Ene=  -0.27867686667009395     
Spin= Alpha
Occup=     0.00000000
           1   1.2413372584348241E-006
           2  -4.9043626261183898E-004
           3  -2.7000589822953606E-002
           4  -2.8528143524125782E-004
           5   5.7412941877653474E-006
           6   4.1535930584792697E-005
           7   2.3633170904590957E-003
           8   4.8267453485746510E-005
           9   1.2410588586609964E-003
          10  0.11738277863961775     
          11   6.2518176403356333E-003
          12 -0.79625437343473959     
          13  -1.2424049182144757E-003
          14 -0.11734923457623797     
          15  -4.1924312802250757E-003
          16  0.79625595724474352     
Sym=    12a
Ene=  -0.22949893742190156     
Spin= Alpha
Occup=     0.00000000
           1  -1.6501269629593088E-002
           2   1.5603673191031309E-002
           3  -7.3963807670708532E-003
           4  0.77253215536399944     
           5 -0.20104440776789587     
           6   4.1098535392404899E-002
           7   6.5864070679540346E-003
           8 -0.79566518295549959     
           9   2.4680416677119146E-002
          10   5.6988500186599213E-002
          11  -1.2699932493518067E-002
          12  0.22970472488170990     
          13   2.4680108185262069E-002
          14   5.7323505841392494E-002
          15   6.4046573781186304E-003
          16  0.22994989562527499     
Sym=    13a
Ene=   -3.5827549785242094E-002
Spin= Alpha
Occup=     0.00000000
           1  -5.6221661688506712E-006
           2  -7.5534114782717793E-003
           3 -0.42072069902584652     
           4  -3.8662997051885240E-003
           5   7.5194437668385338E-005
           6   1.5077206418434420E-002
           7  0.83887553636452672     
           8   7.7067176377186375E-003
           9  -6.5552280405468136E-002
          10 -0.64711678945443918     
          11 -0.20397618670172843     
          12  -8.8818645211757863E-002
          13   6.5506226368535453E-002
          14  0.63922359932567840     
          15 -0.22879634176142893     
          16   8.4825697895470162E-002
Sym=    14a
Ene=    5.9936546978542782E-002
Spin= Alpha
Occup=     0.00000000
           1  0.13131347227374557     
           2 -0.42156695401704097     
           3   8.2817530285443121E-003
           4  -7.6928955759105869E-002
           5 -0.99499990384779424     
           6  0.50898466404282960     
           7  -1.1453360949904311E-002
           8  0.25416486393440496     
           9  0.29907151856592157     
          10  0.50759485474207511     
          11 -0.12600363127204728     
          12   3.1539634963428535E-002
          13  0.29907436542183763     
          14  0.51192768462011995     
          15  0.10695616711231827     
          16   3.3700812635249724E-002
Sym=    15a
Ene=   0.55266828565404180     
Spin= Alpha
Occup=     0.00000000
           1  -2.8715370118961025E-005
           2   1.3672335527688054E-003
           3   7.3872503725473770E-002
           4   6.7625606781603878E-004
           5   3.5957984679085328E-005
           6  -3.9298287117848470E-003
           7 -0.21941545585262770     
           8  -2.0296542831526061E-003
           9  0.85178538592677489     
          10   6.7114673869533292E-002
          11 -0.95968038660141963     
          12   2.1698552872726441E-003
          13 -0.85178506121697872     
          14 -0.10165493121541809     
          15 -0.95643230429207837     
          16  -1.9824020248381164E-002
Sym=    16a
Ene=   0.80079369739719553     
Spin= Alpha
Occup=     0.00000000
           1  0.88196597594941095     
           2 -0.95074616004378187     
           3   1.5525694959191316E-002
           4  0.17571339162942981     
           5 -0.55581514088884820     
           6  -1.2626312711576921     
           7   2.1711642690030127E-002
           8  0.11290670648420384     
           9 -0.20737675569768588     
          10 -0.20548396817838355     
          11   8.7388007976175533E-002
          12  -6.0173256703285334E-002
          13 -0.20744335882860751     
          14 -0.20850493004019519     
          15  -7.8859313547916449E-002
          16  -6.1710843347050112E-002
