$hessian                                                                        
        0.5866806948  -0.0092976072  -0.1147943854  -0.4628873221   0.0067020031
        0.1506339871  -0.0625315652  -0.0439343201  -0.0183747281  -0.0612618075
        0.0465299242  -0.0174648736
       -0.0092976072   0.0118397895   0.0019006155   0.0070508422  -0.0159280434
       -0.0024783933   0.0080994938   0.0027325820  -0.0020531180  -0.0058527288
        0.0013556720   0.0026308957
       -0.1147943854   0.0019006155   0.0305534429   0.1074495167  -0.0016975303
       -0.0428846794   0.0037716583   0.0018731714   0.0061606470   0.0035732104
       -0.0020762566   0.0061705894
       -0.4628873221   0.0070508422   0.1074495167   0.6845073541  -0.0108315960
       -0.1098924254  -0.1074948204   0.1908767224   0.0030355101  -0.1141252117
       -0.1870959685  -0.0005926014
        0.0067020031  -0.0159280434  -0.0016975303  -0.0108315960   0.0283193879
        0.0016519021  -0.0004617956  -0.0097910703   0.0040745806   0.0045913885
       -0.0026002742  -0.0040289524
        0.1506339871  -0.0024783933  -0.0428846794  -0.1098924254   0.0016519021
        0.0657022972  -0.0200106437   0.0219865519  -0.0111696369  -0.0207309180
       -0.0211600607  -0.0116479809
       -0.0625315652   0.0080994938   0.0037716583  -0.1074948204  -0.0004617956
       -0.0200106437   0.0952483988  -0.0641579416   0.0070861826   0.0747779868
        0.0565202434   0.0091528028
       -0.0439343201   0.0027325820   0.0018731714   0.1908767224  -0.0097910703
        0.0219865519  -0.0641579416   0.6564768329  -0.0067776285  -0.0827844606
       -0.6494183447  -0.0170820949
       -0.0183747281  -0.0020531180   0.0061606470   0.0030355101   0.0040745806
       -0.0111696369   0.0070861826  -0.0067776285   0.0030369620   0.0082530354
        0.0047561658   0.0019720278
       -0.0612618075  -0.0058527288   0.0035732104  -0.1141252117   0.0045913885
       -0.0207309180   0.0747779868  -0.0827844606   0.0082530354   0.1006090324
        0.0840458010   0.0089046722
        0.0465299242   0.0013556720  -0.0020762566  -0.1870959685  -0.0026002742
       -0.0211600607   0.0565202434  -0.6494183447   0.0047561658   0.0840458010
        0.6506629469   0.0184801515
       -0.0174648736   0.0026308957   0.0061705894  -0.0005926014  -0.0040289524
       -0.0116479809   0.0091528028  -0.0170820949   0.0019720278   0.0089046722
        0.0184801515   0.0035053637
