 Entering Gaussian System
 *********************************************
 Gaussian 98:
 frequency output generated by the xtb code
 *********************************************
                         Standard orientation:
 --------------------------------------------------------------------
  Center     Atomic     Atomic              Coordinates (Angstroms)
  Number     Number      Type              X           Y           Z
 --------------------------------------------------------------------
    1          6             0        1.610577   -0.028474   -0.061964
    2          6             0        0.360570   -0.007774    0.137317
    3          6             0       -0.973867    0.667619   -0.031691
    4          6             0       -0.997281   -0.631372   -0.043661
 --------------------------------------------------------------------
     1 basis functions        1 primitive gaussians
     1 alpha electrons        1 beta electrons

 Harmonic frequencies (cm**-1), IR intensities (KM/Mole),
 Raman scattering activities (A**4/amu), Raman depolarization ratios,
 reduced masses (AMU), force constants (mDyne/A) and normal coordinates:
                      1                      2                      3
                        a                      a                      a 
 Frequencies --   230.9826               267.1098               309.6918
 Red. masses --    12.0107                12.0107                12.0107
 Frc consts  --     0.0000                 0.0000                 0.0000
 IR Inten    --     0.9458                 0.8172                 0.4501
 Raman Activ --     0.0000                 0.0000                 0.0000
 Depolar     --     0.0000                 0.0000                 0.0000
 Atom AN      X      Y      Z        X      Y      Z        X      Y      Z
   1   6     0.00   0.11  -0.00     0.24  -0.01   0.42    -0.01  -0.51  -0.01
   2   6     0.01   0.37   0.01    -0.08   0.01  -0.82     0.01   0.76   0.01
   3   6     0.60  -0.25   0.04    -0.08   0.03   0.20    -0.24  -0.12   0.11
   4   6    -0.61  -0.23  -0.05    -0.08  -0.03   0.20     0.24  -0.13  -0.11
                      4                      5                      6
                        a                      a                      a 
 Frequencies --   826.6691              1485.6544              1818.4590
 Red. masses --    12.0107                12.0107                12.0107
 Frc consts  --     0.0000                 0.0000                 0.0000
 IR Inten    --     0.0963                 0.9808                 1.0200
 Raman Activ --     0.0000                 0.0000                 0.0000
 Depolar     --     0.0000                 0.0000                 0.0000
 Atom AN      X      Y      Z        X      Y      Z        X      Y      Z
   1   6    -0.47   0.01   0.04    -0.62   0.01   0.14     0.30  -0.00  -0.06
   2   6    -0.50   0.01  -0.13     0.52  -0.01  -0.19    -0.47   0.01   0.05
   3   6     0.49   0.14   0.05     0.04  -0.38   0.02     0.08  -0.58   0.00
   4   6     0.48  -0.16   0.05     0.06   0.38   0.03     0.10   0.57   0.01
