      -----------------------------------------------------------      
     |                   =====================                   |     
     |                           x T B                           |     
     |                   =====================                   |     
     |                         S. Grimme                         |     
     |          Mulliken Center for Theoretical Chemistry        |     
     |                    University of Bonn                     |     
      -----------------------------------------------------------      

   * xtb version 6.2.2 (9d81278992624c895f80dd42a50cac0aa55982e2) compiled by '@Darwin' on 04/03/2020

   xtb is free software: you can redistribute it and/or modify it under
   the terms of the GNU Lesser General Public License as published by
   the Free Software Foundation, either version 3 of the License, or
   (at your option) any later version.
   
   xtb is distributed in the hope that it will be useful,
   but WITHOUT ANY WARRANTY; without even the implied warranty of
   MERCHANTABILITY or FITNESS FOR A PARTICULAR PURPOSE.  See the
   GNU Lesser General Public License for more details.
   
   Cite this work as:
   * S. Grimme, C. Bannwarth, P. Shushkov, J. Chem. Theory Comput., 2017,
     13, 1989-2009. DOI: 10.1021/acs.jctc.7b00118
   * C. Bannwarth, S. Ehlert and S. Grimme., J. Chem. Theory Comput., 2019,
     15, 1652-1671. DOI: 10.1021/acs.jctc.8b01176
   * P. Pracht, E. Caldeweyher, S. Ehlert, S. Grimme, ChemRxiv, 2019, preprint.
     DOI: 10.26434/chemrxiv.8326202.v1
   
   for DFT-D4:
   * E. Caldeweyher, C. Bannwarth and S. Grimme, J. Chem. Phys., 2017,
     147, 034112. DOI: 10.1063/1.4993215
   * E. Caldeweyher, S. Ehlert, A. Hansen, H. Neugebauer, S. Spicher,
     C. Bannwarth and S. Grimme, J. Chem. Phys., 2019, 150, 154122.
     DOI: 10.1063/1.5090222
   
   for sTDA-xTB:
   * S. Grimme and C. Bannwarth, J. Chem. Phys., 2016, 145, 054103.
     DOI: 10.1063/1.4959605
   
   in the mass-spec context:
   * V. Asgeirsson, C. Bauer and S. Grimme, Chem. Sci., 2017, 8, 4879.
     DOI: 10.1039/c7sc00601b
   
   for metadynamics refer to:
   * S. Grimme, J. Chem. Theory Comput., 2019, 155, 2847-2862
     DOI: 10.1021/acs.jctc.9b00143
   
   with help from (in alphabetical order)
   C. Bannwarth, F. Bohle, G. Brandenburg, E. Caldeweyher, M. Checinski,
   S. Dohm, S. Ehlert, S. Ehrlich, F. März, H. Neugebauer, J. Pisarek,
   P. Pracht, P. Shushkov, and S. Spicher.
   
 * started run on 2020/05/12 at 14:38:40.055     

           -------------------------------------------------
          |                Calculation Setup                |
           -------------------------------------------------

          program call               : xtb --input C4_2_S_2.input C4_2_S_2.xyz --ohess --molden --namespace C4_2_S_2 output.out
          calculation namespace      : C4_2_S_2
          coordinate file            : C4_2_S_2.xyz
          number of atoms            :                     4
          number of electrons        :                    16
          charge                     :                     0
          spin                       :                   1.0
          first test random number   :      0.30675541551849

   ID    Z sym.   atoms
    1    6 C      1-4

           -------------------------------------------------
          |                 G F N 2 - x T B                 |
           -------------------------------------------------

        Reference                      10.1021/acs.jctc.8b01176
      * Hamiltonian:
        H0-scaling (s, p, d)           1.850000    2.230000    2.230000
        zeta-weighting                 0.500000
      * Dispersion:
        s8                             2.700000
        a1                             0.520000
        a2                             5.000000
        s9                             5.000000
      * Repulsion:
        kExp                           1.500000    1.000000
        rExp                           1.000000
      * Coulomb:
        alpha                          2.000000
        third order                    shell-resolved
        anisotropic                    true
        a3                             3.000000
        a5                             4.000000
        cn-shift                       1.200000
        cn-exp                         4.000000
        max-rad                        5.000000

q/qsh data taken from xtbrestart
CAMM data taken from xtbrestart

          ...................................................
          :                      SETUP                      :
          :.................................................:
          :  # basis functions                  16          :
          :  # atomic orbitals                  16          :
          :  # shells                            8          :
          :  # electrons                        16          :
          :  max. iterations                   250          :
          :  Hamiltonian                  GFN2-xTB          :
          :  restarted?                       true          :
          :  GBSA solvation                  false          :
          :  PC potential                    false          :
          :  electronic temp.          300.0000000     K    :
          :  accuracy                    1.0000000          :
          :  -> integral cutoff          0.2500000E+02      :
          :  -> integral neglect         0.1000000E-07      :
          :  -> SCF convergence          0.1000000E-05 Eh   :
          :  -> wf. convergence          0.1000000E-03 e    :
          :  Broyden damping             0.4000000          :
          ...................................................

 iter      E             dE          RMSdq      gap      omega  full diag
   1     -7.9708459 -0.797085E+01  0.731E+00    0.60       0.0  T
   2     -6.5848327  0.138601E+01  0.152E+01    0.49       1.0  T
   3     -7.9463330 -0.136150E+01  0.529E+00    0.59       1.0  T
   4     -8.0644485 -0.118116E+00  0.173E+00    0.44       1.0  T
   5     -8.0706202 -0.617167E-02  0.125E+00    0.48       1.0  T
   6     -8.0684511  0.216913E-02  0.141E+00    0.49       1.0  T
   7     -8.0686419 -0.190802E-03  0.144E+00    0.49       1.0  T
   8     -8.0767463 -0.810441E-02  0.883E-02    0.44       1.0  T
   9     -8.0767597 -0.134205E-04  0.538E-02    0.44       1.0  T
  10     -8.0767710 -0.113017E-04  0.663E-03    0.44       7.5  T
  11     -8.0767711 -0.801755E-07  0.314E-03    0.44      15.9  T
  12     -8.0767711 -0.206951E-07  0.421E-04    0.44     118.9  T
  13     -8.0767711 -0.799254E-10  0.376E-04    0.44     133.0  T

   *** convergence criteria satisfied after 13 iterations ***

         #    Occupation            Energy/Eh            Energy/eV
      -------------------------------------------------------------
         1        2.0000           -0.7232365             -19.6803
       ...           ...                  ...                  ...
         3        2.0000           -0.5910938             -16.0845
         4        2.0000           -0.5674248             -15.4404
         5        2.0000           -0.5154636             -14.0265
         6        2.0000           -0.4899179             -13.3313
         7        2.0000           -0.4735743             -12.8866
         8        1.0000           -0.4535015             -12.3404
         9        0.9998           -0.4024482             -10.9512 (HOMO)
        10        0.0002           -0.3864192             -10.5150 (LUMO)
        11                         -0.3584156              -9.7530
        12                         -0.3342275              -9.0948
        13                         -0.1274964              -3.4694
        14                          0.0801427               2.1808
       ...                                ...                  ...
        16                          0.1271876               3.4609
      -------------------------------------------------------------
                  HL-Gap            0.0160290 Eh            0.4362 eV
             Fermi-level           -0.4289858 Eh          -11.6733 eV

 transition dipole moment (au) for excitation:           8           9
     X       Y       Z   
  -0.0221  -0.0008   0.1304  total (au/Debye):    0.132   0.336
 dE (eV)             :    1.389
 oscillator strength :  0.84181E-03

 SCC (total)                   0 d,  0 h,  0 min,  0.003 sec
 SCC setup                      ...        0 min,  0.000 sec (  2.020%)
 Dispersion                     ...        0 min,  0.000 sec (  0.389%)
 integral evaluation            ...        0 min,  0.001 sec ( 24.267%)
 zeroth order Hamiltonian       ...        0 min,  0.000 sec (  0.360%)
 iterations                     ...        0 min,  0.001 sec ( 30.463%)
 molecular gradient             ...        0 min,  0.001 sec ( 23.349%)
 printout                       ...        0 min,  0.001 sec ( 18.905%)

         :::::::::::::::::::::::::::::::::::::::::::::::::::::
         ::                     SUMMARY                     ::
         :::::::::::::::::::::::::::::::::::::::::::::::::::::
         :: total energy              -8.017003176780 Eh    ::
         :: gradient norm              0.271876471887 Eh/a0 ::
         :: HOMO-LUMO gap              0.436172506139 eV    ::
         ::.................................................::
         :: SCC energy                -8.076771095513 Eh    ::
         :: -> isotropic ES           -0.023421127082 Eh    ::
         :: -> anisotropic ES         -0.000379844301 Eh    ::
         :: -> anisotropic XC          0.005561600605 Eh    ::
         :: -> dispersion             -0.001902753650 Eh    ::
         :: repulsion energy           0.059767897430 Eh    ::
         :: add. restraining           0.000000000000 Eh    ::
         :::::::::::::::::::::::::::::::::::::::::::::::::::::

      ----------------------------------------------------------- 
     |                   =====================                   |
     |                        A N C O P T                        |
     |                   =====================                   |
     |               Approximate Normal Coordinate               |
     |                Rational Function Optimizer                |
      ----------------------------------------------------------- 

          ...................................................
          :                      SETUP                      :
          :.................................................:
          :   optimization level            normal          :
          :   max. optcycles                   200          :
          :   ANC micro-cycles                  20          :
          :   degrees of freedom                 6          :
          :.................................................:
          :   RF solver                   davidson          :
          :   write xtbopt.log                true          :
          :   linear?                        false          :
          :   energy convergence         0.5000000E-05 Eh   :
          :   grad. convergence          0.1000000E-02 Eh/α :
          :   maximium RF displ.         1.0000000          :
          :   Hlow (freq-cutoff)         0.1000000E-01      :
          :   Hmax (freq-cutoff)         5.0000000          :
          :   S6 in model hess.         20.0000000          :
          ...................................................

generating ANC from model Hessian ...
Using Lindh-Hessian (1995)
 Shifting diagonal of input Hessian by    0.0000000000000000     
 Lowest  eigenvalues of input Hessian
   -0.000000   -0.000000   -0.000000   -0.000000    0.000000    0.000000
    0.051296    0.097440    0.631833    0.692829    0.854024    1.274580
 Highest eigenvalues
    0.051296    0.097440    0.631833    0.692829    0.854024    1.274580


........................................................................
.............................. CYCLE    1 ..............................
........................................................................
   1     -8.0767711 -0.807677E+01  0.314E-05    0.44       0.0  T
   2     -8.0767711  0.224603E-10  0.578E-05    0.44     864.7  T
   3     -8.0767711 -0.210960E-10  0.257E-05    0.44    1948.9  T
     SCC iter.                  ...        0 min,  0.000 sec
     gradient                   ...        0 min,  0.001 sec
 * total energy  :    -8.0170032 Eh     change       -0.1450992E-08 Eh
   gradient norm :     0.2718757 Eh/α   predicted     0.0000000E+00 (-100.00%)
   displ. norm   :     0.3944221 α      lambda       -0.8906858E-01
   maximum displ.:     0.2766962 α      in ANC's #2, #5, #3, ...

........................................................................
.............................. CYCLE    2 ..............................
........................................................................
   1     -8.1820992 -0.818210E+01  0.312E+00    1.54       0.0  T
   2     -8.0934451  0.886540E-01  0.393E+00    1.69       1.0  T
   3     -8.1770021 -0.835569E-01  0.216E+00    1.54       1.0  T
   4     -8.1963030 -0.193009E-01  0.289E-01    1.56       1.0  T
   5     -8.1964913 -0.188323E-03  0.176E-01    1.56       1.0  T
   6     -8.1964809  0.104076E-04  0.121E-01    1.56       1.0  T
   7     -8.1964964 -0.155268E-04  0.205E-02    1.56       2.4  T
   8     -8.1964975 -0.107835E-05  0.152E-02    1.56       3.3  T
   9     -8.1964984 -0.953261E-06  0.114E-03    1.56      43.9  T
  10     -8.1964984 -0.247953E-09  0.261E-04    1.56     191.9  T
  11     -8.1964984 -0.329727E-10  0.957E-05    1.56     522.5  T
     SCC iter.                  ...        0 min,  0.001 sec
     gradient                   ...        0 min,  0.001 sec
 * total energy  :    -8.0913139 Eh     change       -0.7431068E-01 Eh
   gradient norm :     0.1740239 Eh/α   predicted    -0.5146244E-01 ( -30.75%)
   displ. norm   :     0.4517845 α      lambda       -0.7552972E-01
   maximum displ.:     0.4058391 α      in ANC's #5, #2, #6, ...

........................................................................
.............................. CYCLE    3 ..............................
........................................................................
   1     -8.3754805 -0.837548E+01  0.451E+00    2.92       0.0  T
   2     -8.3637065  0.117740E-01  0.312E+00    3.17       1.0  T
   3     -8.3024392  0.612674E-01  0.379E+00    2.39       1.0  T
   4     -8.3782086 -0.757694E-01  0.794E-01    3.03       1.0  T
   5     -8.3813651 -0.315647E-02  0.309E-01    2.86       1.0  T
   6     -8.3814036 -0.385338E-04  0.185E-01    2.85       1.0  T
   7     -8.3814249 -0.213223E-04  0.200E-02    2.84       2.5  T
   8     -8.3814251 -0.231727E-06  0.988E-03    2.84       5.1  T
   9     -8.3814253 -0.154797E-06  0.501E-03    2.84      10.0  T
  10     -8.3814254 -0.821435E-07  0.483E-04    2.84     103.5  T
  11     -8.3814254 -0.310965E-09  0.160E-04    2.84     313.3  T
     SCC iter.                  ...        0 min,  0.001 sec
     gradient                   ...        0 min,  0.001 sec
 * total energy  :    -8.0930303 Eh     change       -0.1716458E-02 Eh
   gradient norm :     0.3176777 Eh/α   predicted    -0.4547301E-01 (2549.24%)
   displ. norm   :     0.3060700 α      lambda       -0.7875519E-01
   maximum displ.:     0.2403414 α      in ANC's #2, #5, #6, ...

........................................................................
.............................. CYCLE    4 ..............................
........................................................................
   1     -8.2691954 -0.826920E+01  0.253E+00    2.25       0.0  T
   2     -8.2699180 -0.722626E-03  0.158E+00    2.42       1.0  T
   3     -8.2677869  0.213114E-02  0.112E+00    2.26       1.0  T
   4     -8.2712119 -0.342508E-02  0.163E-01    2.41       1.0  T
   5     -8.2710422  0.169726E-03  0.183E-01    2.36       1.0  T
   6     -8.2712298 -0.187576E-03  0.678E-02    2.41       1.0  T
   7     -8.2712577 -0.278721E-04  0.469E-03    2.40      10.7  T
   8     -8.2712577 -0.190124E-07  0.813E-04    2.40      61.5  T
   9     -8.2712577  0.832069E-09  0.508E-04    2.40      98.3  T
     SCC iter.                  ...        0 min,  0.001 sec
     gradient                   ...        0 min,  0.001 sec
 * total energy  :    -8.1200923 Eh     change       -0.2706199E-01 Eh
   gradient norm :     0.0633339 Eh/α   predicted    -0.4306644E-01 (  59.14%)
   displ. norm   :     0.0648423 α      lambda       -0.3564434E-02
   maximum displ.:     0.0563274 α      in ANC's #3, #5, #2, ...

........................................................................
.............................. CYCLE    5 ..............................
........................................................................
   1     -8.2810874 -0.828109E+01  0.397E-01    2.49       0.0  T
   2     -8.2799745  0.111295E-02  0.458E-01    2.60       1.0  T
   3     -8.2809960 -0.102147E-02  0.285E-01    2.48       1.0  T
   4     -8.2813137 -0.317754E-03  0.364E-02    2.52       1.4  T
   5     -8.2813130  0.682536E-06  0.255E-02    2.51       2.0  T
   6     -8.2813152 -0.215043E-05  0.304E-03    2.52      16.4  T
   7     -8.2813152  0.456525E-08  0.156E-03    2.52      32.1  T
   8     -8.2813152 -0.128524E-07  0.627E-04    2.52      79.8  T
   9     -8.2813152 -0.745244E-09  0.314E-05    2.52    1594.4  T
     SCC iter.                  ...        0 min,  0.001 sec
     gradient                   ...        0 min,  0.001 sec
 * total energy  :    -8.1224794 Eh     change       -0.2387044E-02 Eh
   gradient norm :     0.0334294 Eh/α   predicted    -0.1789711E-02 ( -25.02%)
   displ. norm   :     0.1237203 α      lambda       -0.2494104E-02
   maximum displ.:     0.0928356 α      in ANC's #2, #5, #3, ...

........................................................................
.............................. CYCLE    6 ..............................
........................................................................
   1     -8.2970784 -0.829708E+01  0.538E-01    2.54       0.0  T
   2     -8.2960225  0.105589E-02  0.508E-01    2.64       1.0  T
   3     -8.2963037 -0.281174E-03  0.444E-01    2.50       1.0  T
   4     -8.2972825 -0.978833E-03  0.499E-02    2.57       1.0  T
   5     -8.2972898 -0.729624E-05  0.231E-02    2.56       2.2  T
   6     -8.2972902 -0.421593E-06  0.765E-03    2.56       6.5  T
   7     -8.2972903 -0.639361E-07  0.164E-03    2.56      30.5  T
   8     -8.2972902  0.215315E-07  0.193E-03    2.56      25.9  T
   9     -8.2972903 -0.228020E-07  0.105E-04    2.56     477.8  T
  10     -8.2972903 -0.269704E-10  0.252E-05    2.56    1987.7  T
     SCC iter.                  ...        0 min,  0.001 sec
     gradient                   ...        0 min,  0.001 sec
 * total energy  :    -8.1237811 Eh     change       -0.1301772E-02 Eh
   gradient norm :     0.0203060 Eh/α   predicted    -0.1266138E-02 (  -2.74%)
   displ. norm   :     0.0394740 α      lambda       -0.5380976E-03
   maximum displ.:     0.0346511 α      in ANC's #3, #6, #2, ...

........................................................................
.............................. CYCLE    7 ..............................
........................................................................
   1     -8.2967250 -0.829672E+01  0.324E-01    2.54       0.0  T
   2     -8.2963661  0.358835E-03  0.300E-01    2.61       1.0  T
   3     -8.2964203 -0.541497E-04  0.270E-01    2.52       1.0  T
   4     -8.2967953 -0.374991E-03  0.124E-02    2.57       4.0  T
   5     -8.2967953 -0.319236E-07  0.780E-03    2.57       6.4  T
   6     -8.2967953  0.513644E-08  0.310E-03    2.57      16.2  T
   7     -8.2967954 -0.461270E-07  0.624E-04    2.57      80.2  T
   8     -8.2967954  0.310339E-08  0.823E-04    2.57      60.8  T
     SCC iter.                  ...        0 min,  0.000 sec
     gradient                   ...        0 min,  0.001 sec
 * total energy  :    -8.1242005 Eh     change       -0.4193457E-03 Eh
   gradient norm :     0.0162688 Eh/α   predicted    -0.2694674E-03 ( -35.74%)
   displ. norm   :     0.0815137 α      lambda       -0.6611538E-03
   maximum displ.:     0.0556441 α      in ANC's #3, #2, #6, ...

........................................................................
.............................. CYCLE    8 ..............................
........................................................................
   1     -8.2913772 -0.829138E+01  0.705E-01    2.51       0.0  T
   2     -8.2905503  0.826818E-03  0.543E-01    2.62       1.0  T
   3     -8.2888415  0.170885E-02  0.684E-01    2.42       1.0  T
   4     -8.2915591 -0.271763E-02  0.585E-02    2.55       1.0  T
   5     -8.2915632 -0.405349E-05  0.340E-02    2.55       1.5  T
   6     -8.2915629  0.244054E-06  0.158E-02    2.55       3.2  T
   7     -8.2915637 -0.753229E-06  0.200E-03    2.55      25.0  T
   8     -8.2915637  0.450257E-08  0.191E-03    2.55      26.2  T
   9     -8.2915637 -0.152546E-07  0.181E-04    2.55     275.7  T
  10     -8.2915637 -0.460059E-10  0.796E-05    2.55     627.9  T
     SCC iter.                  ...        0 min,  0.001 sec
     gradient                   ...        0 min,  0.001 sec
 * total energy  :    -8.1245718 Eh     change       -0.3713617E-03 Eh
   gradient norm :     0.0020381 Eh/α   predicted    -0.3327720E-03 ( -10.39%)
   displ. norm   :     0.0177064 α      lambda       -0.2018382E-04
   maximum displ.:     0.0122771 α      in ANC's #2, #3, #6, ...

........................................................................
.............................. CYCLE    9 ..............................
........................................................................
   1     -8.2904751 -0.829048E+01  0.147E-01    2.54       0.0  T
   2     -8.2904497  0.254147E-04  0.105E-01    2.56       1.0  T
   3     -8.2903440  0.105665E-03  0.153E-01    2.52       1.0  T
   4     -8.2904810 -0.136970E-03  0.100E-02    2.55       5.0  T
   5     -8.2904813 -0.270232E-06  0.441E-03    2.55      11.3  T
   6     -8.2904813 -0.355689E-08  0.790E-04    2.55      63.3  T
   7     -8.2904813 -0.314877E-10  0.271E-04    2.55     184.7  T
     SCC iter.                  ...        0 min,  0.000 sec
     gradient                   ...        0 min,  0.001 sec
 * total energy  :    -8.1245837 Eh     change       -0.1189787E-04 Eh
   gradient norm :     0.0004191 Eh/α   predicted    -0.1009482E-04 ( -15.15%)
   displ. norm   :     0.0085141 α      lambda       -0.1396762E-05
   maximum displ.:     0.0059614 α      in ANC's #2, #3, #6, ...

........................................................................
.............................. CYCLE   10 ..............................
........................................................................
   1     -8.2902562 -0.829026E+01  0.603E-02    2.55       0.0  T
   2     -8.2902496  0.657132E-05  0.457E-02    2.56       1.1  T
   3     -8.2902385  0.111014E-04  0.596E-02    2.54       1.0  T
   4     -8.2902577 -0.191767E-04  0.356E-03    2.55      14.0  T
   5     -8.2902577 -0.428596E-07  0.140E-03    2.55      35.8  T
   6     -8.2902577  0.330244E-08  0.801E-04    2.55      62.4  T
   7     -8.2902577 -0.343252E-08  0.310E-04    2.55     161.1  T
     SCC iter.                  ...        0 min,  0.000 sec
     gradient                   ...        0 min,  0.001 sec
 * total energy  :    -8.1245846 Eh     change       -0.8312755E-06 Eh
   gradient norm :     0.0002656 Eh/α   predicted    -0.6999005E-06 ( -15.80%)
   displ. norm   :     0.0014546 α      lambda       -0.9699944E-07
   maximum displ.:     0.0010544 α      in ANC's #2, #3, #6, ...

   *** GEOMETRY OPTIMIZATION CONVERGED AFTER 10 ITERATIONS ***

------------------------------------------------------------------------
 total energy gain   :        -0.1075814 Eh      -67.5083 kcal/mol
 total RMSD          :         0.5593957 a0        0.2960 Å
 total power (kW/mol):       -28.2454889 (step)********** (real)
------------------------------------------------------------------------

 ANCopt (total)                0 d,  0 h,  0 min,  0.024 sec
 optimizer setup                ...        0 min,  0.000 sec (  0.302%)
 model hessian                  ...        0 min,  0.000 sec (  0.238%)
 ANC generation                 ...        0 min,  0.000 sec (  0.149%)
 coordinate transformation      ...        0 min,  0.000 sec (  0.076%)
 single point calculation       ...        0 min,  0.022 sec ( 95.367%)
 optimization log               ...        0 min,  0.000 sec (  1.643%)
 hessian update                 ...        0 min,  0.000 sec (  0.201%)
 rational function              ...        0 min,  0.000 sec (  0.856%)

================
 final structure:
================
4
 xtb: 6.2.2 (9d81278992624c895f80dd42a50cac0aa55982e2)
C         1.61057760619018   -0.02846571998958   -0.06195879658428
C         0.36056988417971   -0.00777215538677    0.13731834513495
C        -0.97387034338531    0.66761422005622   -0.03169360918020
C        -0.99727714698458   -0.63137734467986   -0.04366593937047

 Bond Distances (Angstroems)
 ---------------------------
C1-C2=1.2660         C2-C1=1.2660         C2-C3=1.5051         C2-C4=1.5051         C3-C2=1.5051         C3-C4=1.2993         
C4-C2=1.5051         C4-C3=1.2993         
 C  C  Rav=1.3939 sigma=0.1119  Rmin=1.2660  Rmax=1.5051     4

 selected bond angles (degree)
 --------------------
C3-C2-C1=149.89                C4-C2-C1=149.89                C4-C2-C3= 51.14                C4-C3-C2= 64.43                
C3-C4-C2= 64.43                

 selected dihedral angles (degree)
 ---------------------------------
C4-C3-C2-C1=145.60            C3-C4-C2-C1=214.40            
           -------------------------------------------------
          |                Final Singlepoint                |
           -------------------------------------------------

          ...................................................
          :                      SETUP                      :
          :.................................................:
          :  # basis functions                  16          :
          :  # atomic orbitals                  16          :
          :  # shells                            8          :
          :  # electrons                        16          :
          :  max. iterations                   250          :
          :  Hamiltonian                  GFN2-xTB          :
          :  restarted?                      false          :
          :  GBSA solvation                  false          :
          :  PC potential                    false          :
          :  electronic temp.          300.0000000     K    :
          :  accuracy                    1.0000000          :
          :  -> integral cutoff          0.2500000E+02      :
          :  -> integral neglect         0.1000000E-07      :
          :  -> SCF convergence          0.1000000E-05 Eh   :
          :  -> wf. convergence          0.1000000E-03 e    :
          :  Broyden damping             0.4000000          :
          ...................................................

 iter      E             dE          RMSdq      gap      omega  full diag
   1     -8.2902577 -0.829026E+01  0.885E-05    2.55       0.0  T
   2     -8.2902577  0.654055E-11  0.532E-05    2.55     940.7  T
   3     -8.2902577  0.368026E-10  0.965E-05    2.55     518.1  T

   *** convergence criteria satisfied after 3 iterations ***

         #    Occupation            Energy/Eh            Energy/eV
      -------------------------------------------------------------
         1        2.0000           -0.7225629             -19.6619
       ...           ...                  ...                  ...
         3        2.0000           -0.5756736             -15.6649
         4        2.0000           -0.5669074             -15.4263
         5        2.0000           -0.5397664             -14.6878
         6        2.0000           -0.4674928             -12.7211
         7        2.0000           -0.4558670             -12.4048
         8        1.0000           -0.4338611             -11.8060
         9        1.0000           -0.4228558             -11.5065 (HOMO)
        10                         -0.3290879              -8.9549 (LUMO)
        11                         -0.2786774              -7.5832
        12                         -0.2294985              -6.2450
        13                         -0.0358277              -0.9749
        14                          0.0599365               1.6310
       ...                                ...                  ...
        16                          0.8007941              21.7907
      -------------------------------------------------------------
                  HL-Gap            0.0937679 Eh            2.5516 eV
             Fermi-level           -0.4104179 Eh          -11.1680 eV

 transition dipole moment (au) for excitation:           8           9
     X       Y       Z   
   0.3295  -0.0047  -0.1292  total (au/Debye):    0.354   0.900
 dE (eV)             :    0.299
 oscillator strength :  0.13002E-02

 SCC (total)                   0 d,  0 h,  0 min,  0.004 sec
 SCC setup                      ...        0 min,  0.000 sec (  1.396%)
 Dispersion                     ...        0 min,  0.000 sec (  0.269%)
 integral evaluation            ...        0 min,  0.001 sec ( 33.611%)
 zeroth order Hamiltonian       ...        0 min,  0.000 sec (  0.724%)
 iterations                     ...        0 min,  0.001 sec ( 16.687%)
 molecular gradient             ...        0 min,  0.001 sec ( 30.120%)
 printout                       ...        0 min,  0.001 sec ( 16.982%)

         :::::::::::::::::::::::::::::::::::::::::::::::::::::
         ::                     SUMMARY                     ::
         :::::::::::::::::::::::::::::::::::::::::::::::::::::
         :: total energy              -8.124584562956 Eh    ::
         :: gradient norm              0.000273721859 Eh/a0 ::
         :: HOMO-LUMO gap              2.551553672748 eV    ::
         ::.................................................::
         :: SCC energy                -8.290257719485 Eh    ::
         :: -> isotropic ES           -0.011028678779 Eh    ::
         :: -> anisotropic ES          0.000068713812 Eh    ::
         :: -> anisotropic XC          0.007167439531 Eh    ::
         :: -> dispersion             -0.001890052473 Eh    ::
         :: repulsion energy           0.165673149459 Eh    ::
         :: add. restraining           0.000000000000 Eh    ::
         :::::::::::::::::::::::::::::::::::::::::::::::::::::

           ------------------------------------------------- 
          |                Numerical Hessian                |
           ------------------------------------------------- 
step length          :   0.00500
SCC accuracy         :   0.30000
Hessian scale factor :   1.00000
frozen atoms in %    :   0.00000    0
RMS gradient         :   0.00027
estimated CPU  time      0.00 min
estimated wall time      0.00 min

writing file <hessian>.

 projected vibrational frequencies (cm-1)
eigval :       -0.00     0.00     0.00     0.00     0.00     0.00
eigval :      230.98   267.11   309.69   826.67  1485.65  1818.46
           -------------------------------------------------
          |                Property Printout                |
           -------------------------------------------------

    * Orbital Energies and Occupations

         #    Occupation            Energy/Eh            Energy/eV
      -------------------------------------------------------------
         1        2.0000           -0.7225626             -19.6619
         2        2.0000           -0.6725215             -18.3002
         3        2.0000           -0.5756733             -15.6649
         4        2.0000           -0.5669072             -15.4263
         5        2.0000           -0.5397662             -14.6878
         6        2.0000           -0.4674929             -12.7211
         7        2.0000           -0.4558676             -12.4048
         8        1.0000           -0.4338614             -11.8060
         9        1.0000           -0.4228553             -11.5065 (HOMO)
        10                         -0.3290883              -8.9549 (LUMO)
        11                         -0.2786769              -7.5832
        12                         -0.2294989              -6.2450
        13                         -0.0358275              -0.9749
        14                          0.0599365               1.6310
        15                          0.5526683              15.0389
        16                          0.8007937              21.7907
      -------------------------------------------------------------
                  HL-Gap            0.0937670 Eh            2.5515 eV
             Fermi-level           -0.4104181 Eh          -11.1680 eV

     #   Z        covCN         q      C6AA      α(0)
Molecule has the following symmetry elements: (sigma) 
It seems to be the Cs point group
     1   6 C      0.981    -0.116    39.622    10.573
     2   6 C      2.934     0.121    25.348     8.257
     3   6 C      1.958    -0.003    31.144     9.012
     4   6 C      1.958    -0.003    31.144     9.012

 Mol. C6AA /au·bohr⁶  :        505.727118
 Mol. C8AA /au·bohr⁸  :      14626.507077
 Mol. α(0) /au        :         36.854160


Wiberg/Mayer (AO) data.
largest (>0.10) Wiberg bond orders for each atom
          total WBO             WBO to atom ...
     1  C   2.448        C    2 2.069    C    3 0.189    C    4 0.189
     2  C   3.742        C    1 2.069    C    4 0.836    C    3 0.836
     3  C   2.842        C    4 1.817    C    2 0.836    C    1 0.189
     4  C   2.842        C    3 1.817    C    2 0.836    C    1 0.189

MOs/occ written to file <molden.input>


molecular dipole:
                 x           y           z       tot (Debye)
 q only:       -0.260       0.004       0.045
   full:       -0.455       0.006       0.198       1.260
molecular quadrupole (traceless):
                xx          xy          yy          xz          yz          zz
 q only:       -1.031       0.027       0.505       0.093      -0.002       0.527
  q+dip:       -2.702       0.077       1.812       0.514      -0.001       0.889
   full:       -4.247       0.093       1.335       0.801      -0.029       2.912

           -------------------------------------------------
          |                Geometry Summary                 |
           -------------------------------------------------

      molecular mass/u    :       48.0429436
   center of mass at/Å    :       -0.0000000      -0.0000002       0.0000000
  moments of inertia/u·Å² :        0.1044271E+02   0.5637532E+02   0.6620758E+02
rotational constants/cm⁻¹ :        0.1614297E+01   0.2990250E+00   0.2546179E+00

 * 2 selected distances

     #   Z        #   Z                                     value/Å
     1   6 C      2   6 C                                 1.2659617 (min)
     3   6 C      4   6 C                                 1.2992576 (max)

 * 1 distinct bonds (by element types)

   Z      Z             #   av. dist./Å        max./Å        min./Å
   6 C    6 C           2     1.2826096     1.2992576     1.2659617

           -------------------------------------------------
          |               Frequency Printout                |
           -------------------------------------------------
 projected vibrational frequencies (cm-1)
eigval :       -0.00     0.00     0.00     0.00     0.00     0.00
eigval :      230.98   267.11   309.69   826.67  1485.65  1818.46
 reduced masses (amu)
   1: 12.01   2: 12.01   3: 12.01   4: 12.01   5: 12.01   6: 12.01   7: 12.01   8: 12.01
   9: 12.01  10: 12.01  11: 12.01  12: 12.01
 IR intensities (amu)
   1:  0.06   2:  0.08   3:  0.08   4:  0.07   5:  0.09   6:  0.11   7:  0.95   8:  0.82
   9:  0.45  10:  0.10  11:  0.98  12:  1.02
 Raman intensities (amu)
   1:  0.00   2:  0.00   3:  0.00   4:  0.00   5:  0.00   6:  0.00   7:  0.00   8:  0.00
   9:  0.00  10:  0.00  11:  0.00  12:  0.00
 output can be read by thermo (or use thermo option).
 writing <g98.out> molden fake output.
 recommended (thermochemical) frequency scaling factor: 1.0
           -------------------------------------------------
          |             Thermodynamic Functions             |
           -------------------------------------------------

cs  symmetry found (for desy threshold:  0.10E+00) used in thermo

          ...................................................
          :                      SETUP                      :
          :.................................................:
          :  # frequencies                           6      :
          :  # imaginary freq.                       0      :
          :  linear?                             false      :
          :  only rotor calc.                    false      :
          :  symmetry                               cs      :
          :  rotational number                       1      :
          :  scaling factor                  1.0000000      :
          :  rotor cutoff                   50.0000000 cm⁻¹ :
          :  imag. cutoff                  -20.0000000 cm⁻¹ :
          :.................................................:

    mode    ω/cm⁻¹     T·S(HO)/kcal·mol⁻¹    T·S(FR)/kcal·mol⁻¹   T·S(vib)
   ------------------------------------------------------------------------
       1    230.98    -0.00000 ( 99.78%)     0.01352 (  0.22%)     0.00003
       2    267.11    -0.00000 ( 99.88%)     0.01496 (  0.12%)     0.00002
   ------------------------------------------------------------------------

   temp. (K)  partition function   enthalpy   heat capacity  entropy
                                   cal/mol     cal/K/mol   cal/K/mol   J/K/mol
 298.15  VIB   2.70                  917.689      5.893      5.053
         ROT  0.151E+05              888.752      2.981     22.101
         INT  0.407E+05             1806.441      8.874     27.154
         TR   0.322E+27             1481.254      4.968     37.516
         TOT                        3287.6950    13.8418    64.6699   270.5790

   temp. (K)  partition function   enthalpy   heat capacity  entropy
                                   cal/mol     cal/K/mol   cal/K/mol   J/K/mol
 120.00  VIB   1.14                   98.807      2.700      1.086
         ROT  0.385E+04              357.707      2.981     19.388
         INT  0.439E+04              456.514      5.681     20.474
         TR   0.823E+26              596.178      4.968     32.997
         TOT                        1052.6920    10.6493    53.4706   223.7211

   temp. (K)  partition function   enthalpy   heat capacity  entropy
                                   cal/mol     cal/K/mol   cal/K/mol   J/K/mol
 100.00  VIB   1.07                   51.828      1.979      0.660
         ROT  0.293E+04              298.089      2.981     18.844
         INT  0.314E+04              349.917      4.960     19.504
         TR   0.626E+26              496.815      4.968     32.091
         TOT                         846.7316     9.9277    51.5954   215.8751

   temp. (K)  partition function   enthalpy   heat capacity  entropy
                                   cal/mol     cal/K/mol   cal/K/mol   J/K/mol
  80.00  VIB   1.03                   20.235      1.175      0.310
         ROT  0.210E+04              238.471      2.981     18.179
         INT  0.216E+04              258.706      4.156     18.490
         TR   0.448E+26              397.452      4.968     30.983
         TOT                         656.1580     9.1239    49.4726   206.9935

   temp. (K)  partition function   enthalpy   heat capacity  entropy
                                   cal/mol     cal/K/mol   cal/K/mol   J/K/mol
  60.00  VIB   1.01                    4.398      0.442      0.087
         ROT  0.136E+04              178.853      2.981     17.322
         INT  0.137E+04              183.252      3.423     17.408
         TR   0.291E+26              298.089      4.968     29.555
         TOT                         481.3408     8.3911    46.9630   196.4932

   temp. (K)  partition function   enthalpy   heat capacity  entropy
                                   cal/mol     cal/K/mol   cal/K/mol   J/K/mol
  40.00  VIB   1.00                    0.227      0.050      0.006
         ROT   741.                  119.236      2.981     16.113
         INT   741.                  119.463      3.031     16.119
         TR   0.158E+26              198.726      4.968     27.541
         TOT                         318.1886     7.9988    43.6601   182.6740

   temp. (K)  partition function   enthalpy   heat capacity  entropy
                                   cal/mol     cal/K/mol   cal/K/mol   J/K/mol
  20.00  VIB   1.00                    0.000      0.000     -0.003
         ROT   262.                   59.618      2.981     14.047
         INT   262.                   59.618      2.981     14.044
         TR   0.560E+25               99.363      4.968     24.099
         TOT                         158.9808     7.9491    38.1428   159.5896

   temp. (K)  partition function   enthalpy   heat capacity  entropy
                                   cal/mol     cal/K/mol   cal/K/mol   J/K/mol
  10.00  VIB   1.00                    0.000      0.000     -0.006
         ROT   92.6                   29.809      2.981     11.981
         INT   92.6                   29.809      2.981     11.975
         TR   0.198E+25               49.681      4.968     20.657
         TOT                          79.4904     7.9490    32.6318   136.5315

       T/K    H(0)-H(T)+PV         H(T)/Eh          T*S/Eh         G(T)/Eh
   ------------------------------------------------------------------------
    298.15    0.523928E-02    0.164902E-01    0.307268E-01   -0.142366E-01
    120.00    0.167757E-02    0.129285E-01    0.102253E-01    0.270315E-02
    100.00    0.134935E-02    0.126002E-01    0.822225E-02    0.437799E-02
     80.00    0.104565E-02    0.122965E-01    0.630717E-02    0.598936E-02
     60.00    0.767065E-03    0.120179E-01    0.449042E-02    0.752753E-02
     40.00    0.507066E-03    0.117579E-01    0.278307E-02    0.897487E-02
     20.00    0.253352E-03    0.115042E-01    0.121569E-02    0.102885E-01
     10.00    0.126676E-03    0.113776E-01    0.520021E-03    0.108575E-01 (used)
   ------------------------------------------------------------------------

         :::::::::::::::::::::::::::::::::::::::::::::::::::::
         ::                  THERMODYNAMIC                  ::
         :::::::::::::::::::::::::::::::::::::::::::::::::::::
         :: total free energy          -8.113727024353 Eh   ::
         ::.................................................::
         :: total energy               -8.124584562269 Eh   ::
         :: zero point energy           0.011250882928 Eh   ::
         :: G(RRHO) w/o ZPVE           -0.000393345012 Eh   ::
         :: G(RRHO) contrib.            0.010857537916 Eh   ::
         :::::::::::::::::::::::::::::::::::::::::::::::::::::

optimized geometry written to: xtbopt.xyz


           -------------------------------------------------
          | TOTAL ENERGY               -8.124584562269 Eh   |
          | TOTAL ENTHALPY             -8.113207003326 Eh   |
          | TOTAL FREE ENERGY          -8.113727024353 Eh   |
          | GRADIENT NORM               0.000273359946 Eh/α |
          | HOMO-LUMO GAP               2.551530263150 eV   |
           -------------------------------------------------

------------------------------------------------------------------------
 * finished run on 2020/05/12 at 14:38:40.159     
------------------------------------------------------------------------
 total:
 * wall-time:     0 d,  0 h,  0 min,  0.102 sec
 *  cpu-time:     0 d,  0 h,  0 min,  0.101 sec
 * ratio c/w:     0.988 speedup
 SCF:
 * wall-time:     0 d,  0 h,  0 min,  0.003 sec
 *  cpu-time:     0 d,  0 h,  0 min,  0.003 sec
 * ratio c/w:     1.000 speedup
 ANC optimizer:
 * wall-time:     0 d,  0 h,  0 min,  0.028 sec
 *  cpu-time:     0 d,  0 h,  0 min,  0.028 sec
 * ratio c/w:     0.995 speedup
 numerical hessian:
 * wall-time:     0 d,  0 h,  0 min,  0.055 sec
 *  cpu-time:     0 d,  0 h,  0 min,  0.054 sec
 * ratio c/w:     0.994 speedup

