4
 energy: -8.017003178231 gnorm: 0.271875695840 xtb: 6.2.2 (9d81278992624c895f80dd42a50cac0aa55982e2)
C         1.48067000000000   -0.02396400000000   -0.29500800000000
C         0.24068900000000   -0.00964100000000    0.57353200000000
C        -0.84704000000000    0.77306100000000   -0.13229100000000
C        -0.87431900000000   -0.73945700000000   -0.14623300000000
4
 energy: -8.091313861070 gnorm: 0.174090510853 xtb: 6.2.2 (9d81278992624c895f80dd42a50cac0aa55982e2)
C         1.50511395745591   -0.02516945628787   -0.21177575870295
C         0.30792562812886   -0.00959447792374    0.43665063931147
C        -0.89395533073033    0.71391400236960   -0.10602068758693
C        -0.91908425485444   -0.67915106815799   -0.11885419302159
4
 energy: -8.093030319025 gnorm: 0.319361781787 xtb: 6.2.2 (9d81278992624c895f80dd42a50cac0aa55982e2)
C         1.47125480447650   -0.02544363067285   -0.11714692364995
C         0.40679864899699   -0.01014655181200    0.30426088384682
C        -0.92813148914833    0.62235329045999   -0.08798402284502
C        -0.94992196432516   -0.58676410797514   -0.09912993735186
4
 energy: -8.120092309491 gnorm: 0.063520193803 xtb: 6.2.2 (9d81278992624c895f80dd42a50cac0aa55982e2)
C         1.59848613452214   -0.02767526003430   -0.12415473987649
C         0.36973832918138   -0.00922589649111    0.27718141471765
C        -0.97249453062159    0.66322492977982   -0.07056831484813
C        -0.99572993308193   -0.62632477325441   -0.08245835999304
4
 energy: -8.122479353516 gnorm: 0.033445711505 xtb: 6.2.2 (9d81278992624c895f80dd42a50cac0aa55982e2)
C         1.58645486912891   -0.02758598028160   -0.10995487207066
C         0.37461300820977   -0.00908295244729    0.25185084517438
C        -0.96880039654345    0.66935199746720   -0.06494737279786
C        -0.99226748079522   -0.63268406473830   -0.07694860030586
4
 energy: -8.123781125703 gnorm: 0.020780465515 xtb: 6.2.2 (9d81278992624c895f80dd42a50cac0aa55982e2)
C         1.59794781707083   -0.02803519826887   -0.08391722912969
C         0.38142809558795   -0.00871917475031    0.19928398495438
C        -0.97811043762789    0.66083142365934   -0.05176124382772
C        -1.00126547503089   -0.62407805064017   -0.06360551199696
4
 energy: -8.124200471379 gnorm: 0.016752095629 xtb: 6.2.2 (9d81278992624c895f80dd42a50cac0aa55982e2)
C         1.59704128841852   -0.02807027868491   -0.07844075228597
C         0.37455146222763   -0.00844703158070    0.18331948070896
C        -0.97416558330214    0.66371068610265   -0.04648923339321
C        -0.99742716734401   -0.62719437583704   -0.05838949502977
4
 energy: -8.124571833117 gnorm: 0.002106170319 xtb: 6.2.2 (9d81278992624c895f80dd42a50cac0aa55982e2)
C         1.60725100603565   -0.02838055781293   -0.06639305431111
C         0.36288530421971   -0.00790546259418    0.14871348394185
C        -0.97339273997325    0.66688610827132   -0.03517287055708
C        -0.99674357028210   -0.63060108786421   -0.04714755907366
4
 energy: -8.124583730988 gnorm: 0.000420603118 xtb: 6.2.2 (9d81278992624c895f80dd42a50cac0aa55982e2)
C         1.60965836024390   -0.02843837709615   -0.06352910548465
C         0.36103196026195   -0.00781207001667    0.14108554552840
C        -0.97364839072433    0.66744327506062   -0.03279177694017
C        -0.99704192978152   -0.63119382794779   -0.04476466310357
4
 energy: -8.124584562263 gnorm: 0.000273996900 xtb: 6.2.2 (9d81278992624c895f80dd42a50cac0aa55982e2)
C         1.61057760619018   -0.02846571998958   -0.06195879658428
C         0.36056988417971   -0.00777215538677    0.13731834513495
C        -0.97387034338531    0.66761422005622   -0.03169360918020
C        -0.99727714698458   -0.63137734467986   -0.04366593937047
