4
 energy: -3.977097231197 gnorm: 0.371507807720 xtb: 6.2.2 (9d81278992624c895f80dd42a50cac0aa55982e2)
N        -0.00170600000000   -0.01013400000000    0.29474600000000
H         0.95241400000000   -0.17031600000000   -0.09871000000000
H        -0.62569900000000   -0.73359400000000   -0.12721200000000
H        -0.32500800000000    0.91404400000000   -0.06882400000000
4
 energy: -4.111607042677 gnorm: 0.101336674062 xtb: 6.2.2 (9d81278992624c895f80dd42a50cac0aa55982e2)
N        -0.00124752654099   -0.00741162959616    0.21555052744148
H         1.14333228778244   -0.20609102033276   -0.07240410649678
H        -0.75156689252890   -0.88243951687145   -0.10662743090499
H        -0.39051686871254    1.09594216680037   -0.03651899003970
4
 energy: -4.139667643917 gnorm: 0.027583112468 xtb: 6.2.2 (9d81278992624c895f80dd42a50cac0aa55982e2)
N        -0.00043877647637   -0.00260851207647    0.07584429047142
H         1.23952195708423   -0.22529546391455   -0.02588214401414
H        -0.81530094614945   -0.95872484315896   -0.06299374779982
H        -0.42378123445841    1.18662881914998    0.01303160134254
4
 energy: -4.141778857623 gnorm: 0.009839914378 xtb: 6.2.2 (9d81278992624c895f80dd42a50cac0aa55982e2)
N        -0.00011246719040   -0.00067042340791    0.01947424696886
H         1.26735836738566   -0.23104300170706   -0.00710574474092
H        -0.83379473492578   -0.98100770062183   -0.04505405203232
H        -0.43345016526948    1.21272112573680    0.03268554980438
4
 energy: -4.141885271377 gnorm: 0.007909901114 xtb: 6.2.2 (9d81278992624c895f80dd42a50cac0aa55982e2)
N        -0.00007882897995   -0.00047060094435    0.01366141548893
H         1.26584271218293   -0.23083738490513   -0.00516748583212
H        -0.83281432121700   -0.97990955957605   -0.04307064644739
H        -0.43294856198598    1.21121754542554    0.03457671679057
4
 energy: -4.142070415328 gnorm: 0.000705950843 xtb: 6.2.2 (9d81278992624c895f80dd42a50cac0aa55982e2)
N         0.00000574604952    0.00003163485589   -0.00095942519401
H         1.25597154394397   -0.22922299404300   -0.00028958975531
H        -0.82635525661765   -0.97245641029351   -0.03789736918226
H        -0.42962103337585    1.20164776948062    0.03914638413158
4
 energy: -4.142071693139 gnorm: 0.000229767253 xtb: 6.2.2 (9d81278992624c895f80dd42a50cac0aa55982e2)
N        -0.00000062354069   -0.00000665901178    0.00013428927245
H         1.25456479507169   -0.22896859810951   -0.00065398661338
H        -0.82541424897435   -0.97135321270113   -0.03821886613232
H        -0.42914892255665    1.20032846982241    0.03873856347326
