[Molden Format]
[Title]
[Atoms] AU
N      1     7 -0.11775010769976E-05 -0.12583258275965E-04  0.25376994893187E-03
H      2     1  0.23707813784149E+01 -0.43270031696625E+00 -0.12433758870452E-02
H      3     1 -0.15598165884055E+01 -0.18355833308696E+01 -0.72214534618489E-01
H      4     1 -0.81096172278235E+00  0.22682962310842E+01  0.73204140550006E-01
[GTO]
           1 0
 s           4   1.0000000000000000     
   63.594024466941008      -0.19234388414721629     
   10.951417231523665      -0.23478107924953728     
  0.87999310257376984       0.37593753901700888     
  0.33538715296521110       0.14982889271862770     
 p           4   1.0000000000000000     
   7.2965040481495080       0.97658666315667420     
   1.8918745450712575       0.90372226730345739     
  0.66694432110824120       0.47404958461536373     
  0.26552202674130870        7.1516067715011844E-002

           2 0
 s           3   1.0000000000000000     
   3.3702276975336001       0.27359110588908298     
  0.61389118221497996       0.26460540653860526     
  0.16614291148415999        8.2465947534082318E-002

           3 0
 s           3   1.0000000000000000     
   3.3702276975336001       0.27359110588908298     
  0.61389118221497996       0.26460540653860526     
  0.16614291148415999        8.2465947534082318E-002

           4 0
 s           3   1.0000000000000000     
   3.3702276975336001       0.27359110588908298     
  0.61389118221497996       0.26460540653860526     
  0.16614291148415999        8.2465947534082318E-002

[MO]
Sym=     1a
Ene=  -0.58799021853706446     
Spin= Alpha
Occup=     2.00000000
           1 -0.80399474344828159     
           2   2.0164815665849384E-006
           3   4.0711736809419667E-005
           4   1.1401841370111426E-005
           5 -0.17760305681002808     
           6 -0.17762785200994974     
           7 -0.17756374970409983     
Sym=     2a
Ene=  -0.50079385154984024     
Spin= Alpha
Occup=     2.00000000
           1   4.7391535130303853E-005
           2  0.57668217721189829     
           3  0.34523108152769127     
           4   1.5205212993412452E-002
           5  0.32867510499860786     
           6 -0.41410117087529968     
           7   8.5431903456649375E-002
Sym=     3a
Ene=  -0.50078895383348909     
Spin= Alpha
Occup=     2.00000000
           1  -7.0735555097316182E-005
           2  0.34554745814905330     
           3 -0.57642591567582180     
           4  -1.7817471998046518E-002
           5  0.28839843677996979     
           6  0.14043156997097384     
           7 -0.42883872644499277     
Sym=     4a
Ene=  -0.45012463241482337     
Spin= Alpha
Occup=     1.00000000
           1   1.4190686266247099E-004
           2  -5.7823696018326791E-003
           3  -3.4357816823382785E-002
           4  0.99939284618321389     
           5  -7.7399659681185839E-005
           6  -7.7393758823406247E-005
           7  -7.7406610315410213E-005
Sym=     5a
Ene=  -0.24138427929125816     
Spin= Alpha
Occup=     1.00000000
           1 -0.78209493192662327     
           2  -4.0532123235405785E-006
           3  -6.2333384642338204E-005
           4   2.2226512394772380E-004
           5  0.57097574515951788     
           6  0.57092074317693986     
           7  0.57106292896788491     
Sym=     6a
Ene=   -9.1947139874393152E-002
Spin= Alpha
Occup=     0.00000000
           1   8.8691845784667300E-005
           2  0.44716989148419733     
           3 -0.74579897566040043     
           4  -2.3052331012620508E-002
           5 -0.54829704876460350     
           6 -0.26691836280583164     
           7  0.81506392275152473     
Sym=     7a
Ene=   -9.1929760213102368E-002
Spin= Alpha
Occup=     0.00000000
           1   5.9428239171208630E-005
           2 -0.74615032651916269     
           3 -0.44677235487632172     
           4  -1.9676586333399356E-002
           5  0.62465953812107844     
           6 -0.78718402910079144     
           7  0.16242298163145058     
