$hessian                                                                        
       -0.0804889567   0.0000799297  -0.0011617661   0.1080648870  -0.0306732450
       -0.0002037433   0.0127504820   0.0856053105   0.0032545909  -0.0403264123
       -0.0550119952  -0.0018890815
        0.0000799297  -0.0803024258  -0.0069112790  -0.0307059716  -0.0543758347
       -0.0006619855   0.0856342201   0.0407890410   0.0032871789  -0.0550081783
        0.0938892195   0.0042860856
       -0.0011617661  -0.0069112790   0.1185151436  -0.0002039965  -0.0006955355
       -0.0396115992   0.0032821186   0.0032922156  -0.0394542192  -0.0019163560
        0.0043145989  -0.0394493252
        0.1080648870  -0.0307059716  -0.0002039965  -0.0480249200   0.0097422859
       -0.0000079158  -0.0481365166  -0.1015429797  -0.0038492506  -0.0119034504
        0.1225066654   0.0040611629
       -0.0306732450  -0.0543758347  -0.0006955355   0.0097422859   0.0035353378
       -0.0002744415   0.0264930248   0.0435512316   0.0012058290  -0.0055620657
        0.0072892654  -0.0002358520
       -0.0002037433  -0.0006619855  -0.0396115992  -0.0000079158  -0.0002744415
        0.0131864083   0.0005438995   0.0004520479   0.0132147906  -0.0003322404
        0.0004843791   0.0132104003
        0.0127504820   0.0856342201   0.0032821186  -0.0481365166   0.0264930248
        0.0005438995  -0.0177871485  -0.0271759960  -0.0011322064   0.0531731831
       -0.0849512489  -0.0026938117
        0.0856053105   0.0407890410   0.0032922156  -0.1015429797   0.0435512316
        0.0004520479  -0.0271759960  -0.0266644975  -0.0015469267   0.0431136653
       -0.0576757751  -0.0021973369
        0.0032545909   0.0032871789  -0.0394542192  -0.0038492506   0.0012058290
        0.0132147906  -0.0011322064  -0.0015469267   0.0131353439   0.0017268661
       -0.0029460813   0.0131040847
       -0.0403264123  -0.0550081783  -0.0019163560  -0.0119034504  -0.0055620657
       -0.0003322404   0.0531731831   0.0431136653   0.0017268661  -0.0009433204
        0.0174565786   0.0005217303
       -0.0550119952   0.0938892195   0.0043145989   0.1225066654   0.0072892654
        0.0004843791  -0.0849512489  -0.0576757751  -0.0029460813   0.0174565786
       -0.0435027098  -0.0018528967
       -0.0018890815   0.0042860856  -0.0394493252   0.0040611629  -0.0002358520
        0.0132104003  -0.0026938117  -0.0021973369   0.0131040847   0.0005217303
       -0.0018528967   0.0131348401
