4
 energy: -4.142071693714 gnorm: 0.000229777814 xtb: 6.2.2 (9d81278992624c895f80dd42a50cac0aa55982e2)
N        -0.00000062310679   -0.00000665877414    0.00013428928625
H         1.25456359388861   -0.22897516813333   -0.00065796624506
H        -0.82541946835498   -0.97134895753124   -0.03821428956159
H        -0.42914250242685    1.20033078443347    0.03873796651691
