 Entering Gaussian System
 *********************************************
 Gaussian 98:
 frequency output generated by the xtb code
 *********************************************
                         Standard orientation:
 --------------------------------------------------------------------
  Center     Atomic     Atomic              Coordinates (Angstroms)
  Number     Number      Type              X           Y           Z
 --------------------------------------------------------------------
    1          6             0        0.626843   -0.801139    0.306567
    2          6             0        0.318969    0.441228   -0.267059
    3          6             0       -0.886032   -0.221577   -0.543160
    4          6             0       -0.728951   -0.866101    0.706824
    5          1             0        0.669170    1.447588   -0.203172
 --------------------------------------------------------------------
     1 basis functions        1 primitive gaussians
     1 alpha electrons        1 beta electrons

 Harmonic frequencies (cm**-1), IR intensities (KM/Mole),
 Raman scattering activities (A**4/amu), Raman depolarization ratios,
 reduced masses (AMU), force constants (mDyne/A) and normal coordinates:
                      1                      2                      3
                        a                      a                      a 
 Frequencies --   523.3423               624.8684               744.4181
 Red. masses --     9.9570                 9.7631                11.7814
 Frc consts  --     0.0000                 0.0000                 0.0000
 IR Inten    --     0.0669                 0.3565                 0.7608
 Raman Activ --     0.0000                 0.0000                 0.0000
 Depolar     --     0.0000                 0.0000                 0.0000
 Atom AN      X      Y      Z        X      Y      Z        X      Y      Z
   1   6    -0.08   0.28   0.24    -0.28   0.01  -0.42     0.37   0.23  -0.24
   2   6     0.21   0.06  -0.32    -0.04   0.29   0.26     0.32  -0.12   0.18
   3   6    -0.01   0.25   0.27     0.43  -0.26  -0.03    -0.17  -0.31   0.35
   4   6    -0.18  -0.59  -0.08    -0.19  -0.04   0.30    -0.48   0.19  -0.27
   5   1     0.21  -0.01  -0.38     0.23   0.02  -0.39    -0.12   0.04  -0.07
                      4                      5                      6
                        a                      a                      a 
 Frequencies --   750.3095               914.9519              1055.3276
 Red. masses --     7.1923                 3.7465                10.7951
 Frc consts  --     0.0000                 0.0000                 0.0000
 IR Inten    --     0.2198                 0.5836                 1.6208
 Raman Activ --     0.0000                 0.0000                 0.0000
 Depolar     --     0.0000                 0.0000                 0.0000
 Atom AN      X      Y      Z        X      Y      Z        X      Y      Z
   1   6    -0.32   0.05  -0.12     0.05  -0.34   0.07     0.35  -0.28   0.09
   2   6     0.29   0.17  -0.40    -0.04   0.01  -0.02    -0.50   0.19  -0.28
   3   6     0.23  -0.17   0.19     0.25   0.22   0.10     0.34   0.01   0.30
   4   6    -0.13  -0.09   0.16    -0.06   0.02  -0.03    -0.27   0.10  -0.15
   5   1    -0.28   0.14   0.59    -0.72   0.27  -0.40     0.27  -0.11   0.15
                      7                      8                      9
                        a                      a                      a 
 Frequencies --  1273.3452              1462.3380              3184.0230
 Red. masses --    11.4974                11.6165                 1.9635
 Frc consts  --     0.0000                 0.0000                 0.0000
 IR Inten    --     0.7617                 0.2077                 0.0619
 Raman Activ --     0.0000                 0.0000                 0.0000
 Depolar     --     0.0000                 0.0000                 0.0000
 Atom AN      X      Y      Z        X      Y      Z        X      Y      Z
   1   6    -0.34  -0.25   0.20     0.34  -0.36   0.10    -0.01   0.01  -0.01
   2   6     0.13   0.36   0.02     0.24   0.51  -0.08    -0.10  -0.28  -0.01
   3   6    -0.16  -0.32   0.30    -0.39  -0.08  -0.31     0.01   0.00   0.01
   4   6     0.33   0.18  -0.47    -0.21  -0.12   0.29     0.00   0.00  -0.00
   5   1     0.12   0.09  -0.15     0.07   0.18  -0.00     0.32   0.90   0.05
