$hessian                                                                        
        0.3344875526  -0.0967806091   0.0062066908  -0.0340533117   0.0808528615
       -0.0389770597  -0.0778468256   0.0567714824  -0.1072563185  -0.2258902741
       -0.0337503670   0.1334703956   0.0033028589  -0.0070933678   0.0065562919
       -0.0967806091   0.2784770709  -0.1000971693  -0.0073191581  -0.2890028289
        0.0602089275   0.0777818396   0.0461514888   0.0293136578   0.0207937286
       -0.0210358329  -0.0043266564   0.0055241989  -0.0145898978   0.0149012404
        0.0062066908  -0.1000971693   0.1010955440   0.0019858192   0.1012441550
       -0.0455345300  -0.0680652072   0.0025070283   0.0140805656   0.0564115132
       -0.0016134486  -0.0627581336   0.0034611840  -0.0020405654  -0.0068834460
       -0.0340533117  -0.0073191581   0.0019858192   0.2922980617   0.2333399355
        0.0342257048  -0.2002926441  -0.0856149337  -0.0729307961   0.0012514349
       -0.0444191149   0.0487429531  -0.0592035409  -0.0959867289  -0.0120236811
        0.0808528615  -0.2890028289   0.1012441550   0.2333399355   0.7430417630
       -0.0599740706  -0.1793969302  -0.1348416918  -0.0520327915  -0.0455441443
       -0.0189209720   0.0370389022  -0.0892517225  -0.3002762703  -0.0262761951
       -0.0389770597   0.0602089275  -0.0455345300   0.0342257048  -0.0599740706
        0.1203339471  -0.0356987145  -0.0208267036  -0.0333327005   0.0480040620
        0.0351316452  -0.0158360239  -0.0075539926  -0.0145397986  -0.0256306927
       -0.0778468256   0.0777818396  -0.0680652072  -0.2002926441  -0.1793969302
       -0.0356987145   0.3026064611   0.0739676199   0.1378454193  -0.0148599698
        0.0276043897  -0.0398421098  -0.0096070217   0.0000430810   0.0057606123
        0.0567714824   0.0461514888   0.0025070283  -0.0856149337  -0.1348416918
       -0.0208267036   0.0739676199   0.1522797670  -0.0615733847  -0.0238742024
       -0.0585261439   0.0825477442  -0.0212499662  -0.0050634199  -0.0026546841
       -0.1072563185   0.0293136578   0.0140805656  -0.0729307961  -0.0520327915
       -0.0333327005   0.1378454193  -0.0615733847   0.2591062016   0.0391041939
        0.0849119035  -0.2364535866   0.0032375014  -0.0006193850  -0.0034004802
       -0.2258902741   0.0207937286   0.0564115132   0.0012514349  -0.0455441443
        0.0480040620  -0.0148599698  -0.0238742024   0.0391041939   0.2367863647
        0.0490219773  -0.1325462023   0.0027124442  -0.0003973593  -0.0109735668
       -0.0337503670  -0.0210358329  -0.0016134486  -0.0444191149  -0.0189209720
        0.0351316452   0.0276043897  -0.0585261439   0.0849119035   0.0490219773
        0.0983014940  -0.1181218078   0.0015431148   0.0001814549  -0.0003082923
        0.1334703956  -0.0043266564  -0.0627581336   0.0487429531   0.0370389022
       -0.0158360239  -0.0398421098   0.0825477442  -0.2364535866  -0.1325462023
       -0.1181218078   0.2990334065  -0.0098250365   0.0028618178   0.0160143376
        0.0033028589   0.0055241989   0.0034611840  -0.0592035409  -0.0892517225
       -0.0075539926  -0.0096070217  -0.0212499662   0.0032375014   0.0027124442
        0.0015431148  -0.0098250365   0.0627952595   0.1034343750   0.0106803437
       -0.0070933678  -0.0145898978  -0.0020405654  -0.0959867289  -0.3002762703
       -0.0145397986   0.0000430810  -0.0050634199  -0.0006193850  -0.0003973593
        0.0001814549   0.0028618178   0.1034343750   0.3197481332   0.0143379311
        0.0065562919   0.0149012404  -0.0068834460  -0.0120236811  -0.0262761951
       -0.0256306927   0.0057606123  -0.0026546841  -0.0034004802  -0.0109735668
       -0.0003082923   0.0160143376   0.0106803437   0.0143379311   0.0199002813
