[Molden Format]
[Title]
[Atoms] AU
C      1     6  0.11845621838410E+01 -0.15139333459332E+01  0.57932726724852E+00
C      2     6  0.60276324264729E+00  0.83380049832506E+00 -0.50466828659324E+00
C      3     6 -0.16743577157124E+01 -0.41871982992841E+00 -0.10264243337766E+01
C      4     6 -0.13775178954265E+01 -0.16366926008734E+01  0.13357040804896E+01
H      5     1  0.12645482949247E+01  0.27355452784199E+01 -0.38393872736168E+00
[GTO]
           1 0
 s           4   1.0000000000000000     
   51.049363095579913      -0.16312063210127389     
   8.7911227406887544      -0.19911024581000730     
  0.70640422258929825       0.31882047753655751     
  0.26922813413411617       0.12706504184240380     
 p           4   1.0000000000000000     
   5.8263656140800002       0.73716451545209605     
   1.5106896018720002       0.68216371614850257     
  0.53256483288000001       0.35783053929253711     
  0.21202323690600003        5.3983030275847881E-002

           2 0
 s           4   1.0000000000000000     
   51.049363095579913      -0.16312063210127389     
   8.7911227406887544      -0.19911024581000730     
  0.70640422258929825       0.31882047753655751     
  0.26922813413411617       0.12706504184240380     
 p           4   1.0000000000000000     
   5.8263656140800002       0.73716451545209605     
   1.5106896018720002       0.68216371614850257     
  0.53256483288000001       0.35783053929253711     
  0.21202323690600003        5.3983030275847881E-002

           3 0
 s           4   1.0000000000000000     
   51.049363095579913      -0.16312063210127389     
   8.7911227406887544      -0.19911024581000730     
  0.70640422258929825       0.31882047753655751     
  0.26922813413411617       0.12706504184240380     
 p           4   1.0000000000000000     
   5.8263656140800002       0.73716451545209605     
   1.5106896018720002       0.68216371614850257     
  0.53256483288000001       0.35783053929253711     
  0.21202323690600003        5.3983030275847881E-002

           4 0
 s           4   1.0000000000000000     
   51.049363095579913      -0.16312063210127389     
   8.7911227406887544      -0.19911024581000730     
  0.70640422258929825       0.31882047753655751     
  0.26922813413411617       0.12706504184240380     
 p           4   1.0000000000000000     
   5.8263656140800002       0.73716451545209605     
   1.5106896018720002       0.68216371614850257     
  0.53256483288000001       0.35783053929253711     
  0.21202323690600003        5.3983030275847881E-002

           5 0
 s           3   1.0000000000000000     
   3.3702276975336001       0.27359110588908298     
  0.61389118221497996       0.26460540653860526     
  0.16614291148415999        8.2465947534082318E-002

[MO]
Sym=     1a
Ene=  -0.71809504716402317     
Spin= Alpha
Occup=     2.00000000
           1 -0.31066831501094377     
           2  0.11767126113991548     
           3  -8.1406932492609524E-002
           4   3.5645701993356482E-002
           5 -0.32706502787221914     
           6   7.8836928328670494E-002
           7  0.14126802842964289     
           8  -4.4021719760238096E-002
           9 -0.31064467311201466     
          10 -0.11331037153598558     
          11   7.0928337015194664E-003
          12  -9.4091895185142535E-002
          13 -0.28828422305737444     
          14  -7.6092621667295857E-002
          15  -6.5635618293380119E-002
          16   9.0699908389128864E-002
          17  -4.4027995667327555E-002
Sym=     2a
Ene=  -0.62325357564782125     
Spin= Alpha
Occup=     2.00000000
           1  -4.8522574772453392E-002
           2  0.14642639015807132     
           3  0.17294831268022043     
           4 -0.10614058328517653     
           5  0.48785907992898192     
           6   7.9428704972259789E-002
           7  0.11510786092102322     
           8  -6.2464127236384517E-002
           9  -4.8942457642848977E-002
          10  0.11832210919027136     
          11  0.18360016659370965     
          12 -0.12192443354058562     
          13 -0.39345206581875158     
          14  -8.2855254882869701E-003
          15   4.3820932991693963E-002
          16   4.4852050740327991E-002
          17  0.27887136964192416     
Sym=     3a
Ene=  -0.60351800758992202     
Spin= Alpha
Occup=     2.00000000
           1  0.48500481877628027     
           2   6.3547859653234937E-002
           3   4.5712695808320755E-002
           4   7.0755063999452167E-002
           5  -2.5284769296551765E-004
           6  0.31614852247104114     
           7 -0.12117062955895423     
           8  0.17764505923089013     
           9 -0.48499471979044306     
          10   5.3589653124075501E-002
          11  -9.0853256416146597E-002
          12  -4.7177994146445209E-003
          13   2.2089164071580165E-004
          14  0.22590599416350082     
          15  -8.6581133296832688E-002
          16  0.12688135028227132     
          17  -6.0785465830352626E-005
Sym=     4a
Ene=  -0.56285707065874035     
Spin= Alpha
Occup=     2.00000000
           1 -0.13549561574421853     
           2 -0.10159068506457165     
           3  -5.8797257373290404E-003
           4  0.25602133599942128     
           5   7.8705069481434187E-002
           6   4.0433843330170582E-002
           7  0.40444944982293346     
           8  0.20393374956513116     
           9 -0.13531563126516941     
          10 -0.16246677033117260     
          11   1.7366849241721480E-002
          12  0.22188133926155254     
          13  0.38964819675240009     
          14  -4.7833494624258774E-002
          15   3.8263401144486668E-002
          16  0.11108393157015900     
          17  0.34330997578321165     
Sym=     5a
Ene=  -0.50993724352474679     
Spin= Alpha
Occup=     2.00000000
           1 -0.10260579180895217     
           2   3.0052502957494752E-002
           3  0.31225166065502674     
           4  0.18707461148006507     
           5  -4.7922000713958801E-002
           6 -0.24707527939119067     
           7 -0.15041080784964495     
           8  0.33447964226875665     
           9 -0.10312059241286428     
          10   1.0364565452894313E-002
          11  0.32204734580902589     
          12  0.17396274761963093     
          13 -0.14940676959433954     
          14   4.0915513205628438E-002
          15  0.36577861265538636     
          16  0.17959625893214815     
          17 -0.26283509751687611     
Sym=     6a
Ene=  -0.50733580898204766     
Spin= Alpha
Occup=     2.00000000
           1   7.1859271536577299E-002
           2 -0.20155114333398921     
           3 -0.29039190104596574     
           4  0.21638486181841160     
           5   2.5669587866161117E-004
           6 -0.34613861915866762     
           7  0.13349082163895384     
           8 -0.19589132125846234     
           9  -7.1332990916420688E-002
          10  0.24426415568360810     
          11  0.27201385346094498     
          12 -0.19340234616113630     
          13   5.0424397434137487E-004
          14  0.36393569582179075     
          15 -0.14061920582092599     
          16  0.20394265256727137     
          17   8.5162962028454022E-004
Sym=     7a
Ene=  -0.44628171789624149     
Spin= Alpha
Occup=     2.00000000
           1 -0.45949275459309241     
           2 -0.35406393841137196     
           3  0.17712300183117782     
           4 -0.26162412142654318     
           5  0.11752398864181172     
           6   4.1262617394113493E-002
           7 -0.11779292746452279     
           8 -0.15379308300612163     
           9 -0.45957368417974687     
          10  0.42395492311383914     
          11 -0.12100983687707743     
          12  0.17551699979507979     
          13  0.22908970372474102     
          14  -9.3040315351257868E-002
          15  -7.2331595679585539E-002
          16  0.11621095085564156     
          17  -6.7992601890148940E-002
Sym=     8a
Ene=  -0.42043033830934023     
Spin= Alpha
Occup=     1.99999985
           1 -0.10179599912293988     
           2 -0.26753138158449713     
           3  -8.0433123938616055E-002
           4  -5.2473215300423676E-002
           5 -0.10768245505775462     
           6 -0.11127158938987693     
           7  0.17402333431578590     
           8  0.31689964309600233     
           9 -0.10170740295936931     
          10   9.6530406713517120E-002
          11 -0.22000657578950597     
          12  0.15187843984371624     
          13 -0.48281913637763763     
          14  0.32977638552204008     
          15   8.0137464632330915E-002
          16 -0.53243670290832701     
          17  0.11471665858833843     
Sym=     9a
Ene=  -0.39057404178676025     
Spin= Alpha
Occup=     1.00000015
           1 -0.29345204135529790     
           2 -0.33132123664124891     
           3  0.43264476247994199     
           4  0.27132863076145336     
           5  -2.3618124440030986E-005
           6  0.18585412391934139     
           7  -7.1293504820010442E-002
           8  0.10438765862889297     
           9  0.29342411903489701     
          10 -0.14002335923661055     
          11 -0.25199734407653451     
          12 -0.53617989231814134     
          13   8.3636389814464586E-005
          14  0.20971376780866705     
          15  -8.0423099591931835E-002
          16  0.11792857699824158     
          17  -1.2170369753934683E-005
Sym=    10a
Ene=  -0.30645813729408244     
Spin= Alpha
Occup=     0.00000000
           1  -1.2186660863806971E-003
           2  0.11254141438866684     
           3   9.3816749703666547E-002
           4 -0.10719809057337422     
           5  0.10569100239934298     
           6 -0.33472780050824186     
           7   9.6762036218629877E-003
           8  0.60240341549286569     
           9  -1.2811159401917831E-003
          10   9.0247287054883163E-002
          11  0.10231354884038718     
          12 -0.11972328081570839     
          13   4.4731191729051989E-002
          14 -0.25782425780259122     
          15 -0.74591464176354538     
          16  -4.9876949668408867E-002
          17  -6.9306288152841386E-002
Sym=    11a
Ene=  -0.26885527273972515     
Spin= Alpha
Occup=     0.00000000
           1  -2.1069512953447077E-002
           2 -0.43786906608507037     
           3 -0.11377854385946308     
           4 -0.59618395811878067     
           5  -4.6084113139675330E-005
           6  0.20855138284794092     
           7  -7.9955980892790934E-002
           8  0.11727950885894108     
           9   2.1061955093400253E-002
          10 -0.55937230800253168     
          11  0.49584414592285259     
          12   3.5997798816787788E-002
          13  -1.1887158952824172E-006
          14  0.21403789541416623     
          15  -8.2082632175926123E-002
          16  0.12024034152181139     
          17   5.1676815979035213E-005
Sym=    12a
Ene=  -0.24597881384372364     
Spin= Alpha
Occup=     0.00000000
           1   8.2905635144646106E-002
           2   3.1061480951376882E-002
           3 -0.28481803404014683     
           4 -0.46976817087860151     
           5 -0.16820529070543719     
           6 -0.19566834801760788     
           7  0.11207094158958668     
           8  0.42480928571258664     
           9   8.2921641038510976E-002
          10  0.20033386703280184     
          11 -0.34960106118496670     
          12 -0.37471481661417771     
          13   7.6485089996848790E-002
          14  -7.8036941113436856E-002
          15  0.45068737059010155     
          16  0.44626221109878711     
          17  0.18445254739565808     
Sym=    13a
Ene=   0.10301267330695096     
Spin= Alpha
Occup=     0.00000000
           1   8.9103406219144005E-002
           2  0.11396488330408634     
           3  0.42620482520736175     
           4 -0.12929890749420195     
           5  -1.0740444093585984     
           6  -3.4272707721548563E-002
           7 -0.25552746392912529     
           8 -0.10266383967580868     
           9   9.0726487322149385E-002
          10  0.28663140594824826     
          11  0.36846900561935303     
          12  -3.9006094566666351E-002
          13  0.18768560879575058     
          14   5.8766606571213333E-002
          15  -7.0517895535322991E-002
          16 -0.16061042869399753     
          17  0.86483993243862889     
Sym=    14a
Ene=   0.11867174546279545     
Spin= Alpha
Occup=     0.00000000
           1   2.7774221899997471E-002
           2 -0.41895826214303955     
           3 -0.48161307768749179     
           4  0.36898583418394026     
           5   6.5505459293803024E-003
           6  0.55511600383540194     
           7 -0.21127379745431890     
           8  0.31229626672543215     
           9  -2.8850453624246129E-002
          10  0.37822380101385378     
          11  0.49128910597349795     
          12 -0.38916565781086915     
          13  -1.3155595902166882E-003
          14 -0.62865306469976168     
          15  0.24100722942723768     
          16 -0.35173748954779399     
          17  -5.1478659428126636E-003
Sym=    15a
Ene=   0.17992133585572651     
Spin= Alpha
Occup=     0.00000000
           1 -0.65617961245588874     
           2  0.43669930491293019     
           3 -0.39186173479465553     
           4   4.6116187056821613E-002
           5   1.7317937250415723E-003
           6  0.57090951070068652     
           7 -0.21850627027599825     
           8  0.32083321605482740     
           9  0.65589817980607579     
          10  0.40040994430367938     
          11   6.9557061819416177E-002
          12  0.42490966972677580     
          13  -4.3937649461771278E-004
          14  0.50104628202319013     
          15 -0.19197388117781472     
          16  0.28186901334578029     
          17  -1.3080958506440975E-003
Sym=    16a
Ene=   0.26996731303525240     
Spin= Alpha
Occup=     0.00000000
           1  0.14865900599509843     
           2 -0.44187989162486940     
           3 -0.23905815156705987     
           4  0.31090598193298291     
           5  -1.4314003933186393E-002
           6 -0.22588469514651396     
           7 -0.67495532315153661     
           8  -5.9149071365613815E-002
           9  0.14845312994608767     
          10 -0.20190992832404461     
          11 -0.33138998531287256     
          12  0.44591659887665336     
          13 -0.72851784438900313     
          14 -0.38685145130150339     
          15 -0.21602139812597027     
          16  0.54157819791342321     
          17  0.60450616451773886     
Sym=    17a
Ene=   0.64306059748644695     
Spin= Alpha
Occup=     0.00000000
           1  0.62781490491214320     
           2 -0.43907974192261340     
           3  0.39901956745731143     
           4 -0.12042762447489318     
           5 -0.40697717370045600     
           6  0.40974658556521126     
           7  0.94141671764398160     
           8  -8.7134346393646631E-002
           9  0.62778637217524913     
          10  0.46304136286584952     
          11   5.3382517877895254E-002
          12  0.38629496227635940     
          13 -0.48269406960576944     
          14 -0.29602283918775402     
          15 -0.18537934367794121     
          16  0.40062749164230482     
          17 -0.52822105723903712     
