5
 energy: -8.563222239080 gnorm: 0.168845874022 xtb: 6.2.2 (9d81278992624c895f80dd42a50cac0aa55982e2)
C         1.32507100000000   -0.88001400000000   -0.01107800000000
C         0.23022000000000    0.16567800000000   -0.00706000000000
C        -1.01563500000000   -0.28195100000000   -0.73592300000000
C        -0.98654200000000   -0.25719600000000    0.78314300000000
H         0.44688500000000    1.25348300000000   -0.02908200000000
5
 energy: -8.602436638699 gnorm: 0.187315938571 xtb: 6.2.2 (9d81278992624c895f80dd42a50cac0aa55982e2)
C         1.21138637531173   -0.82027522852218   -0.00985856448070
C         0.25679739917298    0.18530702189746   -0.00791904645926
C        -0.99820109881440   -0.32087112626233   -0.69810615632477
C        -0.97050724367729   -0.29731838497709    0.74596620828487
H         0.50052356800698    1.25315771786413   -0.03008244102014
5
 energy: -8.406272662260 gnorm: 1.377361590333 xtb: 6.2.2 (9d81278992624c895f80dd42a50cac0aa55982e2)
C         0.91915702987120   -0.65927838453656   -0.00686020929039
C         0.40156764911145    0.21717098442895   -0.01125498702996
C        -0.97214493975973   -0.40859322886717   -0.52387058079412
C        -0.95103582635757   -0.39065369805256    0.57379729941881
H         0.60245508713465    1.24135432702734   -0.03181152230435
5
 energy: -8.646522742377 gnorm: 0.095512883149 xtb: 6.2.2 (9d81278992624c895f80dd42a50cac0aa55982e2)
C         0.98753134163235   -0.77730976758750   -0.00624070041769
C         0.31788390475163    0.30354438244615   -0.01106988747522
C        -0.95949961821091   -0.41820742100971   -0.62540987698037
C        -0.93448505497691   -0.39696228527280    0.67503324979211
H         0.58856842680384    1.28893509142386   -0.03231278491883
5
 energy: -8.663251872800 gnorm: 0.036539260591 xtb: 6.2.2 (9d81278992624c895f80dd42a50cac0aa55982e2)
C         0.83133635951685   -0.83915813372620   -0.00220638449985
C         0.33684782508959    0.37539558609019   -0.01264242752950
C        -0.89483116915303   -0.48225909056212   -0.61864439376670
C        -0.87003199190789   -0.46125270025041    0.66787793089093
H         0.59667797645449    1.40727433844855   -0.03438472509489
5
 energy: -8.663641345537 gnorm: 0.043079653890 xtb: 6.2.2 (9d81278992624c895f80dd42a50cac0aa55982e2)
C         0.75222304442428   -0.87689061094896    0.00001554090689
C         0.36190371656366    0.41024124997956   -0.01370978853269
C        -0.85707933080832   -0.50529977860556   -0.62126250244519
C        -0.83209032776950   -0.48444011538968    0.66979746649125
H         0.57504189758988    1.45638925496465   -0.03484071642026
5
 energy: -8.665087916322 gnorm: 0.012596440981 xtb: 6.2.2 (9d81278992624c895f80dd42a50cac0aa55982e2)
C         0.79820799239780   -0.87169693861737   -0.00074206428690
C         0.36511217498962    0.38402794167592   -0.01346170803279
C        -0.87446342220368   -0.48460185372762   -0.62475793757304
C        -0.84905820854519   -0.46403923889152    0.67327755573838
H         0.56020046336146    1.43631008956059   -0.03431584584565
5
 energy: -8.665188530941 gnorm: 0.008661050082 xtb: 6.2.2 (9d81278992624c895f80dd42a50cac0aa55982e2)
C         0.79717590945157   -0.87487157387753    0.00029527812087
C         0.37174332459336    0.38306389033536   -0.01416741331451
C        -0.87409701214951   -0.48178025392787   -0.62622832660483
C        -0.84730048731530   -0.46297625303028    0.67461577076382
H         0.55247726541989    1.43656419050032   -0.03451530896536
5
 energy: -8.665329309725 gnorm: 0.008539825161 xtb: 6.2.2 (9d81278992624c895f80dd42a50cac0aa55982e2)
C         0.79375062171602   -0.87740748471316    0.00810552687891
C         0.38155096732300    0.38253836719469   -0.01907083206640
C        -0.87818811919749   -0.47294523883647   -0.62776346978932
C        -0.84068294380389   -0.46852812581247    0.67583342359624
H         0.54356847396237    1.43634248216741   -0.03710464861944
5
 energy: -8.650730397775 gnorm: 0.165183880903 xtb: 6.2.2 (9d81278992624c895f80dd42a50cac0aa55982e2)
C         0.70908443456908   -0.93479840815380    0.20288115519582
C         0.61755546281141    0.37143462175829   -0.14121757273046
C        -0.98260982952292   -0.25595829465275   -0.66482575975266
C        -0.67842500657600   -0.61116743020551    0.70544500035109
H         0.33439393871843    1.43048951125379   -0.10228282306378
5
 energy: -8.666305571607 gnorm: 0.092888723059 xtb: 6.2.2 (9d81278992624c895f80dd42a50cac0aa55982e2)
C         0.73620745771774   -0.89127036291214    0.09635800253228
C         0.48694213751984    0.38896141904040   -0.07284416116379
C        -0.91749222187044   -0.37748447660713   -0.63830756633261
C        -0.76466432658155   -0.54304281184769    0.68543485371665
H         0.45900595321441    1.42283623232655   -0.07064112875252
5
 energy: -8.666449468219 gnorm: 0.059993360356 xtb: 6.2.2 (9d81278992624c895f80dd42a50cac0aa55982e2)
C         0.74444276420473   -0.91183970522371    0.08041665450390
C         0.47557493935006    0.37831172121622   -0.07195309879077
C        -0.89832153542056   -0.39281722028614   -0.63339365581986
C        -0.76185615308897   -0.51126551743483    0.67845339972856
H         0.44015898495474    1.43761072172845   -0.05352329962183
5
 energy: -8.667094104724 gnorm: 0.072868094337 xtb: 6.2.2 (9d81278992624c895f80dd42a50cac0aa55982e2)
C         0.73337051879086   -0.89808267100519    0.08951656028730
C         0.47863357273919    0.38456970913854   -0.07653209132923
C        -0.90823637510804   -0.39086433252119   -0.63469641637952
C        -0.76142045756548   -0.53009562254505    0.68100582837556
H         0.45765174114347    1.43447291693290   -0.05929388095411
5
 energy: -8.667775957829 gnorm: 0.083431569948 xtb: 6.2.2 (9d81278992624c895f80dd42a50cac0aa55982e2)
C         0.72511598231831   -0.88784826953773    0.09974786389095
C         0.48186484140116    0.38684808182964   -0.08284020946489
C        -0.91562313003105   -0.38364470548627   -0.63427906592128
C        -0.75837235541165   -0.54606992315588    0.68248605881485
H         0.46701366172323    1.43071481635024   -0.06511464731962
5
 energy: -8.671617549807 gnorm: 0.113538173689 xtb: 6.2.2 (9d81278992624c895f80dd42a50cac0aa55982e2)
C         0.68155979803777   -0.85535305099663    0.15130772987029
C         0.50008745969992    0.39632157878777   -0.12133286330682
C        -0.94006805841769   -0.34462549132026   -0.62980907087670
C        -0.73204327397211   -0.61684103830765    0.68862573485042
H         0.49046307465210    1.42049800183677   -0.08879153053719
5
 energy: -8.677173381597 gnorm: 0.116108578035 xtb: 6.2.2 (9d81278992624c895f80dd42a50cac0aa55982e2)
C         0.62077699176081   -0.82885596909330    0.20304976331160
C         0.51865778587896    0.41178860723030   -0.16894641153790
C        -0.95206845253973   -0.31288992758856   -0.62343971206846
C        -0.70434690960278   -0.69536630140901    0.69989057913796
H         0.51697958450273    1.42532359086057   -0.11055421884319
5
 energy: -8.635987292179 gnorm: 0.382602830686 xtb: 6.2.2 (9d81278992624c895f80dd42a50cac0aa55982e2)
C         0.43579664832673   -0.74208571788617    0.34840198903404
C         0.53932852871973    0.45110242129370   -0.33021852671914
C        -0.95494921833114   -0.22556312241214   -0.58858596662390
C        -0.64870992103303   -0.94133458067987    0.74681532057018
H         0.62853296231772    1.45788099968448   -0.17641281626118
5
 energy: -8.689215142718 gnorm: 0.133006794488 xtb: 6.2.2 (9d81278992624c895f80dd42a50cac0aa55982e2)
C         0.52380458896987   -0.74177714392987    0.31341693186390
C         0.48688903238611    0.40912156033527   -0.30148540808036
C        -0.92169069231794   -0.19349059320116   -0.56423838560299
C        -0.72216939157199   -0.91812211411431    0.75392190019267
H         0.63316546253395    1.44426829091007   -0.20161503837322
5
 energy: -8.701100750807 gnorm: 0.106959070433 xtb: 6.2.2 (9d81278992624c895f80dd42a50cac0aa55982e2)
C         0.61686034976376   -0.80257611201227    0.21240599509060
C         0.39214131040048    0.39685009470245   -0.29564893980116
C        -0.87793012575803   -0.32953550479706   -0.56190626699522
C        -0.74509581412724   -0.72539619500434    0.72363268112313
H         0.61402327972104    1.46065771711122   -0.07848346941735
5
 energy: -8.709550281415 gnorm: 0.070678831781 xtb: 6.2.2 (9d81278992624c895f80dd42a50cac0aa55982e2)
C         0.60724496179128   -0.78814714909975    0.25696596070638
C         0.39613061976933    0.39922817157770   -0.33782347967949
C        -0.87266266385941   -0.26009458876875   -0.55115361958483
C        -0.73987138024023   -0.78790177734226    0.74603272511037
H         0.60915746253903    1.43691534363305   -0.11402158655243
5
 energy: -8.711081689096 gnorm: 0.053593901805 xtb: 6.2.2 (9d81278992624c895f80dd42a50cac0aa55982e2)
C         0.61379063607845   -0.78977608188764    0.26761317027033
C         0.38462070427798    0.40590438378439   -0.35317680526514
C        -0.86847888106841   -0.24344349385952   -0.54923136506259
C        -0.73531647127996   -0.79660818954251    0.75249186415468
H         0.60538301199194    1.42392338150529   -0.11769686409729
5
 energy: -8.714922434344 gnorm: 0.025857915215 xtb: 6.2.2 (9d81278992624c895f80dd42a50cac0aa55982e2)
C         0.61913445501490   -0.79355447562173    0.29646008133132
C         0.36341003542808    0.42046477613077   -0.32071882082281
C        -0.88445545130582   -0.22784585985731   -0.53622510466274
C        -0.73650302818975   -0.84529304258247    0.72339658623937
H         0.63841298905259    1.44622860193075   -0.16291274208514
5
 energy: -8.716201951854 gnorm: 0.011409649201 xtb: 6.2.2 (9d81278992624c895f80dd42a50cac0aa55982e2)
C         0.62528650093566   -0.80389116940534    0.30759352549481
C         0.33829170833306    0.43241812792261   -0.28735523933018
C        -0.89141913342463   -0.22460704051676   -0.53685751376680
C        -0.73104668781125   -0.85942485917959    0.70670518430692
H         0.65888661196716    1.45550494117907   -0.19008595670475
5
 energy: -8.716405304462 gnorm: 0.007275712773 xtb: 6.2.2 (9d81278992624c895f80dd42a50cac0aa55982e2)
C         0.62824387188989   -0.80509186428036    0.30886705179768
C         0.32844785334596    0.43613117697418   -0.27638361358554
C        -0.89037001998352   -0.22167932297992   -0.53949614956356
C        -0.72839427055934   -0.86015605601932    0.70384448402852
H         0.66207156530701    1.45079606630542   -0.19683177267711
5
 energy: -8.716474756548 gnorm: 0.003453324483 xtb: 6.2.2 (9d81278992624c895f80dd42a50cac0aa55982e2)
C         0.62931569999746   -0.80389095501213    0.30813665412742
C         0.32199005460505    0.43847183332083   -0.27019509429562
C        -0.88810014869034   -0.22012451981667   -0.54210195966108
C        -0.72763599222334   -0.86129811981541    0.70448167814061
H         0.66442938631116    1.44684176132338   -0.20032127831133
5
 energy: -8.716490529339 gnorm: 0.001477718421 xtb: 6.2.2 (9d81278992624c895f80dd42a50cac0aa55982e2)
C         0.62867038651039   -0.80251740697197    0.30724620857871
C         0.31951540725118    0.43976625151314   -0.26794255256349
C        -0.88686615663699   -0.22050072961034   -0.54319229074065
C        -0.72813071538136   -0.86331835498584    0.70577291694347
H         0.66681007825679    1.44657024005500   -0.20188428221804
5
 energy: -8.716495300829 gnorm: 0.001132168085 xtb: 6.2.2 (9d81278992624c895f80dd42a50cac0aa55982e2)
C         0.62703096977033   -0.80091511224236    0.30631376065353
C         0.31838158573664    0.44119747033859   -0.26675747840248
C        -0.88584406157413   -0.22163021378505   -0.54360089909711
C        -0.72901665300297   -0.86606636589214    0.70719714858033
H         0.66944715907013    1.44741422158095   -0.20315253173427
5
 energy: -8.716496178996 gnorm: 0.000258572101 xtb: 6.2.2 (9d81278992624c895f80dd42a50cac0aa55982e2)
C         0.62684649536665   -0.80113635273100    0.30656760578853
C         0.31896722311241    0.44123039930317   -0.26705709761237
C        -0.88602897208098   -0.22158070355950   -0.54316389610521
C        -0.72894907787869   -0.86610555639512    0.70682016933802
H         0.66916333148061    1.44759221338244   -0.20316678140898
