      -----------------------------------------------------------      
     |                   =====================                   |     
     |                           x T B                           |     
     |                   =====================                   |     
     |                         S. Grimme                         |     
     |          Mulliken Center for Theoretical Chemistry        |     
     |                    University of Bonn                     |     
      -----------------------------------------------------------      

   * xtb version 6.2.2 (9d81278992624c895f80dd42a50cac0aa55982e2) compiled by '@Darwin' on 04/03/2020

   xtb is free software: you can redistribute it and/or modify it under
   the terms of the GNU Lesser General Public License as published by
   the Free Software Foundation, either version 3 of the License, or
   (at your option) any later version.
   
   xtb is distributed in the hope that it will be useful,
   but WITHOUT ANY WARRANTY; without even the implied warranty of
   MERCHANTABILITY or FITNESS FOR A PARTICULAR PURPOSE.  See the
   GNU Lesser General Public License for more details.
   
   Cite this work as:
   * S. Grimme, C. Bannwarth, P. Shushkov, J. Chem. Theory Comput., 2017,
     13, 1989-2009. DOI: 10.1021/acs.jctc.7b00118
   * C. Bannwarth, S. Ehlert and S. Grimme., J. Chem. Theory Comput., 2019,
     15, 1652-1671. DOI: 10.1021/acs.jctc.8b01176
   * P. Pracht, E. Caldeweyher, S. Ehlert, S. Grimme, ChemRxiv, 2019, preprint.
     DOI: 10.26434/chemrxiv.8326202.v1
   
   for DFT-D4:
   * E. Caldeweyher, C. Bannwarth and S. Grimme, J. Chem. Phys., 2017,
     147, 034112. DOI: 10.1063/1.4993215
   * E. Caldeweyher, S. Ehlert, A. Hansen, H. Neugebauer, S. Spicher,
     C. Bannwarth and S. Grimme, J. Chem. Phys., 2019, 150, 154122.
     DOI: 10.1063/1.5090222
   
   for sTDA-xTB:
   * S. Grimme and C. Bannwarth, J. Chem. Phys., 2016, 145, 054103.
     DOI: 10.1063/1.4959605
   
   in the mass-spec context:
   * V. Asgeirsson, C. Bauer and S. Grimme, Chem. Sci., 2017, 8, 4879.
     DOI: 10.1039/c7sc00601b
   
   for metadynamics refer to:
   * S. Grimme, J. Chem. Theory Comput., 2019, 155, 2847-2862
     DOI: 10.1021/acs.jctc.9b00143
   
   with help from (in alphabetical order)
   C. Bannwarth, F. Bohle, G. Brandenburg, E. Caldeweyher, M. Checinski,
   S. Dohm, S. Ehlert, S. Ehrlich, F. März, H. Neugebauer, J. Pisarek,
   P. Pracht, P. Shushkov, and S. Spicher.
   
 * started run on 2020/05/12 at 11:45:09.857     

           -------------------------------------------------
          |                Calculation Setup                |
           -------------------------------------------------

          program call               : xtb --input H1C4_5_S_1.input H1C4_5_S_1.xyz --ohess --molden --namespace H1C4_5_S_1 output.out
          calculation namespace      : H1C4_5_S_1
          coordinate file            : H1C4_5_S_1.xyz
          number of atoms            :                     5
          number of electrons        :                    17
          charge                     :                     0
          spin                       :                   0.5
          first test random number   :      0.66917303975432

   ID    Z sym.   atoms
    1    6 C      1-4
    2    1 H      5

           -------------------------------------------------
          |                 G F N 2 - x T B                 |
           -------------------------------------------------

        Reference                      10.1021/acs.jctc.8b01176
      * Hamiltonian:
        H0-scaling (s, p, d)           1.850000    2.230000    2.230000
        zeta-weighting                 0.500000
      * Dispersion:
        s8                             2.700000
        a1                             0.520000
        a2                             5.000000
        s9                             5.000000
      * Repulsion:
        kExp                           1.500000    1.000000
        rExp                           1.000000
      * Coulomb:
        alpha                          2.000000
        third order                    shell-resolved
        anisotropic                    true
        a3                             3.000000
        a5                             4.000000
        cn-shift                       1.200000
        cn-exp                         4.000000
        max-rad                        5.000000


          ...................................................
          :                      SETUP                      :
          :.................................................:
          :  # basis functions                  17          :
          :  # atomic orbitals                  17          :
          :  # shells                            9          :
          :  # electrons                        17          :
          :  max. iterations                   250          :
          :  Hamiltonian                  GFN2-xTB          :
          :  restarted?                      false          :
          :  GBSA solvation                  false          :
          :  PC potential                    false          :
          :  electronic temp.          300.0000000     K    :
          :  accuracy                    1.0000000          :
          :  -> integral cutoff          0.2500000E+02      :
          :  -> integral neglect         0.1000000E-07      :
          :  -> SCF convergence          0.1000000E-05 Eh   :
          :  -> wf. convergence          0.1000000E-03 e    :
          :  Broyden damping             0.4000000          :
          ...................................................

 iter      E             dE          RMSdq      gap      omega  full diag
   1     -8.2415894 -0.824159E+01  0.122E+01    1.53       0.0  T
   2     -5.3114312  0.293016E+01  0.190E+01    0.28       1.0  T
   3     -7.6654178 -0.235399E+01  0.999E+00    1.60       1.0  T
   4     -8.4010125 -0.735595E+00  0.517E+00    0.33       1.0  T
   5     -8.6028970 -0.201884E+00  0.410E+00    0.72       1.0  T
   6     -8.6287211 -0.258241E-01  0.255E+00    0.48       1.0  T
   7     -8.6328819 -0.416086E-02  0.271E+00    0.49       1.0  T
   8     -8.5876104  0.452715E-01  0.240E+00    0.43       1.0  T
   9     -8.5947772 -0.716679E-02  0.208E+00    0.45       1.0  T
  10     -8.6206059 -0.258287E-01  0.132E+00    0.47       1.0  T
  11     -8.6341177 -0.135118E-01  0.582E-01    0.50       1.0  T
  12     -8.6349090 -0.791293E-03  0.508E-01    0.50       1.0  T
  13     -8.6360255 -0.111659E-02  0.379E-01    0.51       1.0  T
  14     -8.6371630 -0.113746E-02  0.157E-01    0.52       1.0  T
  15     -8.6372810 -0.117975E-03  0.112E-01    0.52       1.0  T
  16     -8.6373565 -0.755644E-04  0.443E-02    0.52       1.0  T
  17     -8.6373664 -0.985914E-05  0.245E-02    0.52       1.8  T
  18     -8.6373701 -0.372088E-05  0.178E-03    0.53      25.2  T
  19     -8.6373701  0.769965E-08  0.147E-03    0.53      30.3  T
  20     -8.6373701  0.406990E-08  0.133E-03    0.53      33.7  T
  21     -8.6373701 -0.126278E-07  0.184E-04    0.53     243.4  T
  22     -8.6373701 -0.284924E-09  0.155E-05    0.53    2885.3  T

   *** convergence criteria satisfied after 22 iterations ***

         #    Occupation            Energy/Eh            Energy/eV
      -------------------------------------------------------------
         1        2.0000           -0.7180790             -19.5399
       ...           ...                  ...                  ...
         3        2.0000           -0.6050439             -16.4641
         4        2.0000           -0.5840719             -15.8934
         5        2.0000           -0.5276148             -14.3571
         6        2.0000           -0.4905873             -13.3496
         7        2.0000           -0.4667950             -12.7021
         8        1.9456           -0.4279282             -11.6445
         9        1.0544           -0.4225041             -11.4969 (HOMO)
        10        0.0000           -0.4031862             -10.9713 (LUMO)
        11                         -0.3879086             -10.5555
        12                         -0.3111866              -8.4678
        13                         -0.1096986              -2.9850
        14                          0.0163917               0.4460
       ...                                ...                  ...
        17                          0.1916823               5.2159
      -------------------------------------------------------------
                  HL-Gap            0.0193179 Eh            0.5257 eV
             Fermi-level           -0.4190299 Eh          -11.4024 eV

 SCC (total)                   0 d,  0 h,  0 min,  0.005 sec
 SCC setup                      ...        0 min,  0.000 sec (  1.635%)
 Dispersion                     ...        0 min,  0.000 sec (  0.327%)
 integral evaluation            ...        0 min,  0.001 sec ( 21.899%)
 zeroth order Hamiltonian       ...        0 min,  0.000 sec (  0.341%)
 iterations                     ...        0 min,  0.002 sec ( 47.010%)
 molecular gradient             ...        0 min,  0.001 sec ( 25.471%)
 printout                       ...        0 min,  0.000 sec (  3.029%)

         :::::::::::::::::::::::::::::::::::::::::::::::::::::
         ::                     SUMMARY                     ::
         :::::::::::::::::::::::::::::::::::::::::::::::::::::
         :: total energy              -8.563222239019 Eh    ::
         :: gradient norm              0.168845891417 Eh/a0 ::
         :: HOMO-LUMO gap              0.525666756258 eV    ::
         ::.................................................::
         :: SCC energy                -8.637370123686 Eh    ::
         :: -> isotropic ES           -0.029692879818 Eh    ::
         :: -> anisotropic ES          0.000405971230 Eh    ::
         :: -> anisotropic XC          0.009155185412 Eh    ::
         :: -> dispersion             -0.002184976009 Eh    ::
         :: repulsion energy           0.074147805389 Eh    ::
         :: add. restraining           0.000000000000 Eh    ::
         :::::::::::::::::::::::::::::::::::::::::::::::::::::

      ----------------------------------------------------------- 
     |                   =====================                   |
     |                        A N C O P T                        |
     |                   =====================                   |
     |               Approximate Normal Coordinate               |
     |                Rational Function Optimizer                |
      ----------------------------------------------------------- 

          ...................................................
          :                      SETUP                      :
          :.................................................:
          :   optimization level            normal          :
          :   max. optcycles                   200          :
          :   ANC micro-cycles                  20          :
          :   degrees of freedom                 9          :
          :.................................................:
          :   RF solver                   davidson          :
          :   write xtbopt.log                true          :
          :   linear?                        false          :
          :   energy convergence         0.5000000E-05 Eh   :
          :   grad. convergence          0.1000000E-02 Eh/α :
          :   maximium RF displ.         1.0000000          :
          :   Hlow (freq-cutoff)         0.1000000E-01      :
          :   Hmax (freq-cutoff)         5.0000000          :
          :   S6 in model hess.         20.0000000          :
          ...................................................

generating ANC from model Hessian ...
Using Lindh-Hessian (1995)
 Shifting diagonal of input Hessian by    0.0000000000000000     
 Lowest  eigenvalues of input Hessian
   -0.000000   -0.000000    0.000000    0.000000    0.000000    0.000000
    0.050478    0.065048    0.095012    0.127088    0.369599    0.713735
    0.804628    1.123497    1.397867
 Highest eigenvalues
    0.127088    0.369599    0.713735    0.804628    1.123497    1.397867


........................................................................
.............................. CYCLE    1 ..............................
........................................................................
   1     -8.6373701 -0.863737E+01  0.865E-06    0.53       0.0  T
   2     -8.6373701  0.299565E-10  0.531E-05    0.53     841.5  T
   3     -8.6373701 -0.298339E-10  0.744E-06    0.53    6011.4  T
     SCC iter.                  ...        0 min,  0.001 sec
     gradient                   ...        0 min,  0.001 sec
 * total energy  :    -8.5632222 Eh     change       -0.6074430E-10 Eh
   gradient norm :     0.1688459 Eh/α   predicted     0.0000000E+00 (-100.00%)
   displ. norm   :     0.3103000 α      lambda       -0.4059095E-01
   maximum displ.:     0.2077633 α      in ANC's #4, #7, #5, ...

........................................................................
.............................. CYCLE    2 ..............................
........................................................................
   1     -8.6567064 -0.865671E+01  0.411E+00    0.80       0.0  T
   2     -7.9780096  0.678697E+00  0.749E+00    2.07       1.0  T
   3     -8.4437332 -0.465724E+00  0.522E+00    0.41       1.0  T
   4     -8.7028739 -0.259141E+00  0.214E+00    1.11       1.0  T
   5     -8.7001352  0.273869E-02  0.160E+00    1.32       1.0  T
   6     -8.7021435 -0.200828E-02  0.148E+00    1.29       1.0  T
   7     -8.7029671 -0.823612E-03  0.912E-01    1.28       1.0  T
   8     -8.7046581 -0.169100E-02  0.666E-01    1.23       1.0  T
   9     -8.7047657 -0.107584E-03  0.524E-01    1.22       1.0  T
  10     -8.7049258 -0.160165E-03  0.420E-01    1.21       1.0  T
  11     -8.7053209 -0.395031E-03  0.127E-01    1.18       1.0  T
  12     -8.7053637 -0.428264E-04  0.313E-02    1.17       1.4  T
  13     -8.7053687 -0.499242E-05  0.137E-02    1.17       3.3  T
  14     -8.7053690 -0.340959E-06  0.274E-03    1.17      16.3  T
  15     -8.7053690 -0.329960E-08  0.412E-04    1.17     108.6  T
  16     -8.7053690 -0.534110E-09  0.706E-05    1.17     633.3  T
     SCC iter.                  ...        0 min,  0.001 sec
     gradient                   ...        0 min,  0.001 sec
 * total energy  :    -8.6024366 Eh     change       -0.3921440E-01 Eh
   gradient norm :     0.1873116 Eh/α   predicted    -0.2224965E-01 ( -43.26%)
   displ. norm   :     0.8889931 α      lambda       -0.1356463E+00
   maximum displ.:     0.6265889 α      in ANC's #7, #4, #8, ...

........................................................................
.............................. CYCLE    3 ..............................
........................................................................
   1     -8.9514314 -0.895143E+01  0.646E+00    1.40       0.0  T
   2     -8.7818140  0.169617E+00  0.563E+00    2.85       1.0  T
   3     -8.8978398 -0.116026E+00  0.452E+00    0.92       1.0  T
   4     -8.9761126 -0.782728E-01  0.156E+00    1.50       1.0  T
   5     -8.9843480 -0.823539E-02  0.115E+00    1.70       1.0  T
   6     -8.9864959 -0.214785E-02  0.921E-01    1.79       1.0  T
   7     -8.9889543 -0.245844E-02  0.326E-01    1.95       1.0  T
   8     -8.9894507 -0.496394E-03  0.539E-02    2.05       1.0  T
   9     -8.9894661 -0.153370E-04  0.149E-02    2.06       3.0  T
  10     -8.9894665 -0.429861E-06  0.526E-03    2.07       8.5  T
  11     -8.9894665 -0.366076E-07  0.245E-03    2.07      18.3  T
  12     -8.9894665 -0.138889E-07  0.576E-04    2.07      77.6  T
  13     -8.9894665 -0.696746E-09  0.773E-05    2.07     578.6  T
     SCC iter.                  ...        0 min,  0.001 sec
     gradient                   ...        0 min,  0.001 sec
 * total energy  :    -8.4062727 Eh     change        0.1961640E+00 Eh
   gradient norm :     1.3699213 Eh/α   predicted    -0.1214243E+00 (-161.90%)
   displ. norm   :     0.4497875 α      lambda       -0.5820070E+00
   maximum displ.:     0.3352226 α      in ANC's #7, #8, #5, ...

........................................................................
.............................. CYCLE    4 ..............................
........................................................................
   1     -8.8091299 -0.880913E+01  0.419E+00    2.60       0.0  T
   2     -8.7921065  0.170234E-01  0.294E+00    1.90       1.0  T
   3     -8.7940071 -0.190065E-02  0.267E+00    2.86       1.0  T
   4     -8.8234610 -0.294539E-01  0.305E-01    2.44       1.0  T
   5     -8.8237572 -0.296163E-03  0.180E-01    2.52       1.0  T
   6     -8.8237882 -0.310283E-04  0.706E-02    2.51       1.0  T
   7     -8.8237953 -0.710915E-05  0.297E-02    2.51       1.5  T
   8     -8.8238013 -0.600836E-05  0.106E-02    2.51       4.2  T
   9     -8.8238014 -0.720300E-07  0.180E-03    2.51      24.8  T
  10     -8.8238014 -0.156377E-07  0.471E-04    2.51      94.9  T
  11     -8.8238014 -0.874763E-09  0.103E-04    2.51     432.6  T
     SCC iter.                  ...        0 min,  0.001 sec
     gradient                   ...        0 min,  0.001 sec
 * total energy  :    -8.6465227 Eh     change       -0.2402501E+00 Eh
   gradient norm :     0.0947660 Eh/α   predicted    -0.3498761E+00 (  45.63%)
   displ. norm   :     0.4799545 α      lambda       -0.2282183E-01
   maximum displ.:     0.4510978 α      in ANC's #3, #4, #8, ...

........................................................................
.............................. CYCLE    5 ..............................
........................................................................
   1     -8.8194955 -0.881950E+01  0.245E+00    2.11       0.0  T
   2     -8.8189732  0.522271E-03  0.147E+00    2.37       1.0  T
   3     -8.8106093  0.836392E-02  0.143E+00    2.01       1.0  T
   4     -8.8212199 -0.106107E-01  0.197E-01    2.22       1.0  T
   5     -8.8213855 -0.165577E-03  0.307E-02    2.24       1.5  T
   6     -8.8213852  0.325951E-06  0.130E-02    2.23       3.4  T
   7     -8.8213858 -0.637068E-06  0.223E-03    2.24      20.0  T
   8     -8.8213858  0.547034E-07  0.307E-03    2.24      14.6  T
   9     -8.8213858 -0.671919E-07  0.346E-04    2.24     129.3  T
  10     -8.8213858 -0.121094E-10  0.105E-04    2.24     427.8  T
     SCC iter.                  ...        0 min,  0.001 sec
     gradient                   ...        0 min,  0.001 sec
 * total energy  :    -8.6632519 Eh     change       -0.1672913E-01 Eh
   gradient norm :     0.0364170 Eh/α   predicted    -0.1403948E-01 ( -16.08%)
   displ. norm   :     0.2416722 α      lambda       -0.4317700E-02
   maximum displ.:     0.2378624 α      in ANC's #3, #9, #4, ...

........................................................................
.............................. CYCLE    6 ..............................
........................................................................
   1     -8.8091664 -0.880917E+01  0.140E+00    1.89       0.0  T
   2     -8.8092968 -0.130389E-03  0.785E-01    1.97       1.0  T
   3     -8.8089083  0.388482E-03  0.314E-01    1.86       1.0  T
   4     -8.8093432 -0.434856E-03  0.842E-02    1.94       1.0  T
   5     -8.8093829 -0.396883E-04  0.244E-02    1.93       1.8  T
   6     -8.8093793  0.353304E-05  0.257E-02    1.93       1.7  T
   7     -8.8093839 -0.455454E-05  0.527E-03    1.93       8.5  T
   8     -8.8093839 -0.442351E-07  0.179E-03    1.93      25.0  T
   9     -8.8093840 -0.645408E-08  0.380E-04    1.93     117.8  T
  10     -8.8093840 -0.643148E-10  0.317E-05    1.93    1409.5  T
     SCC iter.                  ...        0 min,  0.001 sec
     gradient                   ...        0 min,  0.001 sec
 * total energy  :    -8.6636413 Eh     change       -0.3894727E-03 Eh
   gradient norm :     0.0425848 Eh/α   predicted    -0.2284942E-02 ( 486.68%)
   displ. norm   :     0.1325831 α      lambda       -0.2940089E-02
   maximum displ.:     0.1057595 α      in ANC's #3, #4, #5, ...

........................................................................
.............................. CYCLE    7 ..............................
........................................................................
   1     -8.8114372 -0.881144E+01  0.795E-01    2.14       0.0  T
   2     -8.8114550 -0.178051E-04  0.467E-01    2.06       1.0  T
   3     -8.8107974  0.657626E-03  0.401E-01    2.17       1.0  T
   4     -8.8116038 -0.806415E-03  0.809E-02    2.11       1.0  T
   5     -8.8116329 -0.291374E-04  0.190E-02    2.10       2.4  T
   6     -8.8116290  0.390437E-05  0.258E-02    2.10       1.7  T
   7     -8.8116337 -0.461759E-05  0.372E-03    2.10      12.0  T
   8     -8.8116337 -0.130921E-07  0.129E-03    2.10      34.8  T
   9     -8.8116337 -0.324478E-08  0.238E-04    2.10     188.0  T
  10     -8.8116337 -0.127400E-10  0.218E-05    2.10    2053.9  T
     SCC iter.                  ...        0 min,  0.001 sec
     gradient                   ...        0 min,  0.001 sec
 * total energy  :    -8.6650879 Eh     change       -0.1446571E-02 Eh
   gradient norm :     0.0124607 Eh/α   predicted    -0.1495885E-02 (   3.41%)
   displ. norm   :     0.0218457 α      lambda       -0.1323177E-03
   maximum displ.:     0.0172463 α      in ANC's #4, #9, #3, ...

........................................................................
.............................. CYCLE    8 ..............................
........................................................................
   1     -8.8107008 -0.881070E+01  0.523E-02    2.11       0.0  T
   2     -8.8106998  0.102545E-05  0.383E-02    2.10       1.2  T
   3     -8.8106952  0.463930E-05  0.359E-02    2.11       1.2  T
   4     -8.8106984 -0.325816E-05  0.222E-02    2.11       2.0  T
   5     -8.8107021 -0.371891E-05  0.443E-03    2.11      10.1  T
   6     -8.8107022 -0.803945E-07  0.176E-03    2.11      25.4  T
   7     -8.8107022 -0.957971E-09  0.162E-04    2.11     276.5  T
   8     -8.8107022 -0.102869E-10  0.590E-05    2.11     757.6  T
     SCC iter.                  ...        0 min,  0.001 sec
     gradient                   ...        0 min,  0.001 sec
 * total energy  :    -8.6651885 Eh     change       -0.1006146E-03 Eh
   gradient norm :     0.0084930 Eh/α   predicted    -0.6618985E-04 ( -34.21%)
   displ. norm   :     0.0404879 α      lambda       -0.1423591E-03
   maximum displ.:     0.0297163 α      in ANC's #1, #4, #9, ...

........................................................................
.............................. CYCLE    9 ..............................
........................................................................
   1     -8.8103930 -0.881039E+01  0.218E-01    2.12       0.0  T
   2     -8.8103479  0.450700E-04  0.150E-01    2.12       1.0  T
   3     -8.8100286  0.319326E-03  0.231E-01    2.12       1.0  T
   4     -8.8104033 -0.374757E-03  0.118E-02    2.12       3.8  T
   5     -8.8104035 -0.210735E-06  0.716E-03    2.12       6.2  T
   6     -8.8104036 -0.294310E-07  0.424E-03    2.12      10.5  T
   7     -8.8104037 -0.764614E-07  0.646E-04    2.12      69.2  T
   8     -8.8104037 -0.643301E-09  0.289E-04    2.12     154.8  T
     SCC iter.                  ...        0 min,  0.001 sec
     gradient                   ...        0 min,  0.001 sec
 * total energy  :    -8.6653293 Eh     change       -0.1407788E-03 Eh
   gradient norm :     0.0084459 Eh/α   predicted    -0.7129574E-04 ( -49.36%)
   displ. norm   :     0.9893371 α      lambda       -0.3482759E-02
   maximum displ.:     0.7416480 α      in ANC's #1, #4, #9, ...

........................................................................
.............................. CYCLE   10 ..............................
........................................................................
   1     -8.7160328 -0.871603E+01  0.509E+00    2.66       0.0  T
   2     -8.5160359  0.199997E+00  0.560E+00    2.62       1.0  T
   3     -8.6653730 -0.149337E+00  0.385E+00    2.56       1.0  T
   4     -8.6077207  0.576523E-01  0.493E+00    2.62       1.0  T
   5     -8.7481890 -0.140468E+00  0.899E-01    2.76       1.0  T
   6     -8.7500592 -0.187016E-02  0.618E-01    2.77       1.0  T
   7     -8.7508219 -0.762773E-03  0.387E-01    2.77       1.0  T
   8     -8.7514725 -0.650616E-03  0.202E-01    2.78       1.0  T
   9     -8.7514633  0.920542E-05  0.133E-01    2.78       1.0  T
  10     -8.7515412 -0.778720E-04  0.375E-02    2.77       1.2  T
  11     -8.7515417 -0.535937E-06  0.242E-02    2.77       1.8  T
  12     -8.7515432 -0.144052E-05  0.145E-02    2.77       3.1  T
  13     -8.7515432 -0.167679E-07  0.739E-03    2.77       6.1  T
  14     -8.7515433 -0.129736E-06  0.258E-04    2.77     173.6  T
  15     -8.7515433  0.148426E-08  0.889E-04    2.77      50.3  T
     SCC iter.                  ...        0 min,  0.001 sec
     gradient                   ...        0 min,  0.001 sec
 * total energy  :    -8.6507304 Eh     change        0.1459891E-01 Eh
   gradient norm :     0.1633922 Eh/α   predicted    -0.3445788E-02 (-123.60%)
   displ. norm   :     0.5502904 α      lambda       -0.3324655E-01
   maximum displ.:     0.4044162 α      in ANC's #1, #4, #9, ...

........................................................................
.............................. CYCLE   11 ..............................
........................................................................
   1     -8.7979620 -0.879796E+01  0.289E+00    2.41       0.0  T
   2     -8.6495495  0.148412E+00  0.462E+00    2.63       1.0  T
   3     -8.7944680 -0.144919E+00  0.184E+00    2.29       1.0  T
   4     -8.7805867  0.138813E-01  0.182E+00    2.45       1.0  T
   5     -8.8031431 -0.225564E-01  0.872E-01    2.43       1.0  T
   6     -8.8040168 -0.873628E-03  0.748E-01    2.43       1.0  T
   7     -8.8042511 -0.234291E-03  0.702E-01    2.44       1.0  T
   8     -8.8059912 -0.174011E-02  0.303E-01    2.49       1.0  T
   9     -8.8061284 -0.137284E-03  0.249E-01    2.50       1.0  T
  10     -8.8063956 -0.267108E-03  0.389E-02    2.53       1.2  T
  11     -8.8064015 -0.591446E-05  0.991E-03    2.53       4.5  T
  12     -8.8064019 -0.412614E-06  0.111E-03    2.53      40.4  T
  13     -8.8064019 -0.585569E-09  0.989E-04    2.53      45.2  T
  14     -8.8064019 -0.394069E-08  0.387E-04    2.53     115.6  T
     SCC iter.                  ...        0 min,  0.001 sec
     gradient                   ...        0 min,  0.001 sec
 * total energy  :    -8.6663056 Eh     change       -0.1557517E-01 Eh
   gradient norm :     0.0920398 Eh/α   predicted    -0.2165707E-01 (  39.05%)
   displ. norm   :     0.1125642 α      lambda       -0.1359135E-02
   maximum displ.:     0.0675369 α      in ANC's #1, #4, #9, ...

........................................................................
.............................. CYCLE   12 ..............................
........................................................................
   1     -8.8048577 -0.880486E+01  0.581E-01    2.36       0.0  T
   2     -8.8042170  0.640722E-03  0.461E-01    2.33       1.0  T
   3     -8.8032751  0.941970E-03  0.530E-01    2.35       1.0  T
   4     -8.8048505 -0.157549E-02  0.174E-01    2.35       1.0  T
   5     -8.8050376 -0.187063E-03  0.235E-02    2.34       1.9  T
   6     -8.8050374  0.164982E-06  0.161E-02    2.33       2.8  T
   7     -8.8050380 -0.534681E-06  0.423E-03    2.34      10.6  T
   8     -8.8050380 -0.428820E-07  0.126E-03    2.33      35.5  T
   9     -8.8050380 -0.903960E-09  0.177E-04    2.33     252.2  T
  10     -8.8050380 -0.164189E-10  0.254E-05    2.33    1759.7  T
     SCC iter.                  ...        0 min,  0.001 sec
     gradient                   ...        0 min,  0.001 sec
 * total energy  :    -8.6664495 Eh     change       -0.1438966E-03 Eh
   gradient norm :     0.0594571 Eh/α   predicted    -0.6881824E-03 ( 378.25%)
   displ. norm   :     0.0675660 α      lambda       -0.9318008E-03
   maximum displ.:     0.0501653 α      in ANC's #4, #1, #9, ...

........................................................................
.............................. CYCLE   13 ..............................
........................................................................
   1     -8.8076458 -0.880765E+01  0.354E-01    2.42       0.0  T
   2     -8.8073357  0.310146E-03  0.303E-01    2.45       1.0  T
   3     -8.8072733  0.623161E-04  0.289E-01    2.43       1.0  T
   4     -8.8075984 -0.325110E-03  0.155E-01    2.43       1.0  T
   5     -8.8077557 -0.157274E-03  0.192E-02    2.44       2.3  T
   6     -8.8077564 -0.694419E-06  0.137E-02    2.44       3.3  T
   7     -8.8077567 -0.260210E-06  0.132E-03    2.44      34.0  T
   8     -8.8077567 -0.264591E-08  0.678E-04    2.44      66.0  T
   9     -8.8077567 -0.199497E-09  0.925E-05    2.44     483.7  T
     SCC iter.                  ...        0 min,  0.001 sec
     gradient                   ...        0 min,  0.001 sec
 * total energy  :    -8.6670941 Eh     change       -0.6446365E-03 Eh
   gradient norm :     0.0720540 Eh/α   predicted    -0.4680273E-03 ( -27.40%)
   displ. norm   :     0.0548397 α      lambda       -0.7900799E-03
   maximum displ.:     0.0403965 α      in ANC's #1, #4, #9, ...

........................................................................
.............................. CYCLE   14 ..............................
........................................................................
   1     -8.8109535 -0.881095E+01  0.340E-01    2.54       0.0  T
   2     -8.8105886  0.364922E-03  0.310E-01    2.55       1.0  T
   3     -8.8105637  0.249244E-04  0.283E-01    2.54       1.0  T
   4     -8.8109735 -0.409805E-03  0.976E-02    2.54       1.0  T
   5     -8.8110322 -0.586849E-04  0.144E-02    2.54       3.1  T
   6     -8.8110323 -0.986979E-07  0.581E-03    2.54       7.7  T
   7     -8.8110324 -0.923449E-07  0.201E-03    2.54      22.2  T
   8     -8.8110324 -0.193858E-07  0.621E-04    2.54      72.0  T
   9     -8.8110324 -0.170518E-09  0.820E-05    2.54     545.3  T
     SCC iter.                  ...        0 min,  0.001 sec
     gradient                   ...        0 min,  0.001 sec
 * total energy  :    -8.6677760 Eh     change       -0.6818531E-03 Eh
   gradient norm :     0.0821866 Eh/α   predicted    -0.3962273E-03 ( -41.89%)
   displ. norm   :     0.2435427 α      lambda       -0.3747763E-02
   maximum displ.:     0.1996184 α      in ANC's #1, #4, #5, ...

........................................................................
.............................. CYCLE   15 ..............................
........................................................................
   1     -8.8022127 -0.880221E+01  0.284E+00    2.90       0.0  T
   2     -8.7457190  0.564937E-01  0.334E+00    2.52       1.0  T
   3     -8.8160278 -0.703087E-01  0.138E+00    2.89       1.0  T
   4     -8.8154219  0.605881E-03  0.104E+00    2.92       1.0  T
   5     -8.8220439 -0.662202E-02  0.377E-01    2.89       1.0  T
   6     -8.8223898 -0.345880E-03  0.215E-01    2.88       1.0  T
   7     -8.8225043 -0.114552E-03  0.794E-02    2.89       1.0  T
   8     -8.8225192 -0.148566E-04  0.154E-02    2.89       2.9  T
   9     -8.8225168  0.237644E-05  0.266E-02    2.89       1.7  T
  10     -8.8225195 -0.270010E-05  0.950E-03    2.89       4.7  T
  11     -8.8225197 -0.233250E-06  0.506E-03    2.89       8.8  T
  12     -8.8225198 -0.921192E-07  0.122E-03    2.89      36.7  T
  13     -8.8225198 -0.574784E-08  0.615E-05    2.89     727.7  T
  14     -8.8225198 -0.126494E-10  0.266E-05    2.89    1681.6  T
     SCC iter.                  ...        0 min,  0.001 sec
     gradient                   ...        0 min,  0.001 sec
 * total energy  :    -8.6716175 Eh     change       -0.3841592E-02 Eh
   gradient norm :     0.1106015 Eh/α   predicted    -0.1985032E-02 ( -48.33%)
   displ. norm   :     0.2630521 α      lambda       -0.5357325E-02
   maximum displ.:     0.1973079 α      in ANC's #1, #4, #3, ...

........................................................................
.............................. CYCLE   16 ..............................
........................................................................
   1     -8.8101505 -0.881015E+01  0.303E+00    2.90       0.0  T
   2     -8.7255592  0.845913E-01  0.401E+00    2.87       1.0  T
   3     -8.8209256 -0.953664E-01  0.191E+00    2.94       1.0  T
   4     -8.8303692 -0.944356E-02  0.648E-01    2.95       1.0  T
   5     -8.8324480 -0.207884E-02  0.385E-01    2.98       1.0  T
   6     -8.8323540  0.939864E-04  0.306E-01    2.98       1.0  T
   7     -8.8326329 -0.278897E-03  0.752E-02    2.98       1.0  T
   8     -8.8326621 -0.291369E-04  0.254E-02    2.99       1.8  T
   9     -8.8326624 -0.388710E-06  0.184E-02    2.99       2.4  T
  10     -8.8326631 -0.695444E-06  0.738E-04    2.99      60.6  T
  11     -8.8326631 -0.646253E-09  0.428E-04    2.99     104.4  T
     SCC iter.                  ...        0 min,  0.001 sec
     gradient                   ...        0 min,  0.001 sec
 * total energy  :    -8.6771734 Eh     change       -0.5555832E-02 Eh
   gradient norm :     0.1132641 Eh/α   predicted    -0.2864016E-02 ( -48.45%)
   displ. norm   :     0.8091558 α      lambda       -0.2250693E-01
   maximum displ.:     0.5543227 α      in ANC's #1, #4, #6, ...

........................................................................
.............................. CYCLE   17 ..............................
........................................................................
   1     -8.8450842 -0.884508E+01  0.584E+00    0.41       0.0  T
   2     -8.8128267  0.322575E-01  0.467E+00    0.36       1.0  T
   3     -8.6995079  0.113319E+00  0.463E+00    1.21       1.0  T
   4     -8.8503066 -0.150799E+00  0.955E-01    0.43       1.0  T
   5     -8.8523085 -0.200190E-02  0.544E-01    0.34       1.0  T
   6     -8.8520510  0.257467E-03  0.481E-01    0.34       1.0  T
   7     -8.8519489  0.102050E-03  0.587E-01    0.38       1.0  T
   8     -8.8532518 -0.130289E-02  0.501E-02    0.33       1.0  T
   9     -8.8532604 -0.854405E-05  0.126E-02    0.33       3.5  T
  10     -8.8532605 -0.139988E-06  0.367E-03    0.33      12.2  T
  11     -8.8532606 -0.491982E-07  0.763E-04    0.33      58.6  T
  12     -8.8532606 -0.180698E-08  0.286E-04    0.33     156.6  T
     SCC iter.                  ...        0 min,  0.001 sec
     gradient                   ...        0 min,  0.001 sec
 * total energy  :    -8.6359873 Eh     change        0.4118609E-01 Eh
   gradient norm :     0.3686748 Eh/α   predicted    -0.1862146E-01 (-145.21%)
   displ. norm   :     0.2919149 α      lambda       -0.9286711E-01
   maximum displ.:     0.1755567 α      in ANC's #3, #1, #2, ...

........................................................................
.............................. CYCLE   18 ..............................
........................................................................
   1     -8.8384541 -0.883845E+01  0.327E+00    0.93       0.0  T
   2     -8.8271880  0.112660E-01  0.274E+00    0.64       1.0  T
   3     -8.8279349 -0.746900E-03  0.193E+00    0.68       1.0  T
   4     -8.8409504 -0.130155E-01  0.951E-01    0.94       1.0  T
   5     -8.8465915 -0.564107E-02  0.215E-01    0.73       1.0  T
   6     -8.8466231 -0.316338E-04  0.165E-01    0.74       1.0  T
   7     -8.8466252 -0.203623E-05  0.834E-02    0.72       1.0  T
   8     -8.8466666 -0.414472E-04  0.128E-02    0.72       3.5  T
   9     -8.8466667 -0.997062E-07  0.165E-03    0.72      27.2  T
  10     -8.8466667 -0.708169E-08  0.745E-04    0.72      60.0  T
  11     -8.8466667 -0.972918E-09  0.132E-04    0.72     339.6  T
     SCC iter.                  ...        0 min,  0.001 sec
     gradient                   ...        0 min,  0.001 sec
 * total energy  :    -8.6892151 Eh     change       -0.5322785E-01 Eh
   gradient norm :     0.1275831 Eh/α   predicted    -0.5039034E-01 (  -5.33%)
   displ. norm   :     0.6167930 α      lambda       -0.4138415E-01
   maximum displ.:     0.4274591 α      in ANC's #1, #2, #9, ...

........................................................................
.............................. CYCLE   19 ..............................
........................................................................
   1     -8.8367300 -0.883673E+01  0.315E+00    2.88       0.0  T
   2     -8.7775453  0.591847E-01  0.358E+00    2.93       1.0  T
   3     -8.8442173 -0.666720E-01  0.179E+00    2.93       1.0  T
   4     -8.8524940 -0.827670E-02  0.536E-01    2.93       1.0  T
   5     -8.8541685 -0.167451E-02  0.231E-01    2.95       1.0  T
   6     -8.8543132 -0.144628E-03  0.126E-01    2.97       1.0  T
   7     -8.8543489 -0.357354E-04  0.284E-02    2.96       1.6  T
   8     -8.8543525 -0.363971E-05  0.606E-03    2.96       7.4  T
   9     -8.8543525 -0.577646E-08  0.168E-03    2.96      26.6  T
  10     -8.8543525 -0.659303E-08  0.509E-04    2.96      87.9  T
  11     -8.8543525 -0.538559E-09  0.120E-04    2.96     372.6  T
     SCC iter.                  ...        0 min,  0.001 sec
     gradient                   ...        0 min,  0.001 sec
 * total energy  :    -8.7011008 Eh     change       -0.1188561E-01 Eh
   gradient norm :     0.1034685 Eh/α   predicted    -0.2856401E-01 ( 140.32%)
   displ. norm   :     0.2340382 α      lambda       -0.1351908E-01
   maximum displ.:     0.1801948 α      in ANC's #1, #6, #2, ...

........................................................................
.............................. CYCLE   20 ..............................
........................................................................
   1     -8.8541648 -0.885416E+01  0.136E+00    2.16       0.0  T
   2     -8.8534710  0.693836E-03  0.848E-01    2.10       1.0  T
   3     -8.8432634  0.102076E-01  0.120E+00    2.14       1.0  T
   4     -8.8543725 -0.111092E-01  0.138E-01    2.15       1.0  T
   5     -8.8544724 -0.999075E-04  0.459E-02    2.12       1.0  T
   6     -8.8544805 -0.808122E-05  0.250E-02    2.12       1.8  T
   7     -8.8544814 -0.868778E-06  0.444E-03    2.12      10.1  T
   8     -8.8544814 -0.390739E-07  0.171E-03    2.12      26.2  T
   9     -8.8544814 -0.291605E-08  0.117E-04    2.12     380.6  T
  10     -8.8544814 -0.671463E-11  0.398E-05    2.12    1123.5  T
     SCC iter.                  ...        0 min,  0.001 sec
     gradient                   ...        0 min,  0.001 sec
 * total energy  :    -8.7095503 Eh     change       -0.8449531E-02 Eh
   gradient norm :     0.0652249 Eh/α   predicted    -0.7129788E-02 ( -15.62%)
   displ. norm   :     0.0655958 α      lambda       -0.2287616E-02
   maximum displ.:     0.0410935 α      in ANC's #1, #6, #8, ...
 * RMSD in coord.:     0.9516835 α      energy gain  -0.1463280E+00 Eh

generating ANC from model Hessian ...
Using Lindh-Hessian (1995)
 Shifting diagonal of input Hessian by    0.0000000000000000     
 Lowest  eigenvalues of input Hessian
   -0.000000   -0.000000   -0.000000   -0.000000    0.000000    0.000000
    0.074966    0.194197    0.242103    0.463762    0.723185    1.006636
    1.258518    1.339411    1.761988
 Highest eigenvalues
    0.463762    0.723185    1.006636    1.258518    1.339411    1.761988


........................................................................
.............................. CYCLE   21 ..............................
........................................................................
   1     -8.8525662 -0.885257E+01  0.522E-01    2.00       0.0  T
   2     -8.8520756  0.490588E-03  0.398E-01    1.99       1.0  T
   3     -8.8513404  0.735186E-03  0.443E-01    1.99       1.0  T
   4     -8.8527038 -0.136339E-02  0.213E-02    2.00       2.1  T
   5     -8.8527039 -0.889881E-07  0.142E-02    1.99       3.2  T
   6     -8.8527041 -0.191966E-06  0.391E-03    1.99      11.4  T
   7     -8.8527041 -0.199627E-08  0.347E-03    1.99      12.9  T
   8     -8.8527042 -0.854253E-07  0.712E-04    1.99      62.9  T
   9     -8.8527042 -0.415046E-09  0.994E-05    1.99     449.9  T
     SCC iter.                  ...        0 min,  0.001 sec
     gradient                   ...        0 min,  0.001 sec
 * total energy  :    -8.7110817 Eh     change       -0.1531408E-02 Eh
   gradient norm :     0.0535939 Eh/α   predicted     0.0000000E+00 (-100.00%)
   displ. norm   :     0.1900019 α      lambda       -0.5591495E-02
   maximum displ.:     0.1762838 α      in ANC's #1, #4, #3, ...

........................................................................
.............................. CYCLE   22 ..............................
........................................................................
   1     -8.8547727 -0.885477E+01  0.606E-01    1.94       0.0  T
   2     -8.8545377  0.235009E-03  0.417E-01    1.99       1.0  T
   3     -8.8532504  0.128728E-02  0.487E-01    1.96       1.0  T
   4     -8.8547551 -0.150472E-02  0.159E-01    1.94       1.0  T
   5     -8.8549170 -0.161860E-03  0.507E-02    1.96       1.0  T
   6     -8.8549314 -0.144552E-04  0.168E-02    1.97       2.7  T
   7     -8.8549316 -0.150185E-06  0.208E-03    1.97      21.5  T
   8     -8.8549316 -0.336818E-08  0.933E-04    1.97      47.9  T
   9     -8.8549316 -0.526125E-09  0.214E-04    1.97     209.3  T
     SCC iter.                  ...        0 min,  0.001 sec
     gradient                   ...        0 min,  0.001 sec
 * total energy  :    -8.7149224 Eh     change       -0.3840745E-02 Eh
   gradient norm :     0.0258567 Eh/α   predicted    -0.2896679E-02 ( -24.58%)
   displ. norm   :     0.1190176 α      lambda       -0.2158320E-02
   maximum displ.:     0.0807278 α      in ANC's #1, #4, #3, ...

........................................................................
.............................. CYCLE   23 ..............................
........................................................................
   1     -8.8555730 -0.885557E+01  0.452E-01    2.16       0.0  T
   2     -8.8553803  0.192712E-03  0.324E-01    2.22       1.0  T
   3     -8.8547846  0.595721E-03  0.365E-01    2.18       1.0  T
   4     -8.8556151 -0.830492E-03  0.131E-01    2.17       1.0  T
   5     -8.8557173 -0.102240E-03  0.205E-02    2.19       2.2  T
   6     -8.8557183 -0.104414E-05  0.120E-02    2.19       3.7  T
   7     -8.8557186 -0.273943E-06  0.138E-03    2.19      32.4  T
   8     -8.8557186 -0.270371E-08  0.669E-04    2.19      66.9  T
   9     -8.8557186 -0.267084E-09  0.110E-04    2.19     405.2  T
     SCC iter.                  ...        0 min,  0.001 sec
     gradient                   ...        0 min,  0.001 sec
 * total energy  :    -8.7162020 Eh     change       -0.1279518E-02 Eh
   gradient norm :     0.0114033 Eh/α   predicted    -0.1094446E-02 ( -14.46%)
   displ. norm   :     0.0355091 α      lambda       -0.2995261E-03
   maximum displ.:     0.0290671 α      in ANC's #4, #1, #3, ...

........................................................................
.............................. CYCLE   24 ..............................
........................................................................
   1     -8.8571994 -0.885720E+01  0.168E-01    2.28       0.0  T
   2     -8.8571698  0.296210E-04  0.122E-01    2.30       1.0  T
   3     -8.8570637  0.106040E-03  0.143E-01    2.28       1.0  T
   4     -8.8572008 -0.137082E-03  0.417E-02    2.28       1.1  T
   5     -8.8572125 -0.117310E-04  0.137E-02    2.29       3.3  T
   6     -8.8572136 -0.106658E-05  0.416E-03    2.29      10.8  T
   7     -8.8572136 -0.942235E-08  0.690E-04    2.29      64.8  T
   8     -8.8572136 -0.738355E-09  0.261E-04    2.29     171.2  T
     SCC iter.                  ...        0 min,  0.001 sec
     gradient                   ...        0 min,  0.001 sec
 * total energy  :    -8.7164053 Eh     change       -0.2033526E-03 Eh
   gradient norm :     0.0072710 Eh/α   predicted    -0.1499513E-03 ( -26.26%)
   displ. norm   :     0.0222492 α      lambda       -0.1122806E-03
   maximum displ.:     0.0154320 α      in ANC's #4, #5, #1, ...

........................................................................
.............................. CYCLE   25 ..............................
........................................................................
   1     -8.8580960 -0.885810E+01  0.116E-01    2.33       0.0  T
   2     -8.8580870  0.898848E-05  0.842E-02    2.33       1.0  T
   3     -8.8580494  0.375793E-04  0.855E-02    2.33       1.0  T
   4     -8.8580902 -0.407892E-04  0.366E-02    2.33       1.2  T
   5     -8.8581010 -0.107600E-04  0.492E-03    2.33       9.1  T
   6     -8.8581010 -0.496671E-07  0.249E-03    2.33      18.0  T
   7     -8.8581010 -0.992930E-08  0.454E-04    2.33      98.5  T
   8     -8.8581010 -0.168248E-09  0.122E-04    2.33     366.4  T
     SCC iter.                  ...        0 min,  0.001 sec
     gradient                   ...        0 min,  0.001 sec
 * total energy  :    -8.7164748 Eh     change       -0.6945209E-04 Eh
   gradient norm :     0.0034520 Eh/α   predicted    -0.5616816E-04 ( -19.13%)
   displ. norm   :     0.0108557 α      lambda       -0.2364999E-04
   maximum displ.:     0.0057456 α      in ANC's #5, #2, #1, ...

........................................................................
.............................. CYCLE   26 ..............................
........................................................................
   1     -8.8580847 -0.885808E+01  0.586E-02    2.33       0.0  T
   2     -8.8580852 -0.468056E-06  0.371E-02    2.32       1.2  T
   3     -8.8580830  0.212153E-05  0.279E-02    2.32       1.6  T
   4     -8.8580850 -0.196879E-05  0.148E-02    2.32       3.0  T
   5     -8.8580864 -0.136084E-05  0.425E-03    2.32      10.5  T
   6     -8.8580865 -0.110340E-06  0.165E-03    2.32      27.2  T
   7     -8.8580865 -0.381664E-08  0.237E-04    2.32     189.0  T
   8     -8.8580865 -0.475957E-10  0.488E-05    2.32     915.8  T
     SCC iter.                  ...        0 min,  0.001 sec
     gradient                   ...        0 min,  0.001 sec
 * total energy  :    -8.7164905 Eh     change       -0.1577279E-04 Eh
   gradient norm :     0.0014773 Eh/α   predicted    -0.1182710E-04 ( -25.02%)
   displ. norm   :     0.0108540 α      lambda       -0.7792316E-05
   maximum displ.:     0.0061693 α      in ANC's #1, #2, #5, ...

........................................................................
.............................. CYCLE   27 ..............................
........................................................................
   1     -8.8579004 -0.885790E+01  0.554E-02    2.30       0.0  T
   2     -8.8579004 -0.564842E-08  0.346E-02    2.29       1.3  T
   3     -8.8578946  0.577820E-05  0.368E-02    2.30       1.2  T
   4     -8.8578998 -0.519993E-05  0.227E-02    2.30       2.0  T
   5     -8.8579032 -0.340440E-05  0.238E-03    2.29      18.8  T
   6     -8.8579032  0.987135E-08  0.226E-03    2.29      19.8  T
   7     -8.8579032 -0.240627E-07  0.259E-04    2.29     172.4  T
   8     -8.8579032 -0.716032E-10  0.526E-05    2.29     850.2  T
     SCC iter.                  ...        0 min,  0.001 sec
     gradient                   ...        0 min,  0.001 sec
 * total energy  :    -8.7164953 Eh     change       -0.4771490E-05 Eh
   gradient norm :     0.0011320 Eh/α   predicted    -0.3894694E-05 ( -18.38%)
   displ. norm   :     0.0019543 α      lambda       -0.1010995E-05
   maximum displ.:     0.0010677 α      in ANC's #2, #8, #4, ...

........................................................................
.............................. CYCLE   28 ..............................
........................................................................
   1     -8.8579633 -0.885796E+01  0.115E-02    2.29       0.0  T
   2     -8.8579631  0.127944E-06  0.949E-03    2.29       4.7  T
   3     -8.8579632 -0.874579E-07  0.619E-03    2.29       7.2  T
   4     -8.8579633 -0.361804E-07  0.395E-03    2.29      11.3  T
   5     -8.8579634 -0.117487E-06  0.105E-03    2.29      42.7  T
   6     -8.8579634 -0.667536E-08  0.316E-04    2.29     141.6  T
   7     -8.8579634 -0.956462E-10  0.240E-05    2.29    1860.0  T
     SCC iter.                  ...        0 min,  0.001 sec
     gradient                   ...        0 min,  0.001 sec
 * total energy  :    -8.7164962 Eh     change       -0.8781668E-06 Eh
   gradient norm :     0.0002585 Eh/α   predicted    -0.5065742E-06 ( -42.31%)
   displ. norm   :     0.0011286 α      lambda       -0.9909743E-07
   maximum displ.:     0.0009275 α      in ANC's #1, #3, #5, ...

   *** GEOMETRY OPTIMIZATION CONVERGED AFTER 28 ITERATIONS ***

------------------------------------------------------------------------
 total energy gain   :        -0.1532739 Eh      -96.1808 kcal/mol
 total RMSD          :         0.9863824 a0        0.5220 Å
 total power (kW/mol):       -14.3721669 (step)-4225.8669 (real)
------------------------------------------------------------------------

 ANCopt (total)                0 d,  0 h,  0 min,  0.095 sec
 optimizer setup                ...        0 min,  0.000 sec (  0.082%)
 model hessian                  ...        0 min,  0.000 sec (  0.165%)
 ANC generation                 ...        0 min,  0.000 sec (  0.113%)
 coordinate transformation      ...        0 min,  0.000 sec (  0.061%)
 single point calculation       ...        0 min,  0.093 sec ( 97.198%)
 optimization log               ...        0 min,  0.001 sec (  0.750%)
 hessian update                 ...        0 min,  0.000 sec (  0.067%)
 rational function              ...        0 min,  0.001 sec (  0.669%)

================
 final structure:
================
5
 xtb: 6.2.2 (9d81278992624c895f80dd42a50cac0aa55982e2)
C         0.62684649536665   -0.80113635273100    0.30656760578853
C         0.31896722311241    0.44123039930317   -0.26705709761237
C        -0.88602897208098   -0.22158070355950   -0.54316389610521
C        -0.72894907787869   -0.86610555639512    0.70682016933802
H         0.66916333148061    1.44759221338244   -0.20316678140898

 Bond Distances (Angstroems)
 ---------------------------
C1-C2=1.4026         C1-C3=1.8294         C1-C4=1.4151         C2-C1=1.4026         C2-C3=1.4027         C2-C4=1.9380         
C2-H5=1.0675         C3-C1=1.8294         C3-C2=1.4027         C3-C4=1.4151         C4-C1=1.4151         C4-C2=1.9380         
C4-C3=1.4151         H5-C2=1.0675         
 C  H  Rav=1.0675 sigma=0.0000  Rmin=1.0675  Rmax=1.0675     1
 C  C  Rav=1.5672 sigma=0.2261  Rmin=1.4026  Rmax=1.9380     6

 selected bond angles (degree)
 --------------------
C3-C1-C2= 49.30                C4-C1-C2= 86.91                C4-C1-C3= 49.73                C3-C2-C1= 81.40                
C4-C2-C1= 46.82                C4-C2-C3= 46.81                H5-C2-C1=137.61                H5-C2-C3=137.65                
H5-C2-C4=141.56                C2-C3-C1= 49.30                C4-C3-C1= 49.73                C4-C3-C2= 86.90                
C2-C4-C1= 46.28                C3-C4-C1= 80.54                C3-C4-C2= 46.28                

 selected dihedral angles (degree)
 ---------------------------------
C3-C2-C1-C4=323.84            C4-C2-C1-C3= 36.16            H5-C2-C1-C3=160.58            H5-C2-C1-C4=124.42            
C2-C3-C1-C4=129.45            C4-C3-C1-C2=230.55            C1-C3-C2-C4=323.84            C1-C3-C2-H5=199.44            
C4-C3-C2-C1= 36.16            C4-C3-C2-H5=235.60            C2-C4-C1-C3=324.11            C3-C4-C1-C2= 35.89            
C1-C4-C3-C2=324.11            C2-C4-C3-C1= 35.89            
           -------------------------------------------------
          |                Final Singlepoint                |
           -------------------------------------------------

          ...................................................
          :                      SETUP                      :
          :.................................................:
          :  # basis functions                  17          :
          :  # atomic orbitals                  17          :
          :  # shells                            9          :
          :  # electrons                        17          :
          :  max. iterations                   250          :
          :  Hamiltonian                  GFN2-xTB          :
          :  restarted?                      false          :
          :  GBSA solvation                  false          :
          :  PC potential                    false          :
          :  electronic temp.          300.0000000     K    :
          :  accuracy                    1.0000000          :
          :  -> integral cutoff          0.2500000E+02      :
          :  -> integral neglect         0.1000000E-07      :
          :  -> SCF convergence          0.1000000E-05 Eh   :
          :  -> wf. convergence          0.1000000E-03 e    :
          :  Broyden damping             0.4000000          :
          ...................................................

 iter      E             dE          RMSdq      gap      omega  full diag
   1     -8.8579634 -0.885796E+01  0.402E-06    2.29       0.0  T
   2     -8.8579634  0.266454E-13  0.316E-06    2.29   14155.0  T
   3     -8.8579634 -0.177636E-14  0.302E-06    2.29   14826.9  T

   *** convergence criteria satisfied after 3 iterations ***

         #    Occupation            Energy/Eh            Energy/eV
      -------------------------------------------------------------
         1        2.0000           -0.7180951             -19.5404
       ...           ...                  ...                  ...
         3        2.0000           -0.6035180             -16.4226
         4        2.0000           -0.5628571             -15.3161
         5        2.0000           -0.5099373             -13.8761
         6        2.0000           -0.5073358             -13.8053
         7        2.0000           -0.4462817             -12.1439
         8        2.0000           -0.4204302             -11.4405
         9        1.0000           -0.3905741             -10.6281 (HOMO)
        10                         -0.3064581              -8.3391 (LUMO)
        11                         -0.2688553              -7.3159
        12                         -0.2459788              -6.6934
        13                          0.1030126               2.8031
        14                          0.1186718               3.2292
       ...                                ...                  ...
        17                          0.6430605              17.4986
      -------------------------------------------------------------
                  HL-Gap            0.0841160 Eh            2.2889 eV
             Fermi-level           -0.3770091 Eh          -10.2589 eV

 SCC (total)                   0 d,  0 h,  0 min,  0.003 sec
 SCC setup                      ...        0 min,  0.000 sec (  1.801%)
 Dispersion                     ...        0 min,  0.000 sec (  0.313%)
 integral evaluation            ...        0 min,  0.001 sec ( 38.231%)
 zeroth order Hamiltonian       ...        0 min,  0.000 sec (  0.524%)
 iterations                     ...        0 min,  0.000 sec ( 12.352%)
 molecular gradient             ...        0 min,  0.001 sec ( 44.657%)
 printout                       ...        0 min,  0.000 sec (  1.809%)

         :::::::::::::::::::::::::::::::::::::::::::::::::::::
         ::                     SUMMARY                     ::
         :::::::::::::::::::::::::::::::::::::::::::::::::::::
         :: total energy              -8.716496179146 Eh    ::
         :: gradient norm              0.000258647076 Eh/a0 ::
         :: HOMO-LUMO gap              2.288912506286 eV    ::
         ::.................................................::
         :: SCC energy                -8.857963385166 Eh    ::
         :: -> isotropic ES           -0.008349516913 Eh    ::
         :: -> anisotropic ES         -0.000022510109 Eh    ::
         :: -> anisotropic XC          0.007108618417 Eh    ::
         :: -> dispersion             -0.002016962741 Eh    ::
         :: repulsion energy           0.141467181618 Eh    ::
         :: add. restraining           0.000000000000 Eh    ::
         :::::::::::::::::::::::::::::::::::::::::::::::::::::

           ------------------------------------------------- 
          |                Numerical Hessian                |
           ------------------------------------------------- 
step length          :   0.00500
SCC accuracy         :   0.30000
Hessian scale factor :   1.00000
frozen atoms in %    :   0.00000    0
RMS gradient         :   0.00026
estimated CPU  time      0.00 min
estimated wall time      0.00 min

writing file <hessian>.

 projected vibrational frequencies (cm-1)
eigval :       -0.00    -0.00    -0.00     0.00     0.00     0.00
eigval :      523.34   624.87   744.42   750.31   914.95  1055.33
eigval :     1273.35  1462.34  3184.02
           -------------------------------------------------
          |                Property Printout                |
           -------------------------------------------------

    * Orbital Energies and Occupations

         #    Occupation            Energy/Eh            Energy/eV
      -------------------------------------------------------------
         1        2.0000           -0.7180950             -19.5404
         2        2.0000           -0.6232536             -16.9596
         3        2.0000           -0.6035180             -16.4226
         4        2.0000           -0.5628571             -15.3161
         5        2.0000           -0.5099372             -13.8761
         6        2.0000           -0.5073358             -13.8053
         7        2.0000           -0.4462817             -12.1439
         8        2.0000           -0.4204303             -11.4405
         9        1.0000           -0.3905740             -10.6281 (HOMO)
        10                         -0.3064581              -8.3392 (LUMO)
        11                         -0.2688553              -7.3159
        12                         -0.2459788              -6.6934
        13                          0.1030127               2.8031
        14                          0.1186717               3.2292
        15                          0.1799213               4.8959
        16                          0.2699673               7.3462
        17                          0.6430606              17.4986
      -------------------------------------------------------------
                  HL-Gap            0.0841159 Eh            2.2889 eV
             Fermi-level           -0.3770091 Eh          -10.2589 eV

     #   Z        covCN         q      C6AA      α(0)
     1   6 C      2.762    -0.039    28.949     8.811
     2   6 C      3.504     0.060    21.055     6.800
     3   6 C      2.762    -0.039    28.949     8.811
     4   6 C      2.577    -0.061    29.549     8.887
     5   1 H      0.927     0.079     1.990     2.206

 Mol. C6AA /au·bohr⁶  :        492.126548
 Mol. C8AA /au·bohr⁸  :      13601.270283
 Mol. α(0) /au        :         35.515790


Wiberg/Mayer (AO) data.
largest (>0.10) Wiberg bond orders for each atom
          total WBO             WBO to atom ...
     1  C   2.950        C    2 1.205    C    4 1.182    C    3 0.558
     2  C   3.857        C    1 1.205    C    3 1.205    H    5 0.954    C    4 0.492
     3  C   2.950        C    2 1.205    C    4 1.182    C    1 0.558
     4  C   2.886        C    3 1.182    C    1 1.182    C    2 0.492
     5  H   0.994        C    2 0.954

MOs/occ written to file <molden.input>


molecular dipole:
                 x           y           z       tot (Debye)
 q only:        0.240       0.442      -0.125
   full:        0.483       0.761      -0.339       2.448
molecular quadrupole (traceless):
                xx          xy          yy          xz          yz          zz
 q only:       -0.250       0.312       0.507      -0.057       0.065      -0.256
  q+dip:       -1.241       0.797       2.116       0.044       1.064      -0.875
   full:       -1.736       0.485       2.230      -0.056       1.991      -0.495

           -------------------------------------------------
          |                Geometry Summary                 |
           -------------------------------------------------

      molecular mass/u    :       49.0508844
   center of mass at/Å    :       -0.1501044      -0.3247142       0.0455742
  moments of inertia/u·Å² :        0.2329388E+02   0.2905625E+02   0.4595894E+02
rotational constants/cm⁻¹ :        0.7236935E+00   0.5801724E+00   0.3667977E+00

 * 3 selected distances

     #   Z        #   Z                                     value/Å
     1   6 C      2   6 C                                 1.4026083
     2   6 C      3   6 C                                 1.4027007 (max)
     2   6 C      5   1 H                                 1.0674659 (min)

 * 2 distinct bonds (by element types)

   Z      Z             #   av. dist./Å        max./Å        min./Å
   1 H    6 C           1     1.0674659     1.0674659     1.0674659
   6 C    6 C           2     1.4026545     1.4027007     1.4026083

           -------------------------------------------------
          |               Frequency Printout                |
           -------------------------------------------------
 projected vibrational frequencies (cm-1)
eigval :       -0.00    -0.00    -0.00     0.00     0.00     0.00
eigval :      523.34   624.87   744.42   750.31   914.95  1055.33
Molecule has the following symmetry elements: (sigma) 
It seems to be the Cs point group
eigval :     1273.35  1462.34  3184.02
 reduced masses (amu)
   1: 11.86   2: 11.57   3: 11.94   4: 11.22   5: 11.86   6: 10.39   7:  9.96   8:  9.76
   9: 11.78  10:  7.19  11:  3.75  12: 10.80  13: 11.50  14: 11.62  15:  1.96
 IR intensities (amu)
   1:  0.07   2:  0.10   3:  0.10   4:  0.10   5:  0.08   6:  0.19   7:  0.07   8:  0.36
   9:  0.76  10:  0.22  11:  0.58  12:  1.62  13:  0.76  14:  0.21  15:  0.06
 Raman intensities (amu)
   1:  0.00   2:  0.00   3:  0.00   4:  0.00   5:  0.00   6:  0.00   7:  0.00   8:  0.00
   9:  0.00  10:  0.00  11:  0.00  12:  0.00  13:  0.00  14:  0.00  15:  0.00
 output can be read by thermo (or use thermo option).
 writing <g98.out> molden fake output.
 recommended (thermochemical) frequency scaling factor: 1.0
           -------------------------------------------------
          |             Thermodynamic Functions             |
           -------------------------------------------------

cs  symmetry found (for desy threshold:  0.10E+00) used in thermo

          ...................................................
          :                      SETUP                      :
          :.................................................:
          :  # frequencies                           9      :
          :  # imaginary freq.                       0      :
          :  linear?                             false      :
          :  only rotor calc.                    false      :
          :  symmetry                               cs      :
          :  rotational number                       1      :
          :  scaling factor                  1.0000000      :
          :  rotor cutoff                   50.0000000 cm⁻¹ :
          :  imag. cutoff                  -20.0000000 cm⁻¹ :
          :.................................................:

    mode    ω/cm⁻¹     T·S(HO)/kcal·mol⁻¹    T·S(FR)/kcal·mol⁻¹   T·S(vib)
   ------------------------------------------------------------------------
   ------------------------------------------------------------------------

   temp. (K)  partition function   enthalpy   heat capacity  entropy
                                   cal/mol     cal/K/mol   cal/K/mol   J/K/mol
 298.15  VIB   1.23                  403.612      4.708      1.771
         ROT  0.135E+05              888.752      2.981     21.877
         INT  0.166E+05             1292.365      7.689     23.648
         TR   0.332E+27             1481.254      4.968     37.578
         TOT                        2773.6186    12.6573    61.2256   256.1679

   temp. (K)  partition function   enthalpy   heat capacity  entropy
                                   cal/mol     cal/K/mol   cal/K/mol   J/K/mol
 120.00  VIB   1.00                    4.424      0.256      0.042
         ROT  0.344E+04              357.707      2.981     19.164
         INT  0.345E+04              362.131      3.237     19.206
         TR   0.849E+26              596.178      4.968     33.058
         TOT                         958.3091     8.2054    52.2644   218.6742

   temp. (K)  partition function   enthalpy   heat capacity  entropy
                                   cal/mol     cal/K/mol   cal/K/mol   J/K/mol
 100.00  VIB   1.00                    1.124      0.091      0.013
         ROT  0.262E+04              298.089      2.981     18.620
         INT  0.262E+04              299.213      3.072     18.633
         TR   0.646E+26              496.815      4.968     32.153
         TOT                         796.0277     8.0402    50.7859   212.4882

   temp. (K)  partition function   enthalpy   heat capacity  entropy
                                   cal/mol     cal/K/mol   cal/K/mol   J/K/mol
  80.00  VIB   1.00                    0.152      0.019      0.002
         ROT  0.187E+04              238.471      2.981     17.955
         INT  0.187E+04              238.623      3.000     17.957
         TR   0.462E+26              397.452      4.968     31.045
         TOT                         636.0754     7.9678    49.0021   205.0247

   temp. (K)  partition function   enthalpy   heat capacity  entropy
                                   cal/mol     cal/K/mol   cal/K/mol   J/K/mol
  60.00  VIB   1.00                    0.006      0.001      0.000
         ROT  0.122E+04              178.853      2.981     17.098
         INT  0.122E+04              178.859      2.982     17.098
         TR   0.300E+26              298.089      4.968     29.616
         TOT                         476.9483     7.9503    46.7139   195.4511

   temp. (K)  partition function   enthalpy   heat capacity  entropy
                                   cal/mol     cal/K/mol   cal/K/mol   J/K/mol
  40.00  VIB   1.00                    0.000      0.000     -0.000
         ROT   662.                  119.236      2.981     15.889
         INT   662.                  119.236      2.981     15.889
         TR   0.163E+26              198.726      4.968     27.603
         TOT                         317.9616     7.9490    43.4917   181.9692

   temp. (K)  partition function   enthalpy   heat capacity  entropy
                                   cal/mol     cal/K/mol   cal/K/mol   J/K/mol
  20.00  VIB   1.00                    0.000      0.000     -0.000
         ROT   234.                   59.618      2.981     13.823
         INT   234.                   59.618      2.981     13.822
         TR   0.577E+25               99.363      4.968     24.161
         TOT                         158.9808     7.9490    37.9834   158.9224

   temp. (K)  partition function   enthalpy   heat capacity  entropy
                                   cal/mol     cal/K/mol   cal/K/mol   J/K/mol
  10.00  VIB   1.00                    0.000      0.000     -0.000
         ROT   82.8                   29.809      2.981     11.756
         INT   82.8                   29.809      2.981     11.756
         TR   0.204E+25               49.681      4.968     20.719
         TOT                          79.4904     7.9490    32.4751   135.8757

       T/K    H(0)-H(T)+PV         H(T)/Eh          T*S/Eh         G(T)/Eh
   ------------------------------------------------------------------------
    298.15    0.442004E-02    0.284158E-01    0.290903E-01   -0.674454E-03
    120.00    0.152716E-02    0.255229E-01    0.999463E-02    0.155283E-01
    100.00    0.126855E-02    0.252643E-01    0.809325E-02    0.171711E-01
     80.00    0.101365E-02    0.250094E-01    0.624718E-02    0.187622E-01
     60.00    0.760066E-03    0.247558E-01    0.446660E-02    0.202892E-01
     40.00    0.506704E-03    0.245025E-01    0.277234E-02    0.217301E-01
     20.00    0.253352E-03    0.242491E-01    0.121061E-02    0.230385E-01
     10.00    0.126676E-03    0.241224E-01    0.517523E-03    0.236049E-01 (used)
   ------------------------------------------------------------------------

         :::::::::::::::::::::::::::::::::::::::::::::::::::::
         ::                  THERMODYNAMIC                  ::
         :::::::::::::::::::::::::::::::::::::::::::::::::::::
         :: total free energy          -8.692891259865 Eh   ::
         ::.................................................::
         :: total energy               -8.716496178829 Eh   ::
         :: zero point energy           0.023995766258 Eh   ::
         :: G(RRHO) w/o ZPVE           -0.000390847294 Eh   ::
         :: G(RRHO) contrib.            0.023604918964 Eh   ::
         :::::::::::::::::::::::::::::::::::::::::::::::::::::

optimized geometry written to: xtbopt.xyz


           -------------------------------------------------
          | TOTAL ENERGY               -8.716496178829 Eh   |
          | TOTAL ENTHALPY             -8.692373736555 Eh   |
          | TOTAL FREE ENERGY          -8.692891259865 Eh   |
          | GRADIENT NORM               0.000258518657 Eh/α |
          | HOMO-LUMO GAP               2.288910265979 eV   |
           -------------------------------------------------

------------------------------------------------------------------------
 * finished run on 2020/05/12 at 11:45:10.072     
------------------------------------------------------------------------
 total:
 * wall-time:     0 d,  0 h,  0 min,  0.215 sec
 *  cpu-time:     0 d,  0 h,  0 min,  0.214 sec
 * ratio c/w:     0.995 speedup
 SCF:
 * wall-time:     0 d,  0 h,  0 min,  0.005 sec
 *  cpu-time:     0 d,  0 h,  0 min,  0.005 sec
 * ratio c/w:     0.999 speedup
 ANC optimizer:
 * wall-time:     0 d,  0 h,  0 min,  0.100 sec
 *  cpu-time:     0 d,  0 h,  0 min,  0.099 sec
 * ratio c/w:     0.993 speedup
 numerical hessian:
 * wall-time:     0 d,  0 h,  0 min,  0.093 sec
 *  cpu-time:     0 d,  0 h,  0 min,  0.093 sec
 * ratio c/w:     0.996 speedup

