$hessian                                                                        
        0.4812909952   0.0225114464   0.0649420879  -0.1349552968  -0.1337933939
        0.0305374810  -0.1758716842  -0.0153268569   0.0063621501  -0.1698226329
        0.1287523351  -0.1048109910  -0.0006413813  -0.0021435308   0.0029692720
        0.0225114464   0.1688764588  -0.0327616323  -0.0600360609  -0.1295807816
       -0.0096683298   0.0121408565   0.0628696686  -0.0076912357   0.0414552764
       -0.0873995423   0.0478384597  -0.0160715185  -0.0147658036   0.0022827381
        0.0649420879  -0.0327616323   0.0807508804   0.0075437931  -0.0185310807
       -0.0058066330   0.0006700339  -0.0072823343   0.0437309799  -0.0644864280
        0.0607558115  -0.1078888412  -0.0086694869  -0.0021807641  -0.0107863861
       -0.1349552968  -0.0600360609   0.0075437931   0.2339259442  -0.0008296907
       -0.0016212692  -0.1384142437   0.0594677115  -0.0029704232   0.0703964794
        0.0021257548  -0.0025279152  -0.0309528831  -0.0007277147  -0.0004241855
       -0.1337933939  -0.1295807816  -0.0185310807  -0.0008296907   0.5680964561
        0.0757403133   0.1329819455  -0.1271593383  -0.0228544710   0.0026390756
       -0.0960595977   0.0996619305  -0.0009979364  -0.2152967386  -0.1340166920
        0.0305374810  -0.0096683298  -0.0058066330  -0.0016212692   0.0757403133
        0.1620072101  -0.0262329156  -0.0119425105  -0.0047181243  -0.0021752004
        0.0642021885  -0.0424543195  -0.0005080958  -0.1183316614  -0.1090281333
       -0.1758716842   0.0121408565   0.0006700339  -0.1384142437   0.1329819455
       -0.0262329156   0.4772757780  -0.0196410906  -0.0772593947  -0.1622908413
       -0.1276945372   0.1060929399  -0.0006990088   0.0022128258  -0.0032706635
       -0.0153268569   0.0628696686  -0.0072823343   0.0594677115  -0.1271593383
       -0.0119425105  -0.0196410906   0.1682843811  -0.0329299143  -0.0408378324
       -0.0894496269   0.0504198242   0.0163380683  -0.0145450846   0.0017349349
        0.0063621501  -0.0076912357   0.0437309799  -0.0029704232  -0.0228544710
       -0.0047181243  -0.0772593947  -0.0329299143   0.0852873696   0.0655165431
        0.0656089088  -0.1133241363   0.0083511247  -0.0021332879  -0.0109760888
       -0.1698226329   0.0414552764  -0.0644864280   0.0703964794   0.0026390756
       -0.0021752004  -0.1622908413  -0.0408378324   0.0655165431   0.2631394157
       -0.0031659123   0.0007323881  -0.0014224208  -0.0000906073   0.0004126972
        0.1287523351  -0.0873995423   0.0607558115   0.0021257548  -0.0960595977
        0.0642021885  -0.1276945372  -0.0894496269   0.0656089088  -0.0031659123
        0.2748634524  -0.1903876041  -0.0000176405  -0.0019546855  -0.0001793047
       -0.1048109910   0.0478384597  -0.1078888412  -0.0025279152   0.0996619305
       -0.0424543195   0.1060929399   0.0504198242  -0.1133241363   0.0007323881
       -0.1903876041   0.2370059713   0.0005135782  -0.0075326103   0.0266613257
       -0.0006413813  -0.0160715185  -0.0086694869  -0.0309528831  -0.0009979364
       -0.0005080958  -0.0006990088   0.0163380683   0.0083511247  -0.0014224208
       -0.0000176405   0.0005135782   0.0337156941   0.0007490270   0.0003128798
       -0.0021435308  -0.0147658036  -0.0021807641  -0.0007277147  -0.2152967386
       -0.1183316614   0.0022128258  -0.0145450846  -0.0021332879  -0.0000906073
       -0.0019546855  -0.0075326103   0.0007490270   0.2465623123   0.1301783237
        0.0029692720   0.0022827381  -0.0107863861  -0.0004241855  -0.1340166920
       -0.1090281333  -0.0032706635   0.0017349349  -0.0109760888   0.0004126972
       -0.0001793047   0.0266613257   0.0003128798   0.1301783237   0.1041292825
