[Molden Format]
[Title]
[Atoms] AU
C      1     6 -0.20100049847473E+01 -0.87201878893426E+00 -0.27599883886351E+00
C      2     6 -0.15975443779229E-01  0.97104346683397E+00 -0.62267056252794E+00
C      3     6  0.20108735450709E+01 -0.84699711311267E+00 -0.34013639850911E+00
N      4     7  0.24549578924028E-01 -0.19594910979909E+01  0.77462572234587E+00
H      5     1 -0.94445851845359E-02  0.27074654229397E+01  0.46418007755798E+00
[GTO]
           1 0
 s           4   1.0000000000000000     
   51.049363095579913      -0.16312063210127389     
   8.7911227406887544      -0.19911024581000730     
  0.70640422258929825       0.31882047753655751     
  0.26922813413411617       0.12706504184240380     
 p           4   1.0000000000000000     
   5.8263656140800002       0.73716451545209605     
   1.5106896018720002       0.68216371614850257     
  0.53256483288000001       0.35783053929253711     
  0.21202323690600003        5.3983030275847881E-002

           2 0
 s           4   1.0000000000000000     
   51.049363095579913      -0.16312063210127389     
   8.7911227406887544      -0.19911024581000730     
  0.70640422258929825       0.31882047753655751     
  0.26922813413411617       0.12706504184240380     
 p           4   1.0000000000000000     
   5.8263656140800002       0.73716451545209605     
   1.5106896018720002       0.68216371614850257     
  0.53256483288000001       0.35783053929253711     
  0.21202323690600003        5.3983030275847881E-002

           3 0
 s           4   1.0000000000000000     
   51.049363095579913      -0.16312063210127389     
   8.7911227406887544      -0.19911024581000730     
  0.70640422258929825       0.31882047753655751     
  0.26922813413411617       0.12706504184240380     
 p           4   1.0000000000000000     
   5.8263656140800002       0.73716451545209605     
   1.5106896018720002       0.68216371614850257     
  0.53256483288000001       0.35783053929253711     
  0.21202323690600003        5.3983030275847881E-002

           4 0
 s           4   1.0000000000000000     
   63.594024466941008      -0.19234388414721629     
   10.951417231523665      -0.23478107924953728     
  0.87999310257376984       0.37593753901700888     
  0.33538715296521110       0.14982889271862770     
 p           4   1.0000000000000000     
   7.2965040481495080       0.97658666315667420     
   1.8918745450712575       0.90372226730345739     
  0.66694432110824120       0.47404958461536373     
  0.26552202674130870        7.1516067715011844E-002

           5 0
 s           3   1.0000000000000000     
   3.3702276975336001       0.27359110588908298     
  0.61389118221497996       0.26460540653860526     
  0.16614291148415999        8.2465947534082318E-002

[MO]
Sym=     1a
Ene=  -0.73802786641168250     
Spin= Alpha
Occup=     2.00000000
           1 -0.25747196316349430     
           2 -0.14353835233294646     
           3  -1.8097888846053130E-002
           4  -2.4881450083167309E-002
           5 -0.30006279386729579     
           6  -1.9029464559216828E-003
           7  0.15645604927625653     
           8  -5.8277329984014942E-002
           9 -0.25747092824947232     
          10  0.14288545659235111     
          11  -1.6315448131478633E-002
          12  -2.9450075331350061E-002
          13 -0.35531710881515366     
          14   3.3012982556361085E-003
          15 -0.20506589359061700     
          16  0.12693343227817983     
          17  -4.4217368343584314E-002
Sym=     2a
Ene=  -0.64312532410263712     
Spin= Alpha
Occup=     2.00000000
           1  0.43953972753745840     
           2   4.3711961073499873E-002
           3  -1.3881349033562890E-002
           4   6.2913788696909154E-002
           5  -6.1517804905525910E-007
           6 -0.28092898785017567     
           7  -1.7480436369373062E-003
           8   4.4810912400726202E-003
           9 -0.43953976008992202     
          10   4.1507753244692483E-002
          11   1.4411540672462059E-002
          12  -6.4272970941381347E-002
          13  -4.3695439204969760E-007
          14 -0.43559584446596733     
          15  -2.7107529385533057E-003
          16   6.9484970413146553E-003
          17  -1.4674691460046188E-007
Sym=     3a
Ene=  -0.62775657271375840     
Spin= Alpha
Occup=     2.00000000
           1  -1.9388463469560416E-002
           2  -2.8171760547977598E-002
           3  0.22026696639389437     
           4  -5.7640291236292399E-002
           5  0.47253332439246543     
           6  -6.3738853148341632E-004
           7  0.14974855760245917     
           8   1.8483880370051334E-002
           9  -1.9388724932535465E-002
          10   2.3576274931015800E-002
          11  0.22058826342632279     
          12  -5.8465524151144609E-002
          13 -0.45831245877367027     
          14  -6.5234688688058640E-005
          15  0.15632141924363879     
          16   5.6889893447625323E-002
          17  0.27380145858278360     
Sym=     4a
Ene=  -0.57234561696423891     
Spin= Alpha
Occup=     2.00000000
           1  0.13250911925737183     
           2   1.8600240387512602E-002
           3   5.0562515148932438E-003
           4 -0.27853753540452592     
           5   3.9155052485473761E-002
           6  -3.6136829779137513E-003
           7 -0.24775893580242975     
           8 -0.32317229927801366     
           9  0.13250858333582757     
          10  -2.7535678791921665E-002
          11   4.7685730717885733E-003
          12 -0.27780044113324082     
          13 -0.36807030481799230     
          14  -5.9631250879389986E-003
          15  -5.8536879240323046E-002
          16 -0.39670476209862132     
          17 -0.24282828085553368     
Sym=     5a
Ene=  -0.53535708509195756     
Spin= Alpha
Occup=     2.00000000
           1   2.0136070147812233E-003
           2  -9.0944899106899738E-003
           3  0.17112230260663305     
           4  0.13537019017465332     
           5 -0.22043993971413170     
           6   4.9100341664759777E-003
           7 -0.33873350263812091     
           8  0.17567672095516867     
           9   2.0140285256359069E-003
          10   1.1277363148496906E-002
          11  0.17124833046593899     
          12  0.13504489675874920     
          13 -0.28359797654124741     
          14   3.4647166649330201E-004
          15  0.53667046673465169     
          16  0.23107770751903942     
          17 -0.31978100134450482     
Sym=     6a
Ene=  -0.53468274782758185     
Spin= Alpha
Occup=     2.00000000
           1  -9.4389522142177412E-002
           2   5.5961522792273205E-002
           3 -0.35329398702202180     
           4  0.17945531829834402     
           5   3.3872769691220501E-007
           6  0.46650452043730295     
           7   2.9027710218945224E-003
           8  -7.4415641073718192E-003
           9   9.4389668813907118E-002
          10   4.5809385856215738E-002
          11  0.35392720160042251     
          12 -0.18107911287928613     
          13  -1.2094109308322229E-006
          14 -0.39861799508162932     
          15  -2.4800298205931450E-003
          16   6.3578258550495582E-003
          17  -1.6170922061309030E-007
Sym=     7a
Ene=  -0.46676458432783297     
Spin= Alpha
Occup=     2.00000000
           1  0.54565285069866787     
           2 -0.42849423909512468     
           3  -2.7550897391185835E-002
           4   3.7658198840853217E-002
           5  -9.9703415291128958E-002
           6   8.6868142461747015E-004
           7   4.3133934903528542E-002
           8   7.1235028088076663E-002
           9  0.54565166357687622     
          10  0.42978420669520079     
          11  -2.2209129846968028E-002
          12   2.3968201398458656E-002
          13  -8.2434016564357629E-002
          14   2.0536506015509308E-003
          15  -8.0682881862879835E-002
          16   9.7229573438976563E-002
          17   4.6121378908955644E-002
Sym=     8a
Ene=  -0.44400879793017783     
Spin= Alpha
Occup=     1.99999999
           1  -1.7059846164149180E-003
           2   3.1426501584363449E-002
           3 -0.19571817957140245     
           4   5.4177838946880309E-002
           5 -0.27188517650083571     
           6   7.3190001234351649E-003
           7  0.10082736106545258     
           8  0.49818935001128545     
           9  -1.7061404059701551E-003
          10  -2.7245111525706495E-002
          11 -0.19608337521956376     
          12   5.5114044151404216E-002
          13 -0.32845076191510508     
          14  -1.1300196346603380E-002
          15  0.21582121787205089     
          16 -0.62424695302349031     
          17  0.22553739750049315     
Sym=     9a
Ene=  -0.40788635824756919     
Spin= Alpha
Occup=     1.00000001
           1 -0.35042795606960098     
           2  0.44569446151443776     
           3  0.22371834981870231     
           4  0.29730593212180312     
           5  -2.7350788767037467E-007
           6 -0.24885644076326233     
           7  -1.5484411730536578E-003
           8   3.9694888374797654E-003
           9  0.35043050187009317     
          10  0.43873669162610995     
          11 -0.21821454320418621     
          12 -0.31141323576324687     
          13  -3.1991216473217912E-007
          14 -0.20809560553958883     
          15  -1.2956311217727141E-003
          16   3.3190081805052644E-003
          17   6.9017554626190719E-008
Sym=    10a
Ene=  -0.34820043165308001     
Spin= Alpha
Occup=     0.99999999
           1   6.5402005373722524E-002
           2 -0.39691575067708779     
           3  0.23037380740239144     
           4  0.55782424505257000     
           5   3.9793053086146727E-007
           6  0.11687957749694258     
           7   7.2726700049419201E-004
           8  -1.8648921185355906E-003
           9  -6.5402862191932504E-002
          10 -0.41160781435539118     
          11 -0.23540445719808922     
          12 -0.54492608796963504     
          13  -1.8326743526205663E-008
          14  0.11122118660382860     
          15   6.9148818378460806E-004
          16  -1.7753064598529341E-003
          17  -3.4575157475076667E-007
Sym=    11a
Ene=  -0.31395795110783464     
Spin= Alpha
Occup=     0.00000001
           1  -3.0362862882531559E-002
           2   9.8062143090768203E-003
           3  0.34750900344779340     
           4  -5.7286170472317544E-002
           5  -1.3702229331956544E-002
           6   1.1622903872337609E-002
           7 -0.35259567463069086     
           8  0.59108428643470723     
           9  -3.0363052741372874E-002
          10  -1.5951049890759871E-002
          11  0.34734904890696044     
          12  -5.6874830725378411E-002
          13   5.0982551242071149E-002
          14   2.7496772441710920E-003
          15 -0.69220350164498434     
          16  -9.7648941088408076E-002
          17  -7.2498142488137227E-002
Sym=    12a
Ene=  -0.24974960913376767     
Spin= Alpha
Occup=     0.00000000
           1   1.6507775473701851E-002
           2   5.0061722468358667E-002
           3 -0.19432138708731075     
           4 -0.59760423366123006     
           5 -0.19278721925256159     
           6   6.6849384540492588E-003
           7 -0.11653287918851829     
           8  0.37362173901545342     
           9   1.6507921463201788E-002
          10  -6.6674724278102587E-002
          11 -0.19504868636432235     
          12 -0.59574402203247545     
          13   8.5603026503463686E-002
          14   6.6756412910429766E-003
          15  0.20819669399501695     
          16  0.49972873392912143     
          17  0.23859805077505927     
Sym=    13a
Ene=    2.8149094317259860E-002
Spin= Alpha
Occup=     0.00000000
           1  -3.5993191677577516E-004
           2   7.0813971558959229E-002
           3 -0.55883258844594741     
           4  0.21354343448969071     
           5  0.75629426107654185     
           6   5.8331964520002512E-003
           7 -0.35094352889962943     
           8  0.22884761947198085     
           9  -3.5965477990249057E-004
          10  -5.7008987102403638E-002
          11 -0.55962671899365135     
          12  0.21558169480023551     
          13 -0.62336762868162043     
          14   7.6429233157575636E-003
          15 -0.32313220554290639     
          16  0.35304214956934854     
          17 -0.24679613608039877     
Sym=    14a
Ene=   0.10023050554170219     
Spin= Alpha
Occup=     0.00000000
           1  0.21498611508720297     
           2  0.13483450256145099     
           3  0.64039343389514403     
           4 -0.24323970172079626     
           5   7.9388709615739272E-007
           6  0.93093887165587008     
           7   5.7930260913295088E-003
           8  -1.4849260322449194E-002
           9 -0.21498605515777330     
          10  0.15048086410038039     
          11 -0.63861934893543693     
          12  0.23868909190559687     
          13  -6.6560778426178379E-007
          14 -0.40844088577518356     
          15  -2.5420142942386586E-003
          16   6.5154524959020153E-003
          17  -3.9168884016886916E-007
Sym=    15a
Ene=   0.17231955071528215     
Spin= Alpha
Occup=     0.00000000
           1   6.8575988964897444E-002
           2  0.14854266256007473     
           3  -2.9337179618952488E-002
           4  0.20747337882778022     
           5 -0.61522753023448229     
           6  -2.9751188237657996E-003
           7 -0.75057697959455638     
           8 -0.47934535896066960     
           9   6.8575690793243382E-002
          10 -0.14147343911950425     
          11  -3.1142014282147641E-002
          12  0.21209946825852474     
          13 -0.32931209437929715     
          14   3.9375519230560674E-003
          15 -0.21135544959415892     
          16  0.16438597580715444     
          17   1.0713608470356122     
Sym=    16a
Ene=   0.28549031448615964     
Spin= Alpha
Occup=     0.00000000
           1 -0.60491641849208744     
           2 -0.55167001364226176     
           3  0.13996733639822193     
           4 -0.27077872064952507     
           5   2.0081437260776185E-007
           6 -0.37886465288843280     
           7  -2.3581365926547476E-003
           8   6.0432547866104266E-003
           9  0.60491602485333895     
          10 -0.54096886862153659     
          11 -0.14676706896370981     
          12  0.28820767693801852     
          13   1.1051384585472399E-007
          14 -0.94716610864329898     
          15  -5.8941356287470405E-003
          16   1.5108262287327449E-002
          17   2.6788478672016741E-007
Sym=    17a
Ene=   0.44733021773410647     
Spin= Alpha
Occup=     0.00000000
           1 -0.57474246479315205     
           2 -0.69182880110626155     
           3 -0.10958830369534354     
           4  -5.2237907041718892E-002
           5  0.48562410214832985     
           6   4.1547766415316731E-003
           7 -0.74896914421928462     
           8  -3.1732398440273334E-002
           9 -0.57474288812451801     
          10  0.69112131204627747     
          11 -0.10098224984175516     
          12  -7.4297659579986075E-002
          13  0.58657442135785209     
          14  -7.5620980264037522E-003
          15  0.31281451010301342     
          16 -0.35205884779866908     
          17  0.29492180698958109     
