      -----------------------------------------------------------      
     |                   =====================                   |     
     |                           x T B                           |     
     |                   =====================                   |     
     |                         S. Grimme                         |     
     |          Mulliken Center for Theoretical Chemistry        |     
     |                    University of Bonn                     |     
      -----------------------------------------------------------      

   * xtb version 6.2.2 (9d81278992624c895f80dd42a50cac0aa55982e2) compiled by '@Darwin' on 04/03/2020

   xtb is free software: you can redistribute it and/or modify it under
   the terms of the GNU Lesser General Public License as published by
   the Free Software Foundation, either version 3 of the License, or
   (at your option) any later version.
   
   xtb is distributed in the hope that it will be useful,
   but WITHOUT ANY WARRANTY; without even the implied warranty of
   MERCHANTABILITY or FITNESS FOR A PARTICULAR PURPOSE.  See the
   GNU Lesser General Public License for more details.
   
   Cite this work as:
   * S. Grimme, C. Bannwarth, P. Shushkov, J. Chem. Theory Comput., 2017,
     13, 1989-2009. DOI: 10.1021/acs.jctc.7b00118
   * C. Bannwarth, S. Ehlert and S. Grimme., J. Chem. Theory Comput., 2019,
     15, 1652-1671. DOI: 10.1021/acs.jctc.8b01176
   * P. Pracht, E. Caldeweyher, S. Ehlert, S. Grimme, ChemRxiv, 2019, preprint.
     DOI: 10.26434/chemrxiv.8326202.v1
   
   for DFT-D4:
   * E. Caldeweyher, C. Bannwarth and S. Grimme, J. Chem. Phys., 2017,
     147, 034112. DOI: 10.1063/1.4993215
   * E. Caldeweyher, S. Ehlert, A. Hansen, H. Neugebauer, S. Spicher,
     C. Bannwarth and S. Grimme, J. Chem. Phys., 2019, 150, 154122.
     DOI: 10.1063/1.5090222
   
   for sTDA-xTB:
   * S. Grimme and C. Bannwarth, J. Chem. Phys., 2016, 145, 054103.
     DOI: 10.1063/1.4959605
   
   in the mass-spec context:
   * V. Asgeirsson, C. Bauer and S. Grimme, Chem. Sci., 2017, 8, 4879.
     DOI: 10.1039/c7sc00601b
   
   for metadynamics refer to:
   * S. Grimme, J. Chem. Theory Comput., 2019, 155, 2847-2862
     DOI: 10.1021/acs.jctc.9b00143
   
   with help from (in alphabetical order)
   C. Bannwarth, F. Bohle, G. Brandenburg, E. Caldeweyher, M. Checinski,
   S. Dohm, S. Ehlert, S. Ehrlich, F. März, H. Neugebauer, J. Pisarek,
   P. Pracht, P. Shushkov, and S. Spicher.
   
 * started run on 2020/05/12 at 11:45:00.955     

           -------------------------------------------------
          |                Calculation Setup                |
           -------------------------------------------------

          program call               : xtb --input H1C3N1_27_S_2.input H1C3N1_27_S_2.xyz --ohess --molden --namespace H1C3N1_27_S_2 output.out
          calculation namespace      : H1C3N1_27_S_2
          coordinate file            : H1C3N1_27_S_2.xyz
          number of atoms            :                     5
          number of electrons        :                    18
          charge                     :                     0
          spin                       :                   1.0
          first test random number   :      0.84878449049986

   ID    Z sym.   atoms
    1    6 C      1-3
    2    7 N      4
    3    1 H      5

           -------------------------------------------------
          |                 G F N 2 - x T B                 |
           -------------------------------------------------

        Reference                      10.1021/acs.jctc.8b01176
      * Hamiltonian:
        H0-scaling (s, p, d)           1.850000    2.230000    2.230000
        zeta-weighting                 0.500000
      * Dispersion:
        s8                             2.700000
        a1                             0.520000
        a2                             5.000000
        s9                             5.000000
      * Repulsion:
        kExp                           1.500000    1.000000
        rExp                           1.000000
      * Coulomb:
        alpha                          2.000000
        third order                    shell-resolved
        anisotropic                    true
        a3                             3.000000
        a5                             4.000000
        cn-shift                       1.200000
        cn-exp                         4.000000
        max-rad                        5.000000


          ...................................................
          :                      SETUP                      :
          :.................................................:
          :  # basis functions                  17          :
          :  # atomic orbitals                  17          :
          :  # shells                            9          :
          :  # electrons                        18          :
          :  max. iterations                   250          :
          :  Hamiltonian                  GFN2-xTB          :
          :  restarted?                      false          :
          :  GBSA solvation                  false          :
          :  PC potential                    false          :
          :  electronic temp.          300.0000000     K    :
          :  accuracy                    1.0000000          :
          :  -> integral cutoff          0.2500000E+02      :
          :  -> integral neglect         0.1000000E-07      :
          :  -> SCF convergence          0.1000000E-05 Eh   :
          :  -> wf. convergence          0.1000000E-03 e    :
          :  Broyden damping             0.4000000          :
          ...................................................

 iter      E             dE          RMSdq      gap      omega  full diag
   1     -9.4499170 -0.944992E+01  0.764E+00    1.59       0.0  T
   2     -9.4240251  0.258919E-01  0.684E+00    1.02       1.0  T
   3     -9.5222030 -0.981778E-01  0.380E+00    1.34       1.0  T
   4     -9.4614682  0.607348E-01  0.444E+00    1.51       1.0  T
   5     -9.5297570 -0.682888E-01  0.900E-01    1.35       1.0  T
   6     -9.5318697 -0.211273E-02  0.277E-01    1.34       1.0  T
   7     -9.5308769  0.992752E-03  0.429E-01    1.33       1.0  T
   8     -9.5315647 -0.687761E-03  0.208E-01    1.33       1.0  T
   9     -9.5296434  0.192133E-02  0.852E-01    1.34       1.0  T
  10     -9.5307495 -0.110618E-02  0.609E-01    1.34       1.0  T
  11     -9.5318934 -0.114386E-02  0.563E-02    1.33       1.0  T
  12     -9.5318969 -0.344688E-05  0.600E-02    1.33       1.0  T
  13     -9.5319017 -0.488876E-05  0.401E-02    1.33       1.1  T
  14     -9.5319064 -0.468876E-05  0.752E-04    1.33      59.5  T
  15     -9.5319064 -0.609452E-09  0.878E-04    1.33      50.9  T
  16     -9.5319064 -0.196744E-08  0.350E-04    1.33     127.8  T

   *** convergence criteria satisfied after 16 iterations ***

         #    Occupation            Energy/Eh            Energy/eV
      -------------------------------------------------------------
         1        2.0000           -0.7466657             -20.3178
       ...           ...                  ...                  ...
         4        2.0000           -0.5869514             -15.9718
         5        2.0000           -0.5159576             -14.0399
         6        2.0000           -0.5081039             -13.8262
         7        2.0000           -0.4908921             -13.3579
         8        1.6564           -0.4468911             -12.1605
         9        1.3436           -0.4456610             -12.1271
        10        1.0000           -0.3692684             -10.0483 (HOMO)
        11                         -0.3202888              -8.7155 (LUMO)
        12                         -0.2471965              -6.7266
        13                         -0.0166970              -0.4543
        14                         -0.0033530              -0.0912
        15                          0.1182583               3.2180
       ...                                ...                  ...
        17                          0.2348945               6.3918
      -------------------------------------------------------------
                  HL-Gap            0.0489795 Eh            1.3328 eV
             Fermi-level           -0.3955273 Eh          -10.7628 eV

 transition dipole moment (au) for excitation:           9          10
     X       Y       Z   
  -0.0029  -0.1707  -0.2491  total (au/Debye):    0.302   0.767
 dE (eV)             :    2.079
 oscillator strength :  0.65667E-02

 SCC (total)                   0 d,  0 h,  0 min,  0.005 sec
 SCC setup                      ...        0 min,  0.000 sec (  1.848%)
 Dispersion                     ...        0 min,  0.000 sec (  0.373%)
 integral evaluation            ...        0 min,  0.001 sec ( 22.362%)
 zeroth order Hamiltonian       ...        0 min,  0.000 sec (  0.420%)
 iterations                     ...        0 min,  0.002 sec ( 33.286%)
 molecular gradient             ...        0 min,  0.001 sec ( 23.139%)
 printout                       ...        0 min,  0.001 sec ( 18.320%)

         :::::::::::::::::::::::::::::::::::::::::::::::::::::
         ::                     SUMMARY                     ::
         :::::::::::::::::::::::::::::::::::::::::::::::::::::
         :: total energy              -9.445545416829 Eh    ::
         :: gradient norm              0.127620709067 Eh/a0 ::
         :: HOMO-LUMO gap              1.332801042266 eV    ::
         ::.................................................::
         :: SCC energy                -9.531906432512 Eh    ::
         :: -> isotropic ES           -0.006969867614 Eh    ::
         :: -> anisotropic ES          0.002190076660 Eh    ::
         :: -> anisotropic XC          0.009413626791 Eh    ::
         :: -> dispersion             -0.002045381060 Eh    ::
         :: repulsion energy           0.086360985408 Eh    ::
         :: add. restraining           0.000000000000 Eh    ::
         :::::::::::::::::::::::::::::::::::::::::::::::::::::

      ----------------------------------------------------------- 
     |                   =====================                   |
     |                        A N C O P T                        |
     |                   =====================                   |
     |               Approximate Normal Coordinate               |
     |                Rational Function Optimizer                |
      ----------------------------------------------------------- 

          ...................................................
          :                      SETUP                      :
          :.................................................:
          :   optimization level            normal          :
          :   max. optcycles                   200          :
          :   ANC micro-cycles                  20          :
          :   degrees of freedom                 9          :
          :.................................................:
          :   RF solver                   davidson          :
          :   write xtbopt.log                true          :
          :   linear?                        false          :
          :   energy convergence         0.5000000E-05 Eh   :
          :   grad. convergence          0.1000000E-02 Eh/α :
          :   maximium RF displ.         1.0000000          :
          :   Hlow (freq-cutoff)         0.1000000E-01      :
          :   Hmax (freq-cutoff)         5.0000000          :
          :   S6 in model hess.         20.0000000          :
          ...................................................

generating ANC from model Hessian ...
Using Lindh-Hessian (1995)
 Shifting diagonal of input Hessian by    0.0000000000000000     
 Lowest  eigenvalues of input Hessian
   -0.000000   -0.000000    0.000000    0.000000    0.000000    0.000000
    0.097881    0.127453    0.149876    0.573659    0.677013    0.977615
    1.020624    1.437817    1.555423
 Highest eigenvalues
    0.573659    0.677013    0.977615    1.020624    1.437817    1.555423


........................................................................
.............................. CYCLE    1 ..............................
........................................................................
   1     -9.5319064 -0.953191E+01  0.324E-04    1.33       0.0  T
   2     -9.5319064  0.118081E-07  0.183E-03    1.33      24.4  T
   3     -9.5319064 -0.119874E-07  0.200E-04    1.33     223.4  T
   4     -9.5319064 -0.482352E-10  0.114E-04    1.33     391.4  T
     SCC iter.                  ...        0 min,  0.001 sec
     gradient                   ...        0 min,  0.001 sec
 * total energy  :    -9.4455454 Eh     change        0.9435652E-09 Eh
   gradient norm :     0.1276217 Eh/α   predicted     0.0000000E+00 (-100.00%)
   displ. norm   :     0.3702495 α      lambda       -0.3499519E-01
   maximum displ.:     0.2636339 α      in ANC's #1, #3, #5, ...

........................................................................
.............................. CYCLE    2 ..............................
........................................................................
   1     -9.5667347 -0.956673E+01  0.237E+00    1.99       0.0  T
   2     -9.5586125  0.812218E-02  0.164E+00    2.00       1.0  T
   3     -9.5587408 -0.128261E-03  0.180E+00    1.82       1.0  T
   4     -9.5657637 -0.702292E-02  0.991E-01    1.91       1.0  T
   5     -9.5675297 -0.176602E-02  0.554E-01    1.92       1.0  T
   6     -9.5666424  0.887367E-03  0.776E-01    1.96       1.0  T
   7     -9.5682385 -0.159614E-02  0.176E-01    1.94       1.0  T
   8     -9.5683003 -0.618462E-04  0.839E-02    1.94       1.0  T
   9     -9.5683122 -0.118526E-04  0.669E-02    1.94       1.0  T
  10     -9.5683249 -0.127227E-04  0.815E-03    1.94       5.5  T
  11     -9.5683251 -0.156204E-06  0.245E-03    1.94      18.3  T
  12     -9.5683251 -0.139497E-07  0.919E-04    1.94      48.6  T
  13     -9.5683251 -0.212461E-08  0.257E-04    1.94     174.1  T
     SCC iter.                  ...        0 min,  0.001 sec
     gradient                   ...        0 min,  0.001 sec
 * total energy  :    -9.4720304 Eh     change       -0.2648501E-01 Eh
   gradient norm :     0.0997088 Eh/α   predicted    -0.1989625E-01 ( -24.88%)
   displ. norm   :     0.4838076 α      lambda       -0.4109700E-01
   maximum displ.:     0.3368068 α      in ANC's #3, #5, #6, ...

........................................................................
.............................. CYCLE    3 ..............................
........................................................................
   1     -9.6150809 -0.961508E+01  0.276E+00    1.52       0.0  T
   2     -9.6198987 -0.481785E-02  0.154E+00    1.22       1.0  T
   3     -9.6204062 -0.507487E-03  0.930E-01    1.25       1.0  T
   4     -9.6212625 -0.856260E-03  0.299E-01    1.33       1.0  T
   5     -9.6216468 -0.384344E-03  0.571E-02    1.27       1.0  T
   6     -9.6216483 -0.150593E-05  0.113E-02    1.27       3.9  T
   7     -9.6216464  0.194438E-05  0.168E-02    1.27       2.7  T
   8     -9.6216488 -0.246790E-05  0.372E-03    1.27      12.0  T
   9     -9.6216489 -0.378044E-07  0.461E-04    1.27      96.9  T
  10     -9.6216489 -0.848939E-10  0.517E-05    1.27     864.5  T
     SCC iter.                  ...        0 min,  0.001 sec
     gradient                   ...        0 min,  0.001 sec
 * total energy  :    -9.4871599 Eh     change       -0.1512949E-01 Eh
   gradient norm :     0.0814426 Eh/α   predicted    -0.2535827E-01 (  67.61%)
   displ. norm   :     0.1663384 α      lambda       -0.9839652E-02
   maximum displ.:     0.1132222 α      in ANC's #1, #3, #5, ...

........................................................................
.............................. CYCLE    4 ..............................
........................................................................
   1     -9.6087555 -0.960876E+01  0.835E-01    1.26       0.0  T
   2     -9.6093527 -0.597134E-03  0.488E-01    1.38       1.0  T
   3     -9.6094534 -0.100768E-03  0.272E-01    1.35       1.0  T
   4     -9.6094953 -0.418317E-04  0.994E-02    1.33       1.0  T
   5     -9.6095377 -0.424518E-04  0.215E-02    1.35       2.1  T
   6     -9.6095378 -0.105022E-06  0.370E-03    1.34      12.1  T
   7     -9.6095377  0.146712E-06  0.424E-03    1.35      10.5  T
   8     -9.6095378 -0.144610E-06  0.168E-03    1.35      26.6  T
   9     -9.6095378 -0.196194E-07  0.286E-04    1.34     156.3  T
  10     -9.6095378 -0.536584E-10  0.281E-05    1.34    1594.1  T
     SCC iter.                  ...        0 min,  0.001 sec
     gradient                   ...        0 min,  0.001 sec
 * total energy  :    -9.4915223 Eh     change       -0.4362413E-02 Eh
   gradient norm :     0.0226368 Eh/α   predicted    -0.5055950E-02 (  15.90%)
   displ. norm   :     0.0417610 α      lambda       -0.7729159E-03
   maximum displ.:     0.0355235 α      in ANC's #5, #3, #9, ...

........................................................................
.............................. CYCLE    5 ..............................
........................................................................
   1     -9.6100152 -0.961002E+01  0.264E-01    1.15       0.0  T
   2     -9.6100429 -0.277488E-04  0.162E-01    1.13       1.0  T
   3     -9.6100398  0.305493E-05  0.878E-02    1.13       1.0  T
   4     -9.6100525 -0.126078E-04  0.290E-02    1.14       1.5  T
   5     -9.6100560 -0.358619E-05  0.549E-03    1.13       8.1  T
   6     -9.6100561 -0.215023E-07  0.917E-04    1.13      48.8  T
   7     -9.6100561  0.328273E-08  0.102E-03    1.13      43.7  T
   8     -9.6100561 -0.922730E-08  0.134E-04    1.13     333.1  T
     SCC iter.                  ...        0 min,  0.001 sec
     gradient                   ...        0 min,  0.001 sec
 * total energy  :    -9.4921140 Eh     change       -0.5916509E-03 Eh
   gradient norm :     0.0144077 Eh/α   predicted    -0.3871320E-03 ( -34.57%)
   displ. norm   :     0.0517344 α      lambda       -0.6727078E-03
   maximum displ.:     0.0430649 α      in ANC's #5, #9, #4, ...

........................................................................
.............................. CYCLE    6 ..............................
........................................................................
   1     -9.6087708 -0.960877E+01  0.309E-01    0.92       0.0  T
   2     -9.6087867 -0.159455E-04  0.198E-01    0.91       1.0  T
   3     -9.6087593  0.274407E-04  0.110E-01    0.91       1.0  T
   4     -9.6088015 -0.422228E-04  0.266E-02    0.92       1.7  T
   5     -9.6088041 -0.259497E-05  0.752E-03    0.91       5.9  T
   6     -9.6088041  0.165555E-07  0.258E-03    0.91      17.3  T
   7     -9.6088041 -0.395617E-07  0.154E-03    0.91      29.1  T
   8     -9.6088041 -0.171588E-07  0.171E-04    0.91     261.0  T
   9     -9.6088041 -0.473968E-10  0.560E-05    0.91     799.1  T
     SCC iter.                  ...        0 min,  0.001 sec
     gradient                   ...        0 min,  0.001 sec
 * total energy  :    -9.4925133 Eh     change       -0.3993231E-03 Eh
   gradient norm :     0.0052267 Eh/α   predicted    -0.3372526E-03 ( -15.54%)
   displ. norm   :     0.0252743 α      lambda       -0.1028095E-03
   maximum displ.:     0.0186784 α      in ANC's #3, #5, #1, ...

........................................................................
.............................. CYCLE    7 ..............................
........................................................................
   1     -9.6081326 -0.960813E+01  0.981E-02    0.88       0.0  T
   2     -9.6081339 -0.137473E-05  0.558E-02    0.89       1.0  T
   3     -9.6081339  0.379075E-07  0.120E-02    0.89       3.7  T
   4     -9.6081342 -0.332486E-06  0.526E-03    0.89       8.5  T
   5     -9.6081343 -0.234398E-07  0.287E-03    0.89      15.6  T
   6     -9.6081343 -0.121691E-07  0.128E-03    0.89      34.9  T
   7     -9.6081343 -0.118808E-07  0.627E-04    0.89      71.3  T
   8     -9.6081343 -0.259268E-08  0.715E-05    0.89     625.6  T
     SCC iter.                  ...        0 min,  0.001 sec
     gradient                   ...        0 min,  0.001 sec
 * total energy  :    -9.4925846 Eh     change       -0.7133974E-04 Eh
   gradient norm :     0.0027221 Eh/α   predicted    -0.5143881E-04 ( -27.90%)
   displ. norm   :     0.0228358 α      lambda       -0.4460577E-04
   maximum displ.:     0.0187111 α      in ANC's #3, #1, #6, ...

........................................................................
.............................. CYCLE    8 ..............................
........................................................................
   1     -9.6079382 -0.960794E+01  0.766E-02    0.91       0.0  T
   2     -9.6079405 -0.236690E-05  0.402E-02    0.91       1.1  T
   3     -9.6079401  0.488271E-06  0.254E-02    0.91       1.8  T
   4     -9.6079412 -0.111825E-05  0.733E-03    0.91       6.1  T
   5     -9.6079414 -0.267494E-06  0.199E-03    0.91      22.5  T
   6     -9.6079414  0.117142E-07  0.121E-03    0.91      37.1  T
   7     -9.6079414 -0.131942E-07  0.343E-04    0.91     130.3  T
   8     -9.6079414 -0.550447E-09  0.463E-05    0.91     966.1  T
     SCC iter.                  ...        0 min,  0.001 sec
     gradient                   ...        0 min,  0.001 sec
 * total energy  :    -9.4926097 Eh     change       -0.2509040E-04 Eh
   gradient norm :     0.0010144 Eh/α   predicted    -0.2231325E-04 ( -11.07%)
   displ. norm   :     0.0061027 α      lambda       -0.2455878E-05
   maximum displ.:     0.0044779 α      in ANC's #3, #1, #5, ...

........................................................................
.............................. CYCLE    9 ..............................
........................................................................
   1     -9.6081862 -0.960819E+01  0.253E-02    0.93       0.0  T
   2     -9.6081865 -0.238863E-06  0.154E-02    0.93       2.9  T
   3     -9.6081865 -0.173875E-07  0.960E-03    0.93       4.7  T
   4     -9.6081867 -0.179027E-06  0.282E-03    0.93      15.9  T
   5     -9.6081867 -0.345084E-07  0.608E-04    0.93      73.5  T
   6     -9.6081867  0.967376E-09  0.361E-04    0.93     123.7  T
     SCC iter.                  ...        0 min,  0.000 sec
     gradient                   ...        0 min,  0.001 sec
 * total energy  :    -9.4926110 Eh     change       -0.1315879E-05 Eh
   gradient norm :     0.0002154 Eh/α   predicted    -0.1226754E-05 (  -6.77%)
   displ. norm   :     0.0019364 α      lambda       -0.1991072E-06
   maximum displ.:     0.0015950 α      in ANC's #3, #1, #6, ...

   *** GEOMETRY OPTIMIZATION CONVERGED AFTER 9 ITERATIONS ***

------------------------------------------------------------------------
 total energy gain   :        -0.0470656 Eh      -29.5341 kcal/mol
 total RMSD          :         0.3435967 a0        0.1818 Å
 total power (kW/mol):       -13.7300880 (step)-4608.9786 (real)
------------------------------------------------------------------------

 ANCopt (total)                0 d,  0 h,  0 min,  0.027 sec
 optimizer setup                ...        0 min,  0.000 sec (  0.231%)
 model hessian                  ...        0 min,  0.000 sec (  0.362%)
 ANC generation                 ...        0 min,  0.000 sec (  0.190%)
 coordinate transformation      ...        0 min,  0.000 sec (  0.077%)
 single point calculation       ...        0 min,  0.026 sec ( 96.260%)
 optimization log               ...        0 min,  0.000 sec (  0.790%)
 hessian update                 ...        0 min,  0.000 sec (  0.081%)
 rational function              ...        0 min,  0.000 sec (  0.909%)

================
 final structure:
================
5
 xtb: 6.2.2 (9d81278992624c895f80dd42a50cac0aa55982e2)
C        -1.06364600441539   -0.46145782772665   -0.14605682753490
C        -0.00845538191729    0.51385465193952   -0.32950223483300
C         1.06411152788874   -0.44820572573909   -0.17998951520730
N         0.01299507732865   -1.03691877762784    0.40991255287633
H        -0.00500621888470    1.43272867915406    0.24563602469886

 Bond Distances (Angstroems)
 ---------------------------
C1-C2=1.4486         C1-N4=1.3414         C2-C1=1.4486         C2-C3=1.4486         C2-N4=1.7182         C2-H5=1.0840         
C3-C2=1.4486         C3-N4=1.3414         N4-C1=1.3414         N4-C2=1.7182         N4-C3=1.3414         H5-C2=1.0840         
 C  H  Rav=1.0840 sigma=0.0000  Rmin=1.0840  Rmax=1.0840     1
 C  C  Rav=1.4486 sigma=0.0000  Rmin=1.4486  Rmax=1.4486     2
 N  C  Rav=1.4670 sigma=0.1776  Rmin=1.3414  Rmax=1.7182     3

 selected bond angles (degree)
 --------------------
N4-C1-C2= 75.92                C3-C2-C1= 94.54                N4-C2-C1= 49.22                N4-C2-C3= 49.22                
H5-C2-C1=120.39                H5-C2-C3=120.39                H5-C2-N4=122.46                N4-C3-C2= 75.92                
C2-N4-C1= 54.86                C3-N4-C1=104.97                C3-N4-C2= 54.86                

 selected dihedral angles (degree)
 ---------------------------------
C3-C2-C1-N4= 20.99            H5-C2-C1-N4=251.59            N4-C3-C2-C1=339.01            N4-C3-C2-H5=108.41            
C3-N4-C1-C2=336.47            C1-N4-C2-C3=208.14            C1-N4-C2-H5=104.07            C3-N4-C2-C1=151.86            
C3-N4-C2-H5=255.93            C1-N4-C3-C2= 23.53            
           -------------------------------------------------
          |                Final Singlepoint                |
           -------------------------------------------------

          ...................................................
          :                      SETUP                      :
          :.................................................:
          :  # basis functions                  17          :
          :  # atomic orbitals                  17          :
          :  # shells                            9          :
          :  # electrons                        18          :
          :  max. iterations                   250          :
          :  Hamiltonian                  GFN2-xTB          :
          :  restarted?                      false          :
          :  GBSA solvation                  false          :
          :  PC potential                    false          :
          :  electronic temp.          300.0000000     K    :
          :  accuracy                    1.0000000          :
          :  -> integral cutoff          0.2500000E+02      :
          :  -> integral neglect         0.1000000E-07      :
          :  -> SCF convergence          0.1000000E-05 Eh   :
          :  -> wf. convergence          0.1000000E-03 e    :
          :  Broyden damping             0.4000000          :
          ...................................................

 iter      E             dE          RMSdq      gap      omega  full diag
   1     -9.6081867 -0.960819E+01  0.152E-04    0.93       0.0  T
   2     -9.6081867  0.317009E-10  0.812E-05    0.93     550.7  T
   3     -9.6081867  0.392767E-09  0.234E-04    0.93     191.4  T

   *** convergence criteria satisfied after 3 iterations ***

         #    Occupation            Energy/Eh            Energy/eV
      -------------------------------------------------------------
         1        2.0000           -0.7380279             -20.0828
       ...           ...                  ...                  ...
         4        2.0000           -0.5723457             -15.5743
         5        2.0000           -0.5353571             -14.5678
         6        2.0000           -0.5346828             -14.5495
         7        2.0000           -0.4667646             -12.7013
         8        2.0000           -0.4440088             -12.0821
         9        1.0000           -0.4078864             -11.0992
        10        1.0000           -0.3482005              -9.4750 (HOMO)
        11                         -0.3139580              -8.5432 (LUMO)
        12                         -0.2497496              -6.7960
        13                          0.0281491               0.7660
        14                          0.1002305               2.7274
        15                          0.1723195               4.6891
       ...                                ...                  ...
        17                          0.4473302              12.1725
      -------------------------------------------------------------
                  HL-Gap            0.0342425 Eh            0.9318 eV
             Fermi-level           -0.3785134 Eh          -10.2999 eV

 transition dipole moment (au) for excitation:           9          10
     X       Y       Z   
   0.0027   0.1068   0.2102  total (au/Debye):    0.236   0.599
 dE (eV)             :    1.624
 oscillator strength :  0.31281E-02

 SCC (total)                   0 d,  0 h,  0 min,  0.003 sec
 SCC setup                      ...        0 min,  0.000 sec (  1.587%)
 Dispersion                     ...        0 min,  0.000 sec (  0.466%)
 integral evaluation            ...        0 min,  0.001 sec ( 29.209%)
 zeroth order Hamiltonian       ...        0 min,  0.000 sec (  0.388%)
 iterations                     ...        0 min,  0.001 sec ( 15.441%)
 molecular gradient             ...        0 min,  0.001 sec ( 30.387%)
 printout                       ...        0 min,  0.001 sec ( 22.212%)

         :::::::::::::::::::::::::::::::::::::::::::::::::::::
         ::                     SUMMARY                     ::
         :::::::::::::::::::::::::::::::::::::::::::::::::::::
         :: total energy              -9.492611046652 Eh    ::
         :: gradient norm              0.000215994677 Eh/a0 ::
         :: HOMO-LUMO gap              0.931784647286 eV    ::
         ::.................................................::
         :: SCC energy                -9.608186718045 Eh    ::
         :: -> isotropic ES           -0.003580121802 Eh    ::
         :: -> anisotropic ES          0.001149240330 Eh    ::
         :: -> anisotropic XC          0.009602436336 Eh    ::
         :: -> dispersion             -0.002040021533 Eh    ::
         :: repulsion energy           0.115575641912 Eh    ::
         :: add. restraining           0.000000000000 Eh    ::
         :::::::::::::::::::::::::::::::::::::::::::::::::::::

           ------------------------------------------------- 
          |                Numerical Hessian                |
           ------------------------------------------------- 
step length          :   0.00500
SCC accuracy         :   0.30000
Hessian scale factor :   1.00000
frozen atoms in %    :   0.00000    0
RMS gradient         :   0.00022
estimated CPU  time      0.00 min
estimated wall time      0.00 min

writing file <hessian>.

 projected vibrational frequencies (cm-1)
eigval :       -0.00    -0.00     0.00     0.00     0.00     0.00
eigval :      550.91   748.74   771.50   906.62   984.39  1067.25
eigval :     1162.58  1415.12  3022.14
           -------------------------------------------------
          |                Property Printout                |
           -------------------------------------------------

    * Orbital Energies and Occupations

         #    Occupation            Energy/Eh            Energy/eV
      -------------------------------------------------------------
         1        2.0000           -0.7380279             -20.0828
         2        2.0000           -0.6431253             -17.5003
         3        2.0000           -0.6277566             -17.0821
         4        2.0000           -0.5723456             -15.5743
         5        2.0000           -0.5353571             -14.5678
         6        2.0000           -0.5346827             -14.5495
         7        2.0000           -0.4667646             -12.7013
         8        2.0000           -0.4440088             -12.0821
         9        1.0000           -0.4078864             -11.0992
        10        1.0000           -0.3482004              -9.4750 (HOMO)
        11                         -0.3139580              -8.5432 (LUMO)
        12                         -0.2497496              -6.7960
        13                          0.0281491               0.7660
        14                          0.1002305               2.7274
        15                          0.1723196               4.6891
        16                          0.2854903               7.7686
        17                          0.4473302              12.1725
      -------------------------------------------------------------
                  HL-Gap            0.0342425 Eh            0.9318 eV
             Fermi-level           -0.3785134 Eh          -10.2999 eV

     #   Z        covCN         q      C6AA      α(0)
Molecule has the following symmetry elements: (sigma) 
It seems to be the Cs point group
     1   6 C      2.133    -0.050    32.125     9.161
     2   6 C      3.697     0.058    19.764     6.359
     3   6 C      2.133    -0.050    32.125     9.161
     4   7 N      2.634    -0.036    21.957     6.959
     5   1 H      0.925     0.079     1.987     2.204

 Mol. C6AA /au·bohr⁶  :        477.278758
 Mol. C8AA /au·bohr⁸  :      12461.024547
 Mol. α(0) /au        :         33.844386


Wiberg/Mayer (AO) data.
largest (>0.10) Wiberg bond orders for each atom
          total WBO             WBO to atom ...
     1  C   2.492        N    4 1.277    C    2 1.033    C    3 0.175
     2  C   3.596        C    3 1.033    C    1 1.033    H    5 0.944    N    4 0.586
     3  C   2.492        N    4 1.277    C    2 1.033    C    1 0.175
     4  N   3.176        C    1 1.277    C    3 1.277    C    2 0.586
     5  H   0.994        C    2 0.944

MOs/occ written to file <molden.input>


molecular dipole:
                 x           y           z       tot (Debye)
 q only:       -0.003       0.429       0.004
   full:       -0.002       0.572       0.109       1.480
molecular quadrupole (traceless):
                xx          xy          yy          xz          yz          zz
 q only:       -0.622      -0.006       0.621       0.009       0.140       0.001
  q+dip:       -2.189      -0.002       1.839       0.032       1.432       0.351
   full:       -2.949      -0.006       1.940       0.053       1.562       1.008

           -------------------------------------------------
          |                Geometry Summary                 |
           -------------------------------------------------

      molecular mass/u    :       51.0468517
   center of mass at/Å    :        0.0015850      -0.3493588      -0.0369167
  moments of inertia/u·Å² :        0.2332977E+02   0.2902221E+02   0.4870032E+02
rotational constants/cm⁻¹ :        0.7225804E+00   0.5808528E+00   0.3461503E+00

 * 3 selected distances

     #   Z        #   Z                                     value/Å
     1   6 C      4   7 N                                 1.3414221
     3   6 C      4   7 N                                 1.3414221 (max)
     2   6 C      5   1 H                                 1.0840320 (min)

 * 2 distinct bonds (by element types)

   Z      Z             #   av. dist./Å        max./Å        min./Å
   1 H    6 C           1     1.0840320     1.0840320     1.0840320
   6 C    7 N           2     1.3414221     1.3414221     1.3414221

           -------------------------------------------------
          |               Frequency Printout                |
           -------------------------------------------------
 projected vibrational frequencies (cm-1)
eigval :       -0.00    -0.00     0.00     0.00     0.00     0.00
eigval :      550.91   748.74   771.50   906.62   984.39  1067.25
eigval :     1162.58  1415.12  3022.14
 reduced masses (amu)
   1: 12.81   2: 12.26   3: 12.33   4: 11.21   5: 12.64   6: 10.59   7: 12.58   8: 12.35
   9:  9.57  10:  7.70  11:  2.81  12: 10.08  13: 12.01  14: 12.37  15:  1.84
 IR intensities (amu)
   1:  0.05   2:  0.09   3:  0.06   4:  0.08   5:  0.09   6:  0.14   7:  0.17   8:  0.04
   9:  0.82  10:  0.36  11:  0.44  12:  0.96  13:  1.49  14:  0.64  15:  0.10
 Raman intensities (amu)
   1:  0.00   2:  0.00   3:  0.00   4:  0.00   5:  0.00   6:  0.00   7:  0.00   8:  0.00
   9:  0.00  10:  0.00  11:  0.00  12:  0.00  13:  0.00  14:  0.00  15:  0.00
 output can be read by thermo (or use thermo option).
 writing <g98.out> molden fake output.
 recommended (thermochemical) frequency scaling factor: 1.0
           -------------------------------------------------
          |             Thermodynamic Functions             |
           -------------------------------------------------

cs  symmetry found (for desy threshold:  0.10E+00) used in thermo

          ...................................................
          :                      SETUP                      :
          :.................................................:
          :  # frequencies                           9      :
          :  # imaginary freq.                       0      :
          :  linear?                             false      :
          :  only rotor calc.                    false      :
          :  symmetry                               cs      :
          :  rotational number                       1      :
          :  scaling factor                  1.0000000      :
          :  rotor cutoff                   50.0000000 cm⁻¹ :
          :  imag. cutoff                  -20.0000000 cm⁻¹ :
          :.................................................:

    mode    ω/cm⁻¹     T·S(HO)/kcal·mol⁻¹    T·S(FR)/kcal·mol⁻¹   T·S(vib)
   ------------------------------------------------------------------------
   ------------------------------------------------------------------------

   temp. (K)  partition function   enthalpy   heat capacity  entropy
                                   cal/mol     cal/K/mol   cal/K/mol   J/K/mol
 298.15  VIB   1.17                  324.596      4.102      1.399
         ROT  0.139E+05              888.752      2.981     21.935
         INT  0.162E+05             1213.348      7.083     23.334
         TR   0.353E+27             1481.254      4.968     37.697
         TOT                        2694.6018    12.0508    61.0306   255.3519

   temp. (K)  partition function   enthalpy   heat capacity  entropy
                                   cal/mol     cal/K/mol   cal/K/mol   J/K/mol
 120.00  VIB   1.00                    2.699      0.162      0.026
         ROT  0.354E+04              357.707      2.981     19.222
         INT  0.355E+04              360.405      3.143     19.247
         TR   0.901E+26              596.178      4.968     33.177
         TOT                         956.5834     8.1111    52.4246   219.3443

   temp. (K)  partition function   enthalpy   heat capacity  entropy
                                   cal/mol     cal/K/mol   cal/K/mol   J/K/mol
 100.00  VIB   1.00                    0.656      0.055      0.007
         ROT  0.269E+04              298.089      2.981     18.678
         INT  0.270E+04              298.745      3.036     18.686
         TR   0.685E+26              496.815      4.968     32.272
         TOT                         795.5596     8.0038    50.9574   213.2056

   temp. (K)  partition function   enthalpy   heat capacity  entropy
                                   cal/mol     cal/K/mol   cal/K/mol   J/K/mol
  80.00  VIB   1.00                    0.084      0.011      0.001
         ROT  0.193E+04              238.471      2.981     18.013
         INT  0.193E+04              238.555      2.992     18.014
         TR   0.490E+26              397.452      4.968     31.164
         TOT                         636.0070     7.9597    49.1779   205.7603

   temp. (K)  partition function   enthalpy   heat capacity  entropy
                                   cal/mol     cal/K/mol   cal/K/mol   J/K/mol
  60.00  VIB   1.00                    0.003      0.001     -0.000
         ROT  0.125E+04              178.853      2.981     17.155
         INT  0.125E+04              178.856      2.982     17.155
         TR   0.319E+26              298.089      4.968     29.735
         TOT                         476.9453     7.9497    46.8907   196.1905

   temp. (K)  partition function   enthalpy   heat capacity  entropy
                                   cal/mol     cal/K/mol   cal/K/mol   J/K/mol
  40.00  VIB   1.00                    0.000      0.000     -0.000
         ROT   682.                  119.236      2.981     15.947
         INT   682.                  119.236      2.981     15.947
         TR   0.173E+26              198.726      4.968     27.722
         TOT                         317.9616     7.9490    43.6685   182.7089

   temp. (K)  partition function   enthalpy   heat capacity  entropy
                                   cal/mol     cal/K/mol   cal/K/mol   J/K/mol
  20.00  VIB   1.00                    0.000      0.000     -0.000
         ROT   241.                   59.618      2.981     13.881
         INT   241.                   59.618      2.981     13.880
         TR   0.613E+25               99.363      4.968     24.280
         TOT                         158.9808     7.9490    38.1602   159.6624

   temp. (K)  partition function   enthalpy   heat capacity  entropy
                                   cal/mol     cal/K/mol   cal/K/mol   J/K/mol
  10.00  VIB   1.00                    0.000      0.000     -0.000
         ROT   85.2                   29.809      2.981     11.814
         INT   85.2                   29.809      2.981     11.814
         TR   0.217E+25               49.681      4.968     20.838
         TOT                          79.4904     7.9490    32.6520   136.6158

       T/K    H(0)-H(T)+PV         H(T)/Eh          T*S/Eh         G(T)/Eh
   ------------------------------------------------------------------------
    298.15    0.429412E-02    0.285093E-01    0.289976E-01   -0.488252E-03
    120.00    0.152441E-02    0.257396E-01    0.100253E-01    0.157144E-01
    100.00    0.126780E-02    0.254830E-01    0.812057E-02    0.173625E-01
     80.00    0.101354E-02    0.252288E-01    0.626960E-02    0.189592E-01
     60.00    0.760061E-03    0.249753E-01    0.448350E-02    0.204918E-01
     40.00    0.506704E-03    0.247219E-01    0.278361E-02    0.219383E-01
     20.00    0.253352E-03    0.244686E-01    0.121624E-02    0.232523E-01
     10.00    0.126676E-03    0.243419E-01    0.520342E-03    0.238216E-01 (used)
   ------------------------------------------------------------------------

         :::::::::::::::::::::::::::::::::::::::::::::::::::::
         ::                  THERMODYNAMIC                  ::
         :::::::::::::::::::::::::::::::::::::::::::::::::::::
         :: total free energy          -9.468789489450 Eh   ::
         ::.................................................::
         :: total energy               -9.492611047069 Eh   ::
         :: zero point energy           0.024215223663 Eh   ::
         :: G(RRHO) w/o ZPVE           -0.000393666043 Eh   ::
         :: G(RRHO) contrib.            0.023821557620 Eh   ::
         :::::::::::::::::::::::::::::::::::::::::::::::::::::

optimized geometry written to: xtbopt.xyz


           -------------------------------------------------
          | TOTAL ENERGY               -9.492611047069 Eh   |
          | TOTAL ENTHALPY             -9.468269147391 Eh   |
          | TOTAL FREE ENERGY          -9.468789489450 Eh   |
          | GRADIENT NORM               0.000215931487 Eh/α |
          | HOMO-LUMO GAP               0.931785323184 eV   |
           -------------------------------------------------

------------------------------------------------------------------------
 * finished run on 2020/05/12 at 11:45:01.088     
------------------------------------------------------------------------
 total:
 * wall-time:     0 d,  0 h,  0 min,  0.133 sec
 *  cpu-time:     0 d,  0 h,  0 min,  0.132 sec
 * ratio c/w:     0.998 speedup
 SCF:
 * wall-time:     0 d,  0 h,  0 min,  0.005 sec
 *  cpu-time:     0 d,  0 h,  0 min,  0.005 sec
 * ratio c/w:     0.998 speedup
 ANC optimizer:
 * wall-time:     0 d,  0 h,  0 min,  0.031 sec
 *  cpu-time:     0 d,  0 h,  0 min,  0.031 sec
 * ratio c/w:     1.000 speedup
 numerical hessian:
 * wall-time:     0 d,  0 h,  0 min,  0.081 sec
 *  cpu-time:     0 d,  0 h,  0 min,  0.081 sec
 * ratio c/w:     0.997 speedup

