$hessian                                                                        
        0.5424649973  -0.1237795334   0.0276132434  -0.1760313900   0.0681511168
       -0.1186029207  -0.3162518155   0.0396936931   0.1063368991  -0.0258936770
        0.0112022329  -0.0195350840  -0.0242881147   0.0047324906   0.0041878622
       -0.1237795334   0.0438927782  -0.0886637444   0.0804303158  -0.0388302482
        0.0828459305   0.0274214835  -0.0078066413   0.0066628867   0.0042635478
        0.0015494872   0.0019391121   0.0116641863   0.0011946241  -0.0027841849
        0.0276132434  -0.0886637444   0.3141160624  -0.1659505498   0.0929273856
       -0.2226177583   0.1537415272  -0.0034048328  -0.1134186472   0.0071903878
       -0.0037582038   0.0115732411  -0.0225946086   0.0028993954   0.0103471020
       -0.1760313900   0.0804303158  -0.1659505498   0.5728780428  -0.1171389355
       -0.0250651893  -0.0568088095   0.0158730134  -0.0080007106  -0.3361441490
        0.0215714202   0.1970101129  -0.0038936943  -0.0007358139   0.0020063368
        0.0681511168  -0.0388302482   0.0929273856  -0.1171389355   0.0380882799
       -0.0820148696   0.0214894419   0.0045689056  -0.0041546340   0.0285470516
        0.0004112814  -0.0052067631  -0.0010486749  -0.0042382186  -0.0015511189
       -0.1186029207   0.0828459305  -0.2226177583  -0.0250651893  -0.0820148696
        0.3289920589  -0.0296557297   0.0004464341   0.0307858507   0.1701083151
        0.0005205714  -0.1365540081   0.0032155247  -0.0017980664  -0.0006061432
       -0.3162518155   0.0274214835   0.1537415272  -0.0568088095   0.0214894419
       -0.0296557297   0.5261428141  -0.1306962446   0.0656235681  -0.0008813362
       -0.0001614370  -0.0026336034  -0.1522008530   0.0819467562  -0.1870757623
        0.0396936931  -0.0078066413  -0.0034048328   0.0158730134   0.0045689056
        0.0004464341  -0.1306962446   0.0483960119  -0.1106638587   0.0001602441
       -0.0049128517   0.0000463112   0.0749692940  -0.0402454245   0.1135759463
        0.1063368991   0.0066628867  -0.1134186472  -0.0080007106  -0.0041546340
        0.0307858507   0.0656235681  -0.1106638587   0.3650983075  -0.0038446186
        0.0003099147  -0.0029263907  -0.1601151380   0.1078456913  -0.2795391203
       -0.0258936770   0.0042635478   0.0071903878  -0.3361441490   0.0285470516
        0.1701083151  -0.0008813362   0.0001602441  -0.0038446186   0.3643477312
       -0.0335083508  -0.1737687470  -0.0014285690   0.0005375073   0.0003146627
        0.0112022329   0.0015494872  -0.0037582038   0.0215714202   0.0004112814
        0.0005205714  -0.0001614370  -0.0049128517   0.0003099147  -0.0335083508
        0.0016958578   0.0027945780   0.0008961348   0.0012562253   0.0001331396
       -0.0195350840   0.0019391121   0.0115732411   0.1970101129  -0.0052067631
       -0.1365540081  -0.0026336034   0.0000463112  -0.0029263907  -0.1737687470
        0.0027945780   0.1271905830  -0.0010726786   0.0004267618   0.0007165747
       -0.0242881147   0.0116641863  -0.0225946086  -0.0038936943  -0.0010486749
        0.0032155247  -0.1522008530   0.0749692940  -0.1601151380  -0.0014285690
        0.0008961348  -0.0010726786   0.1818112310  -0.0864809402   0.1805669006
        0.0047324906   0.0011946241   0.0028993954  -0.0007358139  -0.0042382186
       -0.0017980664   0.0819467562  -0.0402454245   0.1078456913   0.0005375073
        0.0012562253   0.0004267618  -0.0864809402   0.0420327938  -0.1093737821
        0.0041878622  -0.0027841849   0.0103471020   0.0020063368  -0.0015511189
       -0.0006061432  -0.1870757623   0.1135759463  -0.2795391203   0.0003146627
        0.0001331396   0.0007165747   0.1805669006  -0.1093737821   0.2690815868
