5
 energy: -11.083284898040 gnorm: 0.085289613866 xtb: 6.2.2 (9d81278992624c895f80dd42a50cac0aa55982e2)
C         0.09063400000000    0.07640900000000   -0.36940800000000
O         0.98518600000000   -0.36605700000000    0.60368700000000
O        -1.17990700000000    0.20189900000000    0.18995800000000
H         1.85373200000000   -0.42875000000000    0.13216800000000
H        -1.74964600000000    0.51649800000000   -0.55640500000000
5
 energy: -11.088640122561 gnorm: 0.034448764561 xtb: 6.2.2 (9d81278992624c895f80dd42a50cac0aa55982e2)
C         0.07748433235827    0.06532316155918   -0.31581199208213
O         1.01826417504210   -0.37047286605598    0.59355696573214
O        -1.20527427400106    0.21281558733134    0.16865973513435
H         1.86490671911834   -0.42867522392635    0.12269991908681
H        -1.75538195251765    0.52100834109182   -0.56910462787117
5
 energy: -11.089609125622 gnorm: 0.003946597267 xtb: 6.2.2 (9d81278992624c895f80dd42a50cac0aa55982e2)
C         0.07056746211798    0.05949204771397   -0.28761955128500
O         1.03218686741847   -0.37103333451271    0.58427875280145
O        -1.21360109377499    0.21809370915309    0.15513023194412
H         1.86938878697413   -0.42912037354891    0.12073793371540
H        -1.75854302273559    0.52256695119456   -0.57252736717597
5
 energy: -11.089623758950 gnorm: 0.001076830778 xtb: 6.2.2 (9d81278992624c895f80dd42a50cac0aa55982e2)
C         0.06966002334130    0.05872737719951   -0.28392054195120
O         1.03374170982192   -0.37130197286571    0.58403131632724
O        -1.21490082375449    0.21857749930102    0.15433804526058
H         1.87188039810586   -0.42941257777987    0.11982226004181
H        -1.76038230751458    0.52340867414505   -0.57427107967843
5
 energy: -11.089624452466 gnorm: 0.000495128134 xtb: 6.2.2 (9d81278992624c895f80dd42a50cac0aa55982e2)
C         0.06929956809631    0.05842442604004   -0.28245012865306
O         1.03421350473697   -0.37143513356297    0.58413550755341
O        -1.21537965083637    0.21870496148246    0.15426289165730
H         1.87292940578057   -0.42948185153865    0.11923857474886
H        -1.76106382777749    0.52378659757911   -0.57518684530651
