5
 energy: -11.089624452738 gnorm: 0.000494030157 xtb: 6.2.2 (9d81278992624c895f80dd42a50cac0aa55982e2)
C         0.06929888806464    0.05842357022416   -0.28245047252189
O         1.03421359891186   -0.37143952918845    0.58413254573940
O        -1.21537796719665    0.21871159442882    0.15426675241927
H         1.87292757320662   -0.42949145005915    0.11923278657824
H        -1.76106309299171    0.52379481459986   -0.57518161220977
