[Molden Format]
[Title]
[Atoms] AU
C      1     6  0.13095590703319E+00  0.11040453670317E+00 -0.53375398731588E+00
O      2     8  0.19543802749798E+01 -0.70191891690215E+00  0.11038504295128E+01
O      3     8 -0.22967312828156E+01  0.41330497540431E+00  0.29152188516050E+00
H      4     1  0.35393198362428E+01 -0.81162113817806E+00  0.22531729080391E+00
H      5     1 -0.33279266251761E+01  0.98982865325667E+00 -0.10869356181514E+01
[GTO]
           1 0
 s           4   1.0000000000000000     
   51.049363095579913      -0.16312063210127389     
   8.7911227406887544      -0.19911024581000730     
  0.70640422258929825       0.31882047753655751     
  0.26922813413411617       0.12706504184240380     
 p           4   1.0000000000000000     
   5.8263656140800002       0.73716451545209605     
   1.5106896018720002       0.68216371614850257     
  0.53256483288000001       0.35783053929253711     
  0.21202323690600003        5.3983030275847881E-002

           2 0
 s           4   1.0000000000000000     
   69.137961906196551      -0.20478756370077797     
   11.906129132707308      -0.24997023136827334     
  0.95670827744340703       0.40025880240639616     
  0.36462520496073686       0.15952206667693555     
 p           4   1.0000000000000000     
   8.2124193257781641        1.1321556799186829     
   2.1293576997098116        1.0476840782254817     
  0.75066448202360914       0.54956508217158984     
  0.29885246543283073        8.2908486592766617E-002

           3 0
 s           4   1.0000000000000000     
   69.137961906196551      -0.20478756370077797     
   11.906129132707308      -0.24997023136827334     
  0.95670827744340703       0.40025880240639616     
  0.36462520496073686       0.15952206667693555     
 p           4   1.0000000000000000     
   8.2124193257781641        1.1321556799186829     
   2.1293576997098116        1.0476840782254817     
  0.75066448202360914       0.54956508217158984     
  0.29885246543283073        8.2908486592766617E-002

           4 0
 s           3   1.0000000000000000     
   3.3702276975336001       0.27359110588908298     
  0.61389118221497996       0.26460540653860526     
  0.16614291148415999        8.2465947534082318E-002

           5 0
 s           3   1.0000000000000000     
   3.3702276975336001       0.27359110588908298     
  0.61389118221497996       0.26460540653860526     
  0.16614291148415999        8.2465947534082318E-002

[MO]
Sym=     1a
Ene=  -0.71004683790509027     
Spin= Alpha
Occup=     2.00000000
           1  0.27083761802672518     
           2  -2.4642266462860683E-002
           3  -2.0774590244379942E-002
           4  0.10043745383215920     
           5  0.53442275682114226     
           6  -4.7419249953908005E-002
           7   2.9426772483057376E-002
           8  -7.4631135262465717E-002
           9  0.53442334895686949     
          10   7.8153210874297913E-002
          11  -3.5168397746765515E-003
          12  -5.0636347969494018E-002
          13  0.10383045809752189     
          14  0.10383061491266249     
Sym=     2a
Ene=  -0.70800571696604675     
Spin= Alpha
Occup=     2.00000000
           1  -1.5624122460970768E-007
           2 -0.19692842770564234     
           3   5.1661210941636851E-002
           4  -3.7630445464555358E-002
           5 -0.54866407667746819     
           6  -4.7707224305078448E-002
           7  -8.6620318087806368E-003
           8   7.2627485769757638E-002
           9  0.54866350018107513     
          10  -9.3923742437594451E-003
          11   2.3638916706298811E-002
          12  -8.3538870829882372E-002
          13 -0.13742344367822462     
          14  0.13742334710412099     
Sym=     3a
Ene=  -0.63506310673368371     
Spin= Alpha
Occup=     2.00000000
           1  0.33057026992498567     
           2  -3.6860842033558362E-002
           3  -3.1075148640402263E-002
           4  0.15023938123876432     
           5 -0.13141456298040705     
           6 -0.43743533496831161     
           7  0.10391800868680680     
           8  -4.1767942087697470E-002
           9 -0.13141452160642886     
          10  0.41783356393078003     
          11 -0.12044165809225210     
          12  0.12166396296989004     
          13 -0.23099736087686165     
          14 -0.23099736041969970     
Sym=     4a
Ene=  -0.56699481221304060     
Spin= Alpha
Occup=     2.00000000
           1   9.5566848286871195E-009
           2  0.31298580055021341     
           3  -8.2120305253273351E-002
           4   5.9804652679115049E-002
           5   7.3197722430805481E-002
           6 -0.49167112465767654     
           7  0.12384298131820226     
           8  -7.4185408085724810E-002
           9  -7.3197758397557822E-002
          10 -0.48240525950300395     
          11  0.13165146909734646     
          12 -0.11195577871740389     
          13 -0.26673949579812295     
          14  0.26673949155192733     
Sym=     5a
Ene=  -0.56589332351952359     
Spin= Alpha
Occup=     2.00000000
           1 -0.36821070623534735     
           2  -5.3162119847408533E-002
           3  -4.4817154537780672E-002
           4  0.21668204575590114     
           5  0.28308160890157885     
           6 -0.10800473990005741     
           7 -0.10101160845082731     
           8  0.47863374158878585     
           9  0.28308163890965676     
          10 -0.12601413063054626     
          11  -9.6274129166872446E-002
          12  0.47519511374739282     
          13 -0.14111790848584141     
          14 -0.14111790695541493     
Sym=     6a
Ene=  -0.54028550978138168     
Spin= Alpha
Occup=     2.00000000
           1   1.6839213323332631E-008
           2  0.21428400603040496     
           3  -5.6182031510189731E-002
           4   4.0953437452807447E-002
           5 -0.32964592570306395     
           6   9.8019987104589826E-002
           7  0.12138979800422478     
           8 -0.54892327938930108     
           9  0.32964591348308053     
          10 -0.16805502166212608     
          11 -0.10292177832534508     
          12  0.53556021207175075     
          13  0.14290878311937230     
          14 -0.14290877614585235     
Sym=     7a
Ene=  -0.53016968760561389     
Spin= Alpha
Occup=     2.00000000
           1   1.1556098587253945E-006
           2   8.4071259660976033E-002
           3  0.39503963853469443     
           4  0.10233510523685173     
           5   2.5830254162472185E-005
           6  0.11687528441777154     
           7  0.54926451199639925     
           8  0.14233548064106136     
           9  -2.5782072951213655E-005
          10  0.11689638344610968     
          11  0.54928500797295199     
          12  0.14223906118802657     
          13  -1.7648515184443633E-005
          14   1.7983397155640044E-005
Sym=     8a
Ene=  -0.47490075075864691     
Spin= Alpha
Occup=     2.00000000
           1  -3.7096468957737197E-006
           2  -2.1972637885982874E-006
           3  -1.5678440356524866E-006
           4   7.8743860801618992E-006
           5  -4.2450407774632271E-006
           6  0.14319421056558343     
           7  0.67282390268722314     
           8  0.17430539036647777     
           9  -3.9160032770101621E-006
          10 -0.14319330196628322     
          11 -0.67282814564431737     
          12 -0.17428973627955513     
          13   3.7938161375225359E-006
          14   3.3449178634498728E-006
Sym=     9a
Ene=  -0.34339777246220826     
Spin= Alpha
Occup=     1.00000000
           1 -0.56035719616830870     
           2 -0.17077148656810820     
           3 -0.14396782341774331     
           4  0.69603893418658069     
           5  -8.0532066076300021E-002
           6  -1.6524071186474292E-002
           7   9.6026546597174883E-002
           8 -0.35711798663476974     
           9  -8.0532063806808982E-002
          10  0.18243241267047089     
          11   4.3842352561859359E-002
          12 -0.31909819921982946     
          13  0.10695381607828526     
          14  0.10695381653553994     
Sym=    10a
Ene=  -0.24452308766873948     
Spin= Alpha
Occup=     1.00000000
           1  -7.5070795971704053E-007
           2 -0.18898176229303526     
           3 -0.88792733444098815     
           4 -0.23002509885559352     
           5  -1.8827158738474733E-006
           6   8.7024358684793565E-002
           7  0.40890808876207557     
           8  0.10593291690321624     
           9   3.5106880839509552E-006
          10   8.7025168672348802E-002
          11  0.40890994925656887     
          12  0.10592506046243186     
          13   3.9559895768994484E-006
          14  -6.0564141750412747E-006
Sym=    11a
Ene=    3.3804427230995047E-002
Spin= Alpha
Occup=     0.00000000
           1 -0.53096560916268287     
           2  0.11130231916784930     
           3   9.3833918503812730E-002
           4 -0.45364990397620608     
           5  0.58281418882954450     
           6   3.1394934459814720E-002
           7   9.9215885174286811E-002
           8 -0.40874364364439630     
           9  0.58281418719979117     
          10  0.16300375209231213     
          11   6.4668274068909515E-002
          12 -0.38359952422594690     
          13 -0.60902175477286935     
          14 -0.60902175887589027     
Sym=    12a
Ene=   0.14715070775942235     
Spin= Alpha
Occup=     0.00000000
           1   2.3712880464208979E-008
           2  0.22493402974205975     
           3  -5.9004694621791212E-002
           4   4.2982589142711206E-002
           5 -0.50124271805382314     
           6 -0.44951002688942931     
           7   7.5213597323936380E-004
           8  0.36635348549374896     
           9  0.50124271438105805     
          10 -0.23753140247098897     
          11  0.17945681894301554     
          12 -0.49764327793917196     
          13  0.79485846662982063     
          14 -0.79485850231517374     
Sym=    13a
Ene=   0.24110496844952709     
Spin= Alpha
Occup=     0.00000000
           1  0.66154222048918976     
           2 -0.13615193762764635     
           3 -0.11477351513166072     
           4  0.55490004226792855     
           5   2.5458239734090320E-002
           6  0.68658513634405727     
           7 -0.14753904896418507     
           8   5.4715754947471844E-003
           9   2.5453760935604419E-002
          10 -0.62766381994290266     
          11  0.19721863476391691     
          12 -0.24566266580908072     
          13 -0.57369538746888549     
          14 -0.57369917061551978     
Sym=    14a
Ene=   0.24129725607927063     
Spin= Alpha
Occup=     0.00000000
           1   5.0028894069971440E-006
           2   1.0615690066920238     
           3 -0.27849114051992280     
           4  0.20285528564869165     
           5 -0.29352896459198752     
           6  0.45655098814273282     
           7 -0.19005808750925787     
           8  0.35857401949313233     
           9  0.29352935636180699     
          10  0.58372119733750283     
          11  -8.2835310501963647E-002
          12 -0.15979265760216094     
          13 -0.25372921511188484     
          14  0.25372053283452239     
