      -----------------------------------------------------------      
     |                   =====================                   |     
     |                           x T B                           |     
     |                   =====================                   |     
     |                         S. Grimme                         |     
     |          Mulliken Center for Theoretical Chemistry        |     
     |                    University of Bonn                     |     
      -----------------------------------------------------------      

   * xtb version 6.2.2 (9d81278992624c895f80dd42a50cac0aa55982e2) compiled by '@Darwin' on 04/03/2020

   xtb is free software: you can redistribute it and/or modify it under
   the terms of the GNU Lesser General Public License as published by
   the Free Software Foundation, either version 3 of the License, or
   (at your option) any later version.
   
   xtb is distributed in the hope that it will be useful,
   but WITHOUT ANY WARRANTY; without even the implied warranty of
   MERCHANTABILITY or FITNESS FOR A PARTICULAR PURPOSE.  See the
   GNU Lesser General Public License for more details.
   
   Cite this work as:
   * S. Grimme, C. Bannwarth, P. Shushkov, J. Chem. Theory Comput., 2017,
     13, 1989-2009. DOI: 10.1021/acs.jctc.7b00118
   * C. Bannwarth, S. Ehlert and S. Grimme., J. Chem. Theory Comput., 2019,
     15, 1652-1671. DOI: 10.1021/acs.jctc.8b01176
   * P. Pracht, E. Caldeweyher, S. Ehlert, S. Grimme, ChemRxiv, 2019, preprint.
     DOI: 10.26434/chemrxiv.8326202.v1
   
   for DFT-D4:
   * E. Caldeweyher, C. Bannwarth and S. Grimme, J. Chem. Phys., 2017,
     147, 034112. DOI: 10.1063/1.4993215
   * E. Caldeweyher, S. Ehlert, A. Hansen, H. Neugebauer, S. Spicher,
     C. Bannwarth and S. Grimme, J. Chem. Phys., 2019, 150, 154122.
     DOI: 10.1063/1.5090222
   
   for sTDA-xTB:
   * S. Grimme and C. Bannwarth, J. Chem. Phys., 2016, 145, 054103.
     DOI: 10.1063/1.4959605
   
   in the mass-spec context:
   * V. Asgeirsson, C. Bauer and S. Grimme, Chem. Sci., 2017, 8, 4879.
     DOI: 10.1039/c7sc00601b
   
   for metadynamics refer to:
   * S. Grimme, J. Chem. Theory Comput., 2019, 155, 2847-2862
     DOI: 10.1021/acs.jctc.9b00143
   
   with help from (in alphabetical order)
   C. Bannwarth, F. Bohle, G. Brandenburg, E. Caldeweyher, M. Checinski,
   S. Dohm, S. Ehlert, S. Ehrlich, F. März, H. Neugebauer, J. Pisarek,
   P. Pracht, P. Shushkov, and S. Spicher.
   
 * started run on 2020/05/12 at 11:43:52.573     

           -------------------------------------------------
          |                Calculation Setup                |
           -------------------------------------------------

          program call               : xtb --input H2C1O2_2_S_2.input H2C1O2_2_S_2.xyz --ohess --molden --namespace H2C1O2_2_S_2 output.out
          calculation namespace      : H2C1O2_2_S_2
          coordinate file            : H2C1O2_2_S_2.xyz
          number of atoms            :                     5
          number of electrons        :                    18
          charge                     :                     0
          spin                       :                   1.0
          first test random number   :      0.62956097748928

   ID    Z sym.   atoms
    1    6 C      1
    2    8 O      2, 3
    3    1 H      4, 5

           -------------------------------------------------
          |                 G F N 2 - x T B                 |
           -------------------------------------------------

        Reference                      10.1021/acs.jctc.8b01176
      * Hamiltonian:
        H0-scaling (s, p, d)           1.850000    2.230000    2.230000
        zeta-weighting                 0.500000
      * Dispersion:
        s8                             2.700000
        a1                             0.520000
        a2                             5.000000
        s9                             5.000000
      * Repulsion:
        kExp                           1.500000    1.000000
        rExp                           1.000000
      * Coulomb:
        alpha                          2.000000
        third order                    shell-resolved
        anisotropic                    true
        a3                             3.000000
        a5                             4.000000
        cn-shift                       1.200000
        cn-exp                         4.000000
        max-rad                        5.000000


          ...................................................
          :                      SETUP                      :
          :.................................................:
          :  # basis functions                  14          :
          :  # atomic orbitals                  14          :
          :  # shells                            8          :
          :  # electrons                        18          :
          :  max. iterations                   250          :
          :  Hamiltonian                  GFN2-xTB          :
          :  restarted?                      false          :
          :  GBSA solvation                  false          :
          :  PC potential                    false          :
          :  electronic temp.          300.0000000     K    :
          :  accuracy                    1.0000000          :
          :  -> integral cutoff          0.2500000E+02      :
          :  -> integral neglect         0.1000000E-07      :
          :  -> SCF convergence          0.1000000E-05 Eh   :
          :  -> wf. convergence          0.1000000E-03 e    :
          :  Broyden damping             0.4000000          :
          ...................................................

 iter      E             dE          RMSdq      gap      omega  full diag
   1    -11.1224388 -0.111224E+02  0.412E+00    8.35       0.0  T
   2    -11.1243475 -0.190871E-02  0.241E+00    8.09       1.0  T
   3    -11.1247879 -0.440391E-03  0.351E-01    7.86       1.0  T
   4    -11.1247938 -0.594360E-05  0.210E-01    7.87       1.0  T
   5    -11.1249370 -0.143165E-03  0.528E-02    7.91       1.0  T
   6    -11.1249397 -0.274182E-05  0.396E-02    7.92       1.1  T
   7    -11.1249457 -0.596278E-05  0.630E-04    7.91      71.0  T
   8    -11.1249457  0.720455E-10  0.354E-04    7.91     126.4  T
   9    -11.1249457 -0.176486E-09  0.320E-05    7.91    1398.2  T

   *** convergence criteria satisfied after 9 iterations ***

         #    Occupation            Energy/Eh            Energy/eV
      -------------------------------------------------------------
         1        2.0000           -0.7102460             -19.3268
       ...           ...                  ...                  ...
         4        2.0000           -0.5682873             -15.4639
         5        2.0000           -0.5521312             -15.0243
         6        2.0000           -0.5443745             -14.8132
         7        2.0000           -0.5286291             -14.3847
         8        2.0000           -0.4731273             -12.8744
         9        1.0000           -0.3689138             -10.0387
        10        1.0000           -0.2613885              -7.1127 (HOMO)
        11                          0.0294006               0.8000 (LUMO)
        12                          0.0997017               2.7130
        13                          0.1356230               3.6905
        14                          0.1850752               5.0362
      -------------------------------------------------------------
                  HL-Gap            0.2907891 Eh            7.9128 eV
             Fermi-level           -0.2685073 Eh           -7.3065 eV

 transition dipole moment (au) for excitation:           9          10
     X       Y       Z   
  -0.0625  -0.2937  -0.0761  total (au/Debye):    0.310   0.787
 dE (eV)             :    2.926
 oscillator strength :  0.97298E-02

 SCC (total)                   0 d,  0 h,  0 min,  0.002 sec
 SCC setup                      ...        0 min,  0.000 sec (  2.953%)
 Dispersion                     ...        0 min,  0.000 sec (  0.469%)
 integral evaluation            ...        0 min,  0.001 sec ( 23.095%)
 zeroth order Hamiltonian       ...        0 min,  0.000 sec (  0.499%)
 iterations                     ...        0 min,  0.001 sec ( 27.833%)
 molecular gradient             ...        0 min,  0.001 sec ( 26.516%)
 printout                       ...        0 min,  0.000 sec ( 18.286%)

         :::::::::::::::::::::::::::::::::::::::::::::::::::::
         ::                     SUMMARY                     ::
         :::::::::::::::::::::::::::::::::::::::::::::::::::::
         :: total energy             -11.083284898079 Eh    ::
         :: gradient norm              0.085289383776 Eh/a0 ::
         :: HOMO-LUMO gap              7.912773499657 eV    ::
         ::.................................................::
         :: SCC energy               -11.124945678071 Eh    ::
         :: -> isotropic ES            0.035542320054 Eh    ::
         :: -> anisotropic ES          0.001010190836 Eh    ::
         :: -> anisotropic XC         -0.000276484313 Eh    ::
         :: -> dispersion             -0.001117426359 Eh    ::
         :: repulsion energy           0.041660830044 Eh    ::
         :: add. restraining           0.000000000000 Eh    ::
         :::::::::::::::::::::::::::::::::::::::::::::::::::::

      ----------------------------------------------------------- 
     |                   =====================                   |
     |                        A N C O P T                        |
     |                   =====================                   |
     |               Approximate Normal Coordinate               |
     |                Rational Function Optimizer                |
      ----------------------------------------------------------- 

          ...................................................
          :                      SETUP                      :
          :.................................................:
          :   optimization level            normal          :
          :   max. optcycles                   200          :
          :   ANC micro-cycles                  20          :
          :   degrees of freedom                 9          :
          :.................................................:
          :   RF solver                   davidson          :
          :   write xtbopt.log                true          :
          :   linear?                        false          :
          :   energy convergence         0.5000000E-05 Eh   :
          :   grad. convergence          0.1000000E-02 Eh/α :
          :   maximium RF displ.         1.0000000          :
          :   Hlow (freq-cutoff)         0.1000000E-01      :
          :   Hmax (freq-cutoff)         5.0000000          :
          :   S6 in model hess.         20.0000000          :
          ...................................................

generating ANC from model Hessian ...
Using Lindh-Hessian (1995)
 Shifting diagonal of input Hessian by    0.0000000000000000     
 Lowest  eigenvalues of input Hessian
   -0.000000   -0.000000    0.000000    0.000000    0.000000    0.000000
    0.019520    0.033997    0.082413    0.130667    0.252716    1.115629
    1.165154    1.261073    1.432134
 Highest eigenvalues
    0.130667    0.252716    1.115629    1.165154    1.261073    1.432134


........................................................................
.............................. CYCLE    1 ..............................
........................................................................
   1    -11.1249457 -0.111249E+02  0.803E-06    7.91       0.0  T
   2    -11.1249457 -0.110134E-12  0.452E-06    7.91    9903.6  T
   3    -11.1249457 -0.106581E-13  0.276E-06    7.91   16197.7  T
     SCC iter.                  ...        0 min,  0.000 sec
     gradient                   ...        0 min,  0.001 sec
 * total energy  :   -11.0832849 Eh     change        0.3922906E-10 Eh
   gradient norm :     0.0852896 Eh/α   predicted     0.0000000E+00 (-100.00%)
   displ. norm   :     0.1467426 α      lambda       -0.7841674E-02
   maximum displ.:     0.0908671 α      in ANC's #3, #4, #7, ...

........................................................................
.............................. CYCLE    2 ..............................
........................................................................
   1    -11.1375866 -0.111376E+02  0.587E-01    7.83       0.0  T
   2    -11.1376067 -0.200908E-04  0.344E-01    7.81       1.0  T
   3    -11.1376109 -0.426357E-05  0.299E-02    7.79       1.5  T
   4    -11.1376116 -0.724436E-06  0.999E-03    7.79       4.5  T
   5    -11.1376118 -0.155576E-06  0.373E-03    7.80      12.0  T
   6    -11.1376118 -0.121876E-08  0.384E-04    7.80     116.5  T
   7    -11.1376118 -0.422251E-09  0.118E-04    7.80     380.6  T
     SCC iter.                  ...        0 min,  0.001 sec
     gradient                   ...        0 min,  0.001 sec
 * total energy  :   -11.0886401 Eh     change       -0.5355225E-02 Eh
   gradient norm :     0.0344488 Eh/α   predicted    -0.4005264E-02 ( -25.21%)
   displ. norm   :     0.0728321 α      lambda       -0.1848361E-02
   maximum displ.:     0.0465644 α      in ANC's #7, #4, #3, ...

........................................................................
.............................. CYCLE    3 ..............................
........................................................................
   1    -11.1439859 -0.111440E+02  0.340E-01    7.70       0.0  T
   2    -11.1439927 -0.687222E-05  0.200E-01    7.69       1.0  T
   3    -11.1439941 -0.139064E-05  0.177E-02    7.68       2.5  T
   4    -11.1439944 -0.266012E-06  0.647E-03    7.68       6.9  T
   5    -11.1439944 -0.443923E-07  0.192E-03    7.68      23.3  T
   6    -11.1439944 -0.317273E-09  0.172E-04    7.68     260.1  T
   7    -11.1439944 -0.810818E-10  0.579E-05    7.68     772.9  T
     SCC iter.                  ...        0 min,  0.000 sec
     gradient                   ...        0 min,  0.001 sec
 * total energy  :   -11.0896091 Eh     change       -0.9690031E-03 Eh
   gradient norm :     0.0039466 Eh/α   predicted    -0.9290827E-03 (  -4.12%)
   displ. norm   :     0.0110926 α      lambda       -0.2401737E-04
   maximum displ.:     0.0087759 α      in ANC's #4, #3, #7, ...

........................................................................
.............................. CYCLE    4 ..............................
........................................................................
   1    -11.1438043 -0.111438E+02  0.334E-02    7.61       0.0  T
   2    -11.1438045 -0.150264E-06  0.201E-02    7.61       2.2  T
   3    -11.1438045 -0.997958E-08  0.346E-03    7.61      12.9  T
   4    -11.1438045 -0.193910E-07  0.102E-03    7.61      43.8  T
   5    -11.1438045 -0.258485E-09  0.153E-04    7.61     291.4  T
   6    -11.1438045 -0.157705E-10  0.177E-05    7.61    2529.1  T
     SCC iter.                  ...        0 min,  0.000 sec
     gradient                   ...        0 min,  0.001 sec
 * total energy  :   -11.0896238 Eh     change       -0.1463333E-04 Eh
   gradient norm :     0.0010768 Eh/α   predicted    -0.1200833E-04 ( -17.94%)
   displ. norm   :     0.0045424 α      lambda       -0.1749163E-05
   maximum displ.:     0.0032720 α      in ANC's #4, #3, #8, ...

........................................................................
.............................. CYCLE    5 ..............................
........................................................................
   1    -11.1436001 -0.111436E+02  0.126E-02    7.57       0.0  T
   2    -11.1436002 -0.562369E-07  0.745E-03    7.57       6.0  T
   3    -11.1436002 -0.661727E-08  0.240E-03    7.57      18.7  T
   4    -11.1436002 -0.427020E-08  0.638E-04    7.57      70.1  T
   5    -11.1436002 -0.166795E-09  0.148E-04    7.57     302.3  T
     SCC iter.                  ...        0 min,  0.000 sec
     gradient                   ...        0 min,  0.001 sec
 * total energy  :   -11.0896245 Eh     change       -0.6935162E-06 Eh
   gradient norm :     0.0004951 Eh/α   predicted    -0.8742824E-06 (  26.07%)
   displ. norm   :     0.0014679 α      lambda       -0.2699713E-06
   maximum displ.:     0.0012274 α      in ANC's #4, #3, #8, ...

   *** GEOMETRY OPTIMIZATION CONVERGED AFTER 5 ITERATIONS ***

------------------------------------------------------------------------
 total energy gain   :        -0.0063396 Eh       -3.9781 kcal/mol
 total RMSD          :         0.1036512 a0        0.0548 Å
 total power (kW/mol):        -3.3288996 (step)-1813.7720 (real)
------------------------------------------------------------------------

 ANCopt (total)                0 d,  0 h,  0 min,  0.009 sec
 optimizer setup                ...        0 min,  0.000 sec (  0.582%)
 model hessian                  ...        0 min,  0.000 sec (  0.753%)
 ANC generation                 ...        0 min,  0.000 sec (  0.457%)
 coordinate transformation      ...        0 min,  0.000 sec (  0.402%)
 single point calculation       ...        0 min,  0.009 sec ( 93.707%)
 optimization log               ...        0 min,  0.000 sec (  0.976%)
 hessian update                 ...        0 min,  0.000 sec (  0.099%)
 rational function              ...        0 min,  0.000 sec (  1.433%)

================
 final structure:
================
5
 xtb: 6.2.2 (9d81278992624c895f80dd42a50cac0aa55982e2)
C         0.06929956809631    0.05842442604004   -0.28245012865306
O         1.03421350473697   -0.37143513356297    0.58413550755341
O        -1.21537965083637    0.21870496148246    0.15426289165730
H         1.87292940578057   -0.42948185153865    0.11923857474886
H        -1.76106382777749    0.52378659757911   -0.57518684530651

 Bond Distances (Angstroems)
 ---------------------------
C1-O2=1.3663         C1-O3=1.3663         O2-C1=1.3663         O2-H4=0.9607         O3-C1=1.3663         O3-H5=0.9607         
H4-O2=0.9607         H5-O3=0.9607         
 O  H  Rav=0.9607 sigma=0.0000  Rmin=0.9607  Rmax=0.9607     2
 O  C  Rav=1.3663 sigma=0.0000  Rmin=1.3663  Rmax=1.3663     2

 selected bond angles (degree)
 --------------------
O3-C1-O2=119.88                H4-O2-C1=109.19                H5-O3-C1=109.19                

 selected dihedral angles (degree)
 ---------------------------------
H4-O2-C1-O3=180.00            H5-O3-C1-O2=180.00            
           -------------------------------------------------
          |                Final Singlepoint                |
           -------------------------------------------------

          ...................................................
          :                      SETUP                      :
          :.................................................:
          :  # basis functions                  14          :
          :  # atomic orbitals                  14          :
          :  # shells                            8          :
          :  # electrons                        18          :
          :  max. iterations                   250          :
          :  Hamiltonian                  GFN2-xTB          :
          :  restarted?                      false          :
          :  GBSA solvation                  false          :
          :  PC potential                    false          :
          :  electronic temp.          300.0000000     K    :
          :  accuracy                    1.0000000          :
          :  -> integral cutoff          0.2500000E+02      :
          :  -> integral neglect         0.1000000E-07      :
          :  -> SCF convergence          0.1000000E-05 Eh   :
          :  -> wf. convergence          0.1000000E-03 e    :
          :  Broyden damping             0.4000000          :
          ...................................................

 iter      E             dE          RMSdq      gap      omega  full diag
   1    -11.1436002 -0.111436E+02  0.189E-05    7.57       0.0  T
   2    -11.1436002 -0.200728E-12  0.125E-05    7.57    3590.1  T
   3    -11.1436002 -0.923706E-13  0.364E-06    7.57   12281.2  T

   *** convergence criteria satisfied after 3 iterations ***

         #    Occupation            Energy/Eh            Energy/eV
      -------------------------------------------------------------
         1        2.0000           -0.7100469             -19.3214
       ...           ...                  ...                  ...
         4        2.0000           -0.5669948             -15.4287
         5        2.0000           -0.5658934             -15.3987
         6        2.0000           -0.5402855             -14.7019
         7        2.0000           -0.5301697             -14.4267
         8        2.0000           -0.4749008             -12.9227
         9        1.0000           -0.3433978              -9.3443
        10        1.0000           -0.2445231              -6.6538 (HOMO)
        11                          0.0338044               0.9199 (LUMO)
        12                          0.1471507               4.0042
        13                          0.2411049               6.5608
        14                          0.2412972               6.5660
      -------------------------------------------------------------
                  HL-Gap            0.2783276 Eh            7.5737 eV
             Fermi-level           -0.2572543 Eh           -7.0002 eV

 transition dipole moment (au) for excitation:           9          10
     X       Y       Z   
  -0.0574  -0.2698  -0.0699  total (au/Debye):    0.285   0.723
 dE (eV)             :    2.691
 oscillator strength :  0.75482E-02

 SCC (total)                   0 d,  0 h,  0 min,  0.002 sec
 SCC setup                      ...        0 min,  0.000 sec (  1.751%)
 Dispersion                     ...        0 min,  0.000 sec (  0.261%)
 integral evaluation            ...        0 min,  0.001 sec ( 33.801%)
 zeroth order Hamiltonian       ...        0 min,  0.000 sec (  0.410%)
 iterations                     ...        0 min,  0.000 sec (  9.065%)
 molecular gradient             ...        0 min,  0.001 sec ( 27.257%)
 printout                       ...        0 min,  0.001 sec ( 27.195%)

         :::::::::::::::::::::::::::::::::::::::::::::::::::::
         ::                     SUMMARY                     ::
         :::::::::::::::::::::::::::::::::::::::::::::::::::::
         :: total energy             -11.089624452738 Eh    ::
         :: gradient norm              0.000494030157 Eh/a0 ::
         :: HOMO-LUMO gap              7.573678153944 eV    ::
         ::.................................................::
         :: SCC energy               -11.143600184336 Eh    ::
         :: -> isotropic ES            0.035078081217 Eh    ::
         :: -> anisotropic ES          0.000395946701 Eh    ::
         :: -> anisotropic XC         -0.001037212770 Eh    ::
         :: -> dispersion             -0.001112497451 Eh    ::
         :: repulsion energy           0.053975788624 Eh    ::
         :: add. restraining           0.000000000000 Eh    ::
         :::::::::::::::::::::::::::::::::::::::::::::::::::::

           ------------------------------------------------- 
          |                Numerical Hessian                |
           ------------------------------------------------- 
step length          :   0.00500
SCC accuracy         :   0.30000
Hessian scale factor :   1.00000
frozen atoms in %    :   0.00000    0
RMS gradient         :   0.00049
estimated CPU  time      0.00 min
estimated wall time      0.00 min

writing file <hessian>.

 projected vibrational frequencies (cm-1)
eigval :       -0.00    -0.00    -0.00    -0.00    -0.00     0.00
eigval :     -434.81  -310.92   412.94  1021.51  1043.45  1264.78
eigval :     1360.71  3566.61  3570.73
           -------------------------------------------------
          |                Property Printout                |
           -------------------------------------------------

    * Orbital Energies and Occupations

         #    Occupation            Energy/Eh            Energy/eV
      -------------------------------------------------------------
         1        2.0000           -0.7100468             -19.3214
         2        2.0000           -0.7080057             -19.2658
         3        2.0000           -0.6350631             -17.2809
         4        2.0000           -0.5669948             -15.4287
         5        2.0000           -0.5658933             -15.3987
         6        2.0000           -0.5402855             -14.7019
         7        2.0000           -0.5301697             -14.4267
         8        2.0000           -0.4749008             -12.9227
         9        1.0000           -0.3433978              -9.3443
        10        1.0000           -0.2445231              -6.6538 (HOMO)
        11                          0.0338044               0.9199 (LUMO)
        12                          0.1471507               4.0042
        13                          0.2411050               6.5608
        14                          0.2412973               6.5660
      -------------------------------------------------------------
                  HL-Gap            0.2783275 Eh            7.5737 eV
             Fermi-level           -0.2572543 Eh           -7.0002 eV

     #   Z        covCN         q      C6AA      α(0)
     1   6 C      1.706     0.065    29.759     8.833
     2   8 O      1.658    -0.349    19.886     6.020
     3   8 O      1.658    -0.349    19.886     6.020
     4   1 H      0.805     0.317     0.673     1.288
     5   1 H      0.805     0.317     0.673     1.288

 Mol. C6AA /au·bohr⁶  :        254.321828
 Mol. C8AA /au·bohr⁸  :       5593.986637
 Mol. α(0) /au        :         23.449538


Wiberg/Mayer (AO) data.
largest (>0.10) Wiberg bond orders for each atom
          total WBO             WBO to atom ...
     1  C   2.142        O    2 1.063    O    3 1.063
     2  O   1.971        C    1 1.063    H    4 0.874
     3  O   1.971        C    1 1.063    H    5 0.874
     4  H   0.891        O    2 0.874
     5  H   0.891        O    3 0.874

MOs/occ written to file <molden.input>


molecular dipole:
                 x           y           z       tot (Debye)
 q only:        0.195       0.164      -0.794
   full:        0.243       0.205      -0.989       2.641
molecular quadrupole (traceless):
                xx          xy          yy          xz          yz          zz
 q only:        4.180      -1.713      -1.839       1.311      -0.261      -2.341
  q+dip:        4.918      -1.968      -1.873       1.637      -0.164      -3.045
   full:        5.136      -2.105      -2.264       1.610      -0.323      -2.872

           -------------------------------------------------
          |                Geometry Summary                 |
           -------------------------------------------------

      molecular mass/u    :       46.0254272
   center of mass at/Å    :       -0.0424426      -0.0357801       0.1729901
  moments of inertia/u·Å² :        0.4464122E+01   0.5210452E+02   0.5656864E+02
rotational constants/cm⁻¹ :        0.3776248E+01   0.3235349E+00   0.2980031E+00

 * 2 selected distances

     #   Z        #   Z                                     value/Å
     2   8 O      4   1 H                                 0.9606992 (min)
     3   8 O      5   1 H                                 0.9606992 (max)

 * 1 distinct bonds (by element types)

   Z      Z             #   av. dist./Å        max./Å        min./Å
   1 H    8 O           2     0.9606992     0.9606992     0.9606992

           -------------------------------------------------
          |               Frequency Printout                |
           -------------------------------------------------
 projected vibrational frequencies (cm-1)
eigval :       -0.00    -0.00    -0.00    -0.00    -0.00     0.00
eigval :     -434.81  -310.92   412.94  1021.51  1043.45  1264.78
eigval :     1360.71  3566.61  3570.73
 reduced masses (amu)
   1: 13.92   2: 13.90   3: 13.68   4: 13.77   5: 15.44   6: 12.18   7:  3.12   8:  2.37
   9: 13.18  10:  5.94  11:  3.66  12: 10.73  13: 12.43  14:  1.87  15:  1.88
 IR intensities (amu)
   1:  0.16   2:  0.30   3:  0.43   4:  0.22   5:  0.53   6:  0.09   7:  0.00   8:  0.62
   9:  0.03  10:  0.13  11:  1.04  12:  0.70  13:  2.10  14:  0.34  15:  0.24
 Raman intensities (amu)
   1:  0.00   2:  0.00   3:  0.00   4:  0.00   5:  0.00   6:  0.00   7:  0.00   8:  0.00
   9:  0.00  10:  0.00  11:  0.00  12:  0.00  13:  0.00  14:  0.00  15:  0.00
Molecule has the following symmetry elements: (C2) 2*(sigma) 
It seems to be the C2v point group
 output can be read by thermo (or use thermo option).
 writing <g98.out> molden fake output.
 recommended (thermochemical) frequency scaling factor: 1.0
           -------------------------------------------------
          |             Thermodynamic Functions             |
           -------------------------------------------------

c2v symmetry found (for desy threshold:  0.10E+00) used in thermo

          ...................................................
          :                      SETUP                      :
          :.................................................:
          :  # frequencies                           7      :
          :  # imaginary freq.                       2      :
          :  linear?                             false      :
          :  only rotor calc.                    false      :
          :  symmetry                              c2v      :
          :  rotational number                       2      :
          :  scaling factor                  1.0000000      :
          :  rotor cutoff                   50.0000000 cm⁻¹ :
          :  imag. cutoff                  -20.0000000 cm⁻¹ :
          :.................................................:

    mode    ω/cm⁻¹     T·S(HO)/kcal·mol⁻¹    T·S(FR)/kcal·mol⁻¹   T·S(vib)
   ------------------------------------------------------------------------
   ------------------------------------------------------------------------

   temp. (K)  partition function   enthalpy   heat capacity  entropy
                                   cal/mol     cal/K/mol   cal/K/mol   J/K/mol
 298.15  VIB   1.18                  240.748      2.416      1.133
         ROT  0.438E+04              888.752      2.981     19.644
         INT  0.516E+04             1129.501      5.396     20.778
         TR   0.302E+27             1481.254      4.968     37.388
         TOT                        2610.7545    10.3646    58.1658   243.3656

   temp. (K)  partition function   enthalpy   heat capacity  entropy
                                   cal/mol     cal/K/mol   cal/K/mol   J/K/mol
 120.00  VIB   1.01                    8.440      0.352      0.085
         ROT  0.112E+04              357.707      2.981     16.931
         INT  0.113E+04              366.147      3.333     17.016
         TR   0.771E+26              596.178      4.968     32.869
         TOT                         962.3250     8.3014    49.8846   208.7171

   temp. (K)  partition function   enthalpy   heat capacity  entropy
                                   cal/mol     cal/K/mol   cal/K/mol   J/K/mol
 100.00  VIB   1.00                    3.114      0.186      0.036
         ROT   851.                  298.089      2.981     16.388
         INT   853.                  301.203      3.167     16.424
         TR   0.587E+26              496.815      4.968     31.963
         TOT                         798.0180     8.1347    48.3876   202.4538

   temp. (K)  partition function   enthalpy   heat capacity  entropy
                                   cal/mol     cal/K/mol   cal/K/mol   J/K/mol
  80.00  VIB   1.00                    0.703      0.065      0.010
         ROT   609.                  238.471      2.981     15.723
         INT   609.                  239.174      3.046     15.733
         TR   0.420E+26              397.452      4.968     30.855
         TOT                         636.6264     8.0144    46.5880   194.9240

   temp. (K)  partition function   enthalpy   heat capacity  entropy
                                   cal/mol     cal/K/mol   cal/K/mol   J/K/mol
  60.00  VIB   1.00                    0.059      0.010      0.001
         ROT   396.                  178.853      2.981     14.865
         INT   396.                  178.913      2.991     14.866
         TR   0.273E+26              298.089      4.968     29.427
         TOT                         477.0015     7.9588    44.2929   185.3215

   temp. (K)  partition function   enthalpy   heat capacity  entropy
                                   cal/mol     cal/K/mol   cal/K/mol   J/K/mol
  40.00  VIB   1.00                    0.000      0.000     -0.000
         ROT   215.                  119.236      2.981     13.657
         INT   215.                  119.236      2.981     13.656
         TR   0.148E+26              198.726      4.968     27.413
         TOT                         317.9620     7.9492    41.0697   171.8355

   temp. (K)  partition function   enthalpy   heat capacity  entropy
                                   cal/mol     cal/K/mol   cal/K/mol   J/K/mol
  20.00  VIB   1.00                    0.000      0.000     -0.000
         ROT   76.1                   59.618      2.981     11.590
         INT   76.1                   59.618      2.981     11.590
         TR   0.525E+25               99.363      4.968     23.971
         TOT                         158.9808     7.9490    35.5613   148.7886

   temp. (K)  partition function   enthalpy   heat capacity  entropy
                                   cal/mol     cal/K/mol   cal/K/mol   J/K/mol
  10.00  VIB   1.00                    0.000      0.000     -0.000
         ROT   26.9                   29.809      2.981      9.524
         INT   26.9                   29.809      2.981      9.524
         TR   0.186E+25               49.681      4.968     20.529
         TOT                          79.4904     7.9490    30.0530   125.7417

       T/K    H(0)-H(T)+PV         H(T)/Eh          T*S/Eh         G(T)/Eh
   ------------------------------------------------------------------------
    298.15    0.416050E-02    0.320469E-01    0.276364E-01    0.441050E-02
    120.00    0.153356E-02    0.294200E-01    0.953954E-02    0.198805E-01
    100.00    0.127172E-02    0.291582E-01    0.771106E-02    0.214471E-01
     80.00    0.101453E-02    0.289010E-01    0.593941E-02    0.229615E-01
     60.00    0.760150E-03    0.286466E-01    0.423511E-02    0.244115E-01
     40.00    0.506705E-03    0.283931E-01    0.261795E-02    0.257752E-01
     20.00    0.253352E-03    0.281398E-01    0.113341E-02    0.270064E-01
     10.00    0.126676E-03    0.280131E-01    0.478925E-03    0.275342E-01 (used)
   ------------------------------------------------------------------------

         :::::::::::::::::::::::::::::::::::::::::::::::::::::
         ::                  THERMODYNAMIC                  ::
         :::::::::::::::::::::::::::::::::::::::::::::::::::::
         :: total free energy         -11.062090271251 Eh   ::
         ::.................................................::
         :: total energy              -11.089624452729 Eh   ::
         :: zero point energy           0.027886430286 Eh   ::
         :: G(RRHO) w/o ZPVE           -0.000352248808 Eh   ::
         :: G(RRHO) contrib.            0.027534181478 Eh   ::
         :::::::::::::::::::::::::::::::::::::::::::::::::::::
imag cut-off (cm-1) :    5.00
 found            2  significant imaginary frequencies
 writing imag mode distorted coords to xtbhess.xyz
 for further optimization.

optimized geometry written to: xtbopt.xyz


           -------------------------------------------------
          | TOTAL ENERGY              -11.089624452729 Eh   |
          | TOTAL ENTHALPY            -11.061611346427 Eh   |
          | TOTAL FREE ENERGY         -11.062090271251 Eh   |
          | GRADIENT NORM               0.000494004502 Eh/α |
          | HOMO-LUMO GAP               7.573677177946 eV   |
           -------------------------------------------------

------------------------------------------------------------------------
 * finished run on 2020/05/12 at 11:43:52.652     
------------------------------------------------------------------------
 total:
 * wall-time:     0 d,  0 h,  0 min,  0.078 sec
 *  cpu-time:     0 d,  0 h,  0 min,  0.077 sec
 * ratio c/w:     0.999 speedup
 SCF:
 * wall-time:     0 d,  0 h,  0 min,  0.002 sec
 *  cpu-time:     0 d,  0 h,  0 min,  0.002 sec
 * ratio c/w:     1.000 speedup
 ANC optimizer:
 * wall-time:     0 d,  0 h,  0 min,  0.012 sec
 *  cpu-time:     0 d,  0 h,  0 min,  0.012 sec
 * ratio c/w:     0.999 speedup
 numerical hessian:
 * wall-time:     0 d,  0 h,  0 min,  0.047 sec
 *  cpu-time:     0 d,  0 h,  0 min,  0.047 sec
 * ratio c/w:     0.999 speedup

