 Entering Gaussian System
 *********************************************
 Gaussian 98:
 frequency output generated by the xtb code
 *********************************************
                         Standard orientation:
 --------------------------------------------------------------------
  Center     Atomic     Atomic              Coordinates (Angstroms)
  Number     Number      Type              X           Y           Z
 --------------------------------------------------------------------
    1          6             0        0.069299    0.058424   -0.282450
    2          8             0        1.034214   -0.371440    0.584133
    3          8             0       -1.215378    0.218712    0.154267
    4          1             0        1.872928   -0.429491    0.119233
    5          1             0       -1.761063    0.523795   -0.575182
 --------------------------------------------------------------------
     1 basis functions        1 primitive gaussians
     1 alpha electrons        1 beta electrons

 Harmonic frequencies (cm**-1), IR intensities (KM/Mole),
 Raman scattering activities (A**4/amu), Raman depolarization ratios,
 reduced masses (AMU), force constants (mDyne/A) and normal coordinates:
                      1                      2                      3
                        a                      a                      a 
 Frequencies --  -434.8144              -310.9158               412.9388
 Red. masses --     3.1245                 2.3725                13.1780
 Frc consts  --     0.0000                 0.0000                 0.0000
 IR Inten    --     0.0014                 0.6210                 0.0344
 Raman Activ --     0.0000                 0.0000                 0.0000
 Depolar     --     0.0000                 0.0000                 0.0000
 Atom AN      X      Y      Z        X      Y      Z        X      Y      Z
   1   6    -0.00  -0.00  -0.00    -0.07  -0.33  -0.09     0.13   0.11  -0.52
   2   8     0.05   0.25   0.07    -0.00  -0.01  -0.00    -0.53   0.09   0.07
   3   8    -0.05  -0.25  -0.07    -0.00  -0.01  -0.00     0.45  -0.16   0.26
   4   1    -0.13  -0.62  -0.16     0.13   0.63   0.16    -0.03  -0.05   0.23
   5   1     0.13   0.62   0.16     0.13   0.63   0.16    -0.08  -0.04   0.22
                      4                      5                      6
                        a                      a                      a 
 Frequencies --  1021.5145              1043.4495              1264.7770
 Red. masses --     5.9364                 3.6627                10.7318
 Frc consts  --     0.0000                 0.0000                 0.0000
 IR Inten    --     0.1285                 1.0404                 0.7013
 Raman Activ --     0.0000                 0.0000                 0.0000
 Depolar     --     0.0000                 0.0000                 0.0000
 Atom AN      X      Y      Z        X      Y      Z        X      Y      Z
   1   6    -0.07  -0.06   0.28    -0.05   0.01  -0.01     0.14   0.12  -0.57
   2   8    -0.34   0.10  -0.09     0.06  -0.08   0.28     0.20  -0.14   0.37
   3   8     0.35  -0.09   0.04     0.19   0.02  -0.23    -0.35   0.01   0.26
   4   1    -0.30   0.18  -0.45    -0.29   0.20  -0.54    -0.15   0.11  -0.31
   5   1     0.49  -0.03  -0.30    -0.51   0.01   0.38     0.28  -0.00  -0.22
                      7                      8                      9
                        a                      a                      a 
 Frequencies --  1360.7145              3566.6056              3570.7281
 Red. masses --    12.4288                 1.8708                 1.8771
 Frc consts  --     0.0000                 0.0000                 0.0000
 IR Inten    --     2.1023                 0.3395                 0.2438
 Raman Activ --     0.0000                 0.0000                 0.0000
 Depolar     --     0.0000                 0.0000                 0.0000
 Atom AN      X      Y      Z        X      Y      Z        X      Y      Z
   1   6     0.79  -0.21   0.15     0.01  -0.00   0.00    -0.00  -0.00   0.00
   2   8    -0.28   0.11  -0.20     0.13  -0.01  -0.07    -0.17   0.01   0.09
   3   8    -0.35   0.05   0.08     0.11  -0.06   0.14     0.09  -0.05   0.11
   4   1    -0.10   0.05  -0.12    -0.52   0.04   0.27     0.68  -0.05  -0.36
   5   1    -0.15   0.01   0.07    -0.45   0.25  -0.58    -0.34   0.19  -0.44
