$hessian                                                                        
        0.3317588732   0.1905185601   0.0220759276  -0.3301550377  -0.1387677064
       -0.0158754700  -0.0368686627  -0.0238335576  -0.0028300228   0.0355159363
       -0.0304934058  -0.0036952713  -0.0002511092   0.0025761097   0.0003248365
        0.1905185601   0.3897434387   0.0452369270  -0.3178231579  -0.0876586869
       -0.0071342429   0.1408230629  -0.0045515769  -0.0026104326   0.0816249686
       -0.3135964902  -0.0379355200  -0.0951434337   0.0160633153   0.0024432685
        0.0220759276   0.0452369270   0.0114117550  -0.0372355684  -0.0076838566
       -0.0218027060   0.0168312847  -0.0020977175   0.0133556923   0.0096675092
       -0.0376551559  -0.0006839988  -0.0113391532   0.0021998029  -0.0022807425
       -0.3301550377  -0.3178231579  -0.0372355684   0.8924023531   0.1111108085
        0.0116194425  -0.1741035168  -0.0554940884  -0.0063123238  -0.1636538323
        0.2193319032   0.0263697848  -0.2244899662   0.0428745346   0.0055586648
       -0.1387677064  -0.0876586869  -0.0076838566   0.1111108085   0.1972661866
        0.0145786213  -0.1427516370  -0.0240280136   0.0032967792   0.0813032278
       -0.0752917725  -0.0075748540   0.0891053072  -0.0102877136  -0.0026166899
       -0.0158754700  -0.0071342429  -0.0218027060   0.0116194425   0.0145786213
        0.0743484565  -0.0167026976   0.0029641159  -0.0485805982   0.0098721754
       -0.0079655614  -0.0136764145   0.0110865498  -0.0024429329   0.0097112621
       -0.0368686627   0.1408230629   0.0168312847  -0.1741035168  -0.1427516370
       -0.0167026976   0.9125883745  -0.0576995607  -0.0086231674  -0.1580543722
       -0.0431493938  -0.0048478411  -0.5435618229   0.1027775286   0.0133424215
       -0.0238335576  -0.0045515769  -0.0020977175  -0.0554940884  -0.0240280136
        0.0029641159  -0.0576995607   0.0791632033   0.0040090261   0.0287877452
       -0.0085433336  -0.0015680156   0.1082394615  -0.0420402792  -0.0033074089
       -0.0028300228  -0.0026104326   0.0133556923  -0.0063123238   0.0032967792
       -0.0485805982  -0.0086231674   0.0040090261   0.0478676163   0.0037965799
       -0.0013751187   0.0041604844   0.0139689341  -0.0033202541  -0.0168031949
        0.0355159363   0.0816249686   0.0096675092  -0.1636538323   0.0813032278
        0.0098721754  -0.1580543722   0.0287877452   0.0037965799   0.2023568471
       -0.1731709169  -0.0209348701   0.0838354210  -0.0185450246  -0.0024013944
       -0.0304934058  -0.3135964902  -0.0376551559   0.2193319032  -0.0752917725
       -0.0079655614  -0.0431493938  -0.0085433336  -0.0013751187  -0.1731709169
        0.3970874594   0.0471411482   0.0274818133   0.0003441369  -0.0001453123
       -0.0036952713  -0.0379355200  -0.0006839988   0.0263697848  -0.0075748540
       -0.0136764145  -0.0048478411  -0.0015680156   0.0041604844  -0.0209348701
        0.0471411482   0.0091252931   0.0031081977  -0.0000627586   0.0010746358
       -0.0002511092  -0.0951434337  -0.0113391532  -0.2244899662   0.0891053072
        0.0110865498  -0.5435618229   0.1082394615   0.0139689341   0.0838354210
        0.0274818133   0.0031081977   0.6844674772  -0.1296831483  -0.0168245284
        0.0025761097   0.0160633153   0.0021998029   0.0428745346  -0.0102877136
       -0.0024429329   0.1027775286  -0.0420402792  -0.0033202541  -0.0185450246
        0.0003441369  -0.0000627586  -0.1296831483   0.0359205407   0.0036261427
        0.0003248365   0.0024432685  -0.0022807425   0.0055586648  -0.0026166899
        0.0097112621   0.0133424215  -0.0033074089  -0.0168031949  -0.0024013944
       -0.0001453123   0.0010746358  -0.0168245284   0.0036261427   0.0082980395
