[Molden Format]
[Title]
[Atoms] AU
C      1     6 -0.87607957139017E+00  0.35937282972721E+00  0.12403989684738E+00
C      2     6  0.17576596913727E+01  0.42662048268681E+00  0.34974826375981E-01
O      3     8 -0.18857640493521E+01 -0.16869391207611E+01 -0.34183823767504E+00
H      4     1 -0.19495988073487E+01  0.20617047000337E+01  0.59056859781805E+00
H      5     1  0.29537846264509E+01 -0.11607588916933E+01 -0.40774319364701E+00
[GTO]
           1 0
 s           4   1.0000000000000000     
   51.049363095579913      -0.16312063210127389     
   8.7911227406887544      -0.19911024581000730     
  0.70640422258929825       0.31882047753655751     
  0.26922813413411617       0.12706504184240380     
 p           4   1.0000000000000000     
   5.8263656140800002       0.73716451545209605     
   1.5106896018720002       0.68216371614850257     
  0.53256483288000001       0.35783053929253711     
  0.21202323690600003        5.3983030275847881E-002

           2 0
 s           4   1.0000000000000000     
   51.049363095579913      -0.16312063210127389     
   8.7911227406887544      -0.19911024581000730     
  0.70640422258929825       0.31882047753655751     
  0.26922813413411617       0.12706504184240380     
 p           4   1.0000000000000000     
   5.8263656140800002       0.73716451545209605     
   1.5106896018720002       0.68216371614850257     
  0.53256483288000001       0.35783053929253711     
  0.21202323690600003        5.3983030275847881E-002

           3 0
 s           4   1.0000000000000000     
   69.137961906196551      -0.20478756370077797     
   11.906129132707308      -0.24997023136827334     
  0.95670827744340703       0.40025880240639616     
  0.36462520496073686       0.15952206667693555     
 p           4   1.0000000000000000     
   8.2124193257781641        1.1321556799186829     
   2.1293576997098116        1.0476840782254817     
  0.75066448202360914       0.54956508217158984     
  0.29885246543283073        8.2908486592766617E-002

           4 0
 s           3   1.0000000000000000     
   3.3702276975336001       0.27359110588908298     
  0.61389118221497996       0.26460540653860526     
  0.16614291148415999        8.2465947534082318E-002

           5 0
 s           3   1.0000000000000000     
   3.3702276975336001       0.27359110588908298     
  0.61389118221497996       0.26460540653860526     
  0.16614291148415999        8.2465947534082318E-002

[MO]
Sym=     1a
Ene=  -0.73464727721931855     
Spin= Alpha
Occup=     2.00000000
           1 -0.36044726601485311     
           2   6.8992256082317516E-002
           3  0.19982768511422797     
           4   4.6680867734167027E-002
           5  -8.8261502432960645E-002
           6   7.0636015643095351E-002
           7   2.4390280004190495E-002
           8   3.2012044939270768E-003
           9 -0.63464764583416211     
          10 -0.10604907151344002     
          11 -0.17769402405287352     
          12  -3.9702163012928858E-002
          13  -3.3412678055005189E-002
          14  -1.1006478854726855E-002
Sym=     2a
Ene=  -0.65962332250727962     
Spin= Alpha
Occup=     2.00000000
           1  0.34182955984936497     
           2  0.26990263546567739     
           3  0.11410732432027762     
           4   1.7437445958889117E-002
           5  0.45296059765467678     
           6 -0.15295602257317717     
           7   6.8516831544925189E-004
           8   6.2966739076786345E-003
           9 -0.42605280931456202     
          10  0.17544353606680954     
          11  0.12400711758653367     
          12   2.3676840015161911E-002
          13  0.10069213189267227     
          14  0.11090920679040131     
Sym=     3a
Ene=  -0.61015474148313587     
Spin= Alpha
Occup=     2.00000000
           1  0.27832818887920163     
           2 -0.30492195974961972     
           3  0.17809877658913770     
           4   5.6547078119401233E-002
           5 -0.30942771880687381     
           6  -6.8640005169312249E-002
           7   9.9048861874454081E-002
           8   2.7385100989390634E-002
           9 -0.29843389592620007     
          10 -0.13126472746801121     
          11  0.38887581156357309     
          12  0.10170506243610472     
          13  0.26536553280213548     
          14 -0.18264474552276436     
Sym=     4a
Ene=  -0.55693150136957315     
Spin= Alpha
Occup=     2.00000000
           1  -3.8839623946846515E-002
           2   1.3443636414863389E-002
           3 -0.38035009963469019     
           4 -0.10722438744585580     
           5 -0.24818389266242891     
           6  -4.4460055307082573E-002
           7 -0.15282310816159536     
           8  -4.0876714185306501E-002
           9 -0.39195637328328636     
          10  0.47464109499539042     
          11  0.37784687120895194     
          12   5.8737466244882755E-002
          13 -0.26412311191987120     
          14  -6.3222828712058782E-002
Sym=     5a
Ene=  -0.55626720249938222     
Spin= Alpha
Occup=     2.00000000
           1   1.0496870820283744E-003
           2  -2.1596143244655371E-002
           3  0.13817167952482312     
           4 -0.52080780964941875     
           5   5.6103647529504750E-003
           6  -7.0573375468274725E-003
           7   5.3924026274064576E-002
           8 -0.20300805248391393     
           9   8.6081823013572957E-003
          10  -3.7508453353070029E-002
          11  0.15549447220124138     
          12 -0.66221752987360638     
          13   5.8743343472618115E-003
          14   1.6054015259908598E-003
Sym=     6a
Ene=  -0.54084506192153892     
Spin= Alpha
Occup=     2.00000000
           1  -8.2133342730139544E-002
           2 -0.29205353455974314     
           3  -6.1687773461365308E-002
           4  -3.2206518494729383E-003
           5  0.23573377884939473     
           6  0.41509980594413998     
           7 -0.18848061624785706     
           8  -6.3406315288829701E-002
           9 -0.13006908160252045     
          10 -0.21917642053645986     
          11  0.32896179368636108     
          12   9.0707216200061794E-002
          13   2.5346595609345945E-002
          14  0.41294265870541824     
Sym=     7a
Ene=  -0.44181347703071866     
Spin= Alpha
Occup=     1.99999997
           1  -5.1509519060799064E-002
           2  0.17055895050633116     
           3 -0.16395364649769018     
           4  -4.7499492279945148E-002
           5  0.27826593438547992     
           6 -0.13599575673777226     
           7  0.30481458075539264     
           8   8.1189349295798602E-002
           9  -3.7484136679952435E-004
          10 -0.61358561897181896     
          11  0.38859101823993036     
          12  0.12111730606095177     
          13 -0.40445669888140812     
          14 -0.20076357646381116     
Sym=     8a
Ene=  -0.40903423947423678     
Spin= Alpha
Occup=     1.00000003
           1   2.2006790044671991E-004
           2  -1.0340127178818182E-002
           3   6.4841781343931634E-002
           4 -0.26129796950139328     
           5  -5.7818599507320173E-004
           6  -3.1062559946494553E-002
           7  0.18716205172485462     
           8 -0.75773299783737347     
           9   2.1952143457358076E-005
          10   2.1501494014730380E-002
          11 -0.13507479191935612     
          12  0.54553057365690150     
          13  -1.6511827036068210E-004
          14   2.2736283302102081E-004
Sym=     9a
Ene=  -0.39050292539981502     
Spin= Alpha
Occup=     1.00000000
           1   7.6590504933813697E-002
           2  0.14855588783622836     
           3   3.9136884904432151E-002
           4   4.0574445053429969E-003
           5 -0.30839262145510349     
           6 -0.43579922546114885     
           7 -0.69528517252207933     
           8 -0.15384379308141047     
           9  -2.8787014918015323E-002
          10 -0.44907851293068657     
          11  -2.1311905033672373E-002
          12   1.2213475352449094E-002
          13  -2.1403560345425503E-002
          14  0.13872083945748431     
Sym=    10a
Ene=  -0.23814156286178423     
Spin= Alpha
Occup=     0.00000000
           1   4.5937437139471660E-004
           2  -3.3396086926747733E-002
           3  0.20426528206269792     
           4 -0.82339756880763260     
           5   1.0562557852379057E-004
           6   2.4360861175268325E-002
           7 -0.14908742037307715     
           8  0.60070956440282397     
           9   4.0164417445610086E-006
          10   2.0229055764187508E-002
          11 -0.12381166795404835     
          12  0.49921932233364924     
          13  -2.4959813492109878E-004
          14  -8.3949422664104364E-005
Sym=    11a
Ene=    8.2340771295408538E-002
Spin= Alpha
Occup=     0.00000000
           1 -0.73199790454901759     
           2  -7.5712448596048833E-003
           3 -0.42375700943286004     
           4 -0.10522517839586878     
           5  0.65762817658596873     
           6  -4.4197272973825107E-002
           7 -0.38617420701423377     
           8  -9.4184400189384954E-002
           9  -2.2444225725657591E-002
          10  -1.2344205071170275E-002
          11   8.5710630572983171E-002
          12   2.1898839306304901E-002
          13  0.80199505612633581     
          14 -0.72015692595818970     
Sym=    12a
Ene=   0.21772682590438963     
Spin= Alpha
Occup=     0.00000000
           1 -0.69264632004648075     
           2  0.46893924083338334     
           3 -0.21981365461186902     
           4  -7.3972391400565302E-002
           5 -0.54336383121546639     
           6 -0.36216372650786938     
           7  0.51444053569372983     
           8  0.14258323386457677     
           9  0.19622314000324714     
          10   1.4681508254751705E-002
          11  0.34976611755984438     
          12   8.6181583123918021E-002
          13  0.66620305209320574     
          14  0.81216546804676015     
Sym=    13a
Ene=   0.37411604913427504     
Spin= Alpha
Occup=     0.00000000
           1 -0.49833102859382949     
           2 -0.98930363074563477     
           3  0.25342231952884681     
           4  0.10267685191022423     
           5  0.47357030010090012     
           6 -0.98060203376707533     
           7  0.12192168362263067     
           8   6.9706747446933323E-002
           9   2.7915539074553297E-002
          10  0.24337064062573521     
          11  -2.2766750500725890E-002
          12  -1.5457378041915104E-002
          13 -0.37939598505932115     
          14  0.34666940259379425     
Sym=    14a
Ene=   0.50331442012941241     
Spin= Alpha
Occup=     0.00000000
           1  0.45287532900466604     
           2 -0.38199572426889705     
           3  -1.0420244730399544     
           4 -0.24279530231887073     
           5  -6.7912287596190501E-002
           6 -0.18314871162220869     
           7  0.34711149510758860     
           8   9.3467579136793794E-002
           9 -0.73324276833842073     
          10 -0.38021289436263350     
          11 -0.72892549682463781     
          12 -0.16507239299396753     
          13  0.29273646856544339     
          14  0.28225161451661318     
