5
 energy: -9.068618740722 gnorm: 0.218425244926 xtb: 6.2.2 (9d81278992624c895f80dd42a50cac0aa55982e2)
C        -0.50895400000000    0.13561100000000    0.42809900000000
C         0.99131000000000   -0.08258400000000    0.46100100000000
O        -1.13067500000000   -0.95510200000000   -0.17886700000000
H        -0.74350800000000    1.06103800000000   -0.13803200000000
H         1.39182800000000   -0.15896300000000   -0.57220000000000
5
 energy: -9.121372714002 gnorm: 0.126400148003 xtb: 6.2.2 (9d81278992624c895f80dd42a50cac0aa55982e2)
C        -0.46471219990071    0.08409683527697    0.29097666061813
C         0.97169183616985   -0.00687673940001    0.43183655419864
O        -1.13084430915701   -0.92507642382584   -0.14989129502562
H        -0.82492677063155    1.09827691235505   -0.03937785140250
H         1.44879244351942   -0.25042058440617   -0.53354306838866
5
 energy: -9.133413434708 gnorm: 0.166416644676 xtb: 6.2.2 (9d81278992624c895f80dd42a50cac0aa55982e2)
C        -0.45694950566698    0.04236314487325    0.17853229586702
C         0.89821191104040    0.01682854046264    0.36408036938726
O        -1.09704628161445   -0.87158636627471   -0.09001358662926
H        -0.86517732168736    1.10494691711713    0.03656534236816
H         1.52096219792839   -0.29255223617831   -0.48916342099317
5
 energy: -9.141685576954 gnorm: 0.072633516341 xtb: 6.2.2 (9d81278992624c895f80dd42a50cac0aa55982e2)
C        -0.44135044443942    0.04360539956582    0.10394442255341
C         0.93024072281008    0.02353630577818    0.33526092282781
O        -1.21074099801918   -0.91789060269693   -0.05948388958325
H        -0.91547286992641    1.14033111615058    0.08066492084273
H         1.63732458957494   -0.28958221879765   -0.46038537664071
5
 energy: -9.146326542213 gnorm: 0.034231347468 xtb: 6.2.2 (9d81278992624c895f80dd42a50cac0aa55982e2)
C        -0.46513446439417    0.05109213245964    0.15221204152414
C         0.92346464808452    0.04891541027765    0.31273856421576
O        -1.19651935513178   -0.90173033131590   -0.08228760376752
H        -0.88344509002774    1.10034322497534    0.07415059527500
H         1.62163526146918   -0.29862043639673   -0.45681259724738
5
 energy: -9.149276321723 gnorm: 0.041102732116 xtb: 6.2.2 (9d81278992624c895f80dd42a50cac0aa55982e2)
C        -0.47838855456767    0.06499593157758    0.14212783337116
C         0.91099375529021    0.07807319310458    0.25940922586802
O        -1.17870227698230   -0.89166075327950   -0.08761090510807
H        -0.91566916914049    1.09793060955517    0.11493148226989
H         1.66176724540025   -0.34933898095783   -0.42885663640101
5
 energy: -9.151858270755 gnorm: 0.038987765062 xtb: 6.2.2 (9d81278992624c895f80dd42a50cac0aa55982e2)
C        -0.48157540169029    0.09092783033198    0.10211807696524
C         0.89439409997853    0.08488486832817    0.17411148459508
O        -1.16283214478147   -0.89228236542957   -0.07544048530763
H        -0.92180386638417    1.08475925335060    0.16001713064729
H         1.67181831287740   -0.36828958658119   -0.36080520689997
5
 energy: -9.153233418645 gnorm: 0.058598680046 xtb: 6.2.2 (9d81278992624c895f80dd42a50cac0aa55982e2)
C        -0.49366001500363    0.13127905544646    0.07348403468491
C         0.89846616221422    0.19751534641702    0.06792660028714
O        -1.10993698158048   -0.90177206010084   -0.12498960308984
H        -1.00165527745826    1.10579007174020    0.27413889413301
H         1.70678711182815   -0.53281241350284   -0.29055892601521
5
 energy: -9.155623151134 gnorm: 0.014679231734 xtb: 6.2.2 (9d81278992624c895f80dd42a50cac0aa55982e2)
C        -0.48392531511945    0.12930196991159    0.09006638899193
C         0.91056791121968    0.15161637593814    0.11303711514361
O        -1.11029450575951   -0.90090021854619   -0.11908793172867
H        -0.98772916549057    1.10526356494138    0.23076361579565
H         1.67138207514985   -0.48528169224493   -0.31477818820252
5
 energy: -9.156608845118 gnorm: 0.010760794312 xtb: 6.2.2 (9d81278992624c895f80dd42a50cac0aa55982e2)
C        -0.47934557651597    0.15153194605239    0.09266737927960
C         0.91969151528982    0.18029852155958    0.09619639637019
O        -1.06636814325391   -0.90329624830719   -0.14827011103553
H        -1.00528497156810    1.10837577106067    0.25499871828270
H         1.63130817604817   -0.53690999036545   -0.29559138289695
5
 energy: -9.157150197886 gnorm: 0.027331219384 xtb: 6.2.2 (9d81278992624c895f80dd42a50cac0aa55982e2)
C        -0.46210649729515    0.19879316822701    0.08011566423264
C         0.93267984833396    0.22962211999772    0.04227080386088
O        -0.98317369638499   -0.89650069829820   -0.19539545888620
H        -1.05011248036148    1.10281395979917    0.31138601840448
H         1.56271382570767   -0.63472854972571   -0.23837602761179
5
 energy: -9.157702383400 gnorm: 0.007015456182 xtb: 6.2.2 (9d81278992624c895f80dd42a50cac0aa55982e2)
C        -0.46020255900336    0.18293330738355    0.07582678133900
C         0.92871529827125    0.21340969744705    0.05025397130685
O        -1.01403975747240   -0.89225260859100   -0.17703073188744
H        -1.02838206170541    1.09090990169787    0.29430552508413
H         1.57391007990992   -0.59500029793749   -0.24335454584252
5
 energy: -9.157812386249 gnorm: 0.005182788482 xtb: 6.2.2 (9d81278992624c895f80dd42a50cac0aa55982e2)
C        -0.46102289728671    0.18907115403671    0.07147328589532
C         0.93025832983712    0.22031499238374    0.03843542853150
O        -1.00222573198264   -0.89212728983750   -0.18155042707861
H        -1.03297594470829    1.09109039934887    0.30413232624598
H         1.56596724414051   -0.60834925593183   -0.23248961359420
5
 energy: -9.157850586673 gnorm: 0.002292025164 xtb: 6.2.2 (9d81278992624c895f80dd42a50cac0aa55982e2)
C        -0.46162030376053    0.19316115551916    0.06579392006536
C         0.93203798536483    0.22612676578655    0.02614194351871
O        -0.99288178122938   -0.89164026058379   -0.18420736462544
H        -1.03556105098009    1.09076375948489    0.31285557203481
H         1.55802615060518   -0.61841142020682   -0.22058307099344
5
 energy: -9.157855894673 gnorm: 0.001457424861 xtb: 6.2.2 (9d81278992624c895f80dd42a50cac0aa55982e2)
C        -0.46258787652967    0.19220004352559    0.06568826244212
C         0.93150062861016    0.22557297264772    0.02463539287631
O        -0.99443448637650   -0.89196335466085   -0.18295772796199
H        -1.03383845912380    1.09069445232127    0.31240501813995
H         1.55936119341981   -0.61650411383374   -0.21976994549639
5
 energy: -9.157859144513 gnorm: 0.001641528161 xtb: 6.2.2 (9d81278992624c895f80dd42a50cac0aa55982e2)
C        -0.46321271812120    0.19026218076940    0.06481208543504
C         0.93069646348578    0.22498438572304    0.02098722772451
O        -0.99737963648103   -0.89228582393081   -0.18077601774711
H        -1.03254121380611    1.09118651444890    0.31225249023933
H         1.56243810492257   -0.61414725701053   -0.21727478565177
5
 energy: -9.157861060370 gnorm: 0.000903586151 xtb: 6.2.2 (9d81278992624c895f80dd42a50cac0aa55982e2)
C        -0.46360261198260    0.19016938738041    0.06563780637467
C         0.93011229280457    0.22576269583974    0.01851152352538
O        -0.99789814707417   -0.89269473098386   -0.18089806334537
H        -1.03169015833700    1.09100129675882    0.31251377531623
H         1.56307962458920   -0.61423864899511   -0.21576404187092
