$hessian                                                                        
        0.5489686553   0.0076363825  -0.0150776705  -0.2900741768   0.0372080252
        0.0188659434  -0.1319551796  -0.1323912645  -0.0292835262  -0.1091760388
        0.0969328469   0.0267316439  -0.0177632601  -0.0093859901  -0.0012363906
        0.0076363825   0.6699345052   0.1349659256   0.0683830525  -0.0424547803
       -0.0020071724  -0.1948182382  -0.4506300345  -0.0929874347   0.0934770877
       -0.1749863439  -0.0365662248   0.0253217154  -0.0018633465  -0.0034050936
       -0.0150776705   0.1349659256   0.1599200342   0.0266820799  -0.0006147632
       -0.0475076295  -0.0448475738  -0.0956932836  -0.0657357217   0.0259016927
       -0.0366182326  -0.0538837330   0.0073414717  -0.0020396462   0.0072070499
       -0.2900741768   0.0683830525   0.0266820799   0.5144450110  -0.1252272156
       -0.0505921372  -0.0741453008  -0.0969616330  -0.0202461289  -0.0244425227
        0.0043282439   0.0024673101  -0.1257830108   0.1494775522   0.0416888761
        0.0372080252  -0.0424547803  -0.0006147632  -0.1252272156   0.2672076979
        0.0639990061  -0.0547578270  -0.0240800885  -0.0084398554   0.0216624877
        0.0006366929  -0.0032048513   0.1211145297  -0.2013095219  -0.0517395362
        0.0188659434  -0.0020071724  -0.0475076295  -0.0505921372   0.0639990061
        0.0481651268  -0.0097048777  -0.0066214429   0.0177226603   0.0067801351
       -0.0024766309   0.0091371510   0.0346509364  -0.0528937598  -0.0275173086
       -0.1319551796  -0.1948182382  -0.0448475738  -0.0741453008  -0.0547578270
       -0.0097048777   0.1839735665   0.2389825636   0.0524620920   0.0140345321
        0.0050822680   0.0012923527   0.0080923818   0.0055112336   0.0007980068
       -0.1323912645  -0.4506300345  -0.0956932836  -0.0969616330  -0.0240800885
       -0.0066214429   0.2389825636   0.5201868986   0.1153647182  -0.0116141101
       -0.0498582634  -0.0152397524   0.0019844439   0.0043814877   0.0021897608
       -0.0292835262  -0.0929874347  -0.0657357217  -0.0202461289  -0.0084398554
        0.0177226603   0.0524620920   0.1153647182   0.0423680041  -0.0028958420
       -0.0160092385   0.0100925423  -0.0000365949   0.0020718105  -0.0044474850
       -0.1091760388   0.0934770877   0.0259016927  -0.0244425227   0.0216624877
        0.0067801351   0.0140345321  -0.0116141101  -0.0028958420   0.1240117281
       -0.1050673721  -0.0304164434  -0.0044276988   0.0015419067   0.0006304577
        0.0969328469  -0.1749863439  -0.0366182326   0.0043282439   0.0006366929
       -0.0024766309   0.0050822680  -0.0498582634  -0.0160092385  -0.1050673721
        0.2238724722   0.0554258748  -0.0012759867   0.0003354422  -0.0003217728
        0.0267316439  -0.0365662248  -0.0538837330   0.0024673101  -0.0032048513
        0.0091371510   0.0012923527  -0.0152397524   0.0100925423  -0.0304164434
        0.0554258748   0.0329501090  -0.0000748633  -0.0004150463   0.0017039307
       -0.0177632601   0.0253217154   0.0073414717  -0.1257830108   0.1211145297
        0.0346509364   0.0080923818   0.0019844439  -0.0000365949  -0.0044276988
       -0.0012759867  -0.0000748633   0.1398815878  -0.1471447024  -0.0418809500
       -0.0093859901  -0.0018633465  -0.0020396462   0.1494775522  -0.2013095219
       -0.0528937598   0.0055112336   0.0043814877   0.0020718105   0.0015419067
        0.0003354422  -0.0004150463  -0.1471447024   0.1984559385   0.0532766418
       -0.0012363906  -0.0034050936   0.0072070499   0.0416888761  -0.0517395362
       -0.0275173086   0.0007980068   0.0021897608  -0.0044474850   0.0006304577
       -0.0003217728   0.0017039307  -0.0418809500   0.0532766418   0.0230538130
