 Entering Gaussian System
 *********************************************
 Gaussian 98:
 frequency output generated by the xtb code
 *********************************************
                         Standard orientation:
 --------------------------------------------------------------------
  Center     Atomic     Atomic              Coordinates (Angstroms)
  Number     Number      Type              X           Y           Z
 --------------------------------------------------------------------
    1          6             0        1.872462    0.032641   -0.030529
    2          6             0        0.668206    0.010088   -0.017859
    3          6             0       -0.697853   -0.010550    0.013075
    4          7             0       -1.842816   -0.032179    0.035315
 --------------------------------------------------------------------
     1 basis functions        1 primitive gaussians
     1 alpha electrons        1 beta electrons

 Harmonic frequencies (cm**-1), IR intensities (KM/Mole),
 Raman scattering activities (A**4/amu), Raman depolarization ratios,
 reduced masses (AMU), force constants (mDyne/A) and normal coordinates:
                      1                      2                      3
                        a                      a                      a 
 Frequencies --   177.2367               362.5105               389.8309
 Red. masses --    12.2714                12.4806                12.3132
 Frc consts  --     0.0000                 0.0000                 0.0000
 IR Inten    --     0.2611                 0.3389                 0.2470
 Raman Activ --     0.0000                 0.0000                 0.0000
 Depolar     --     0.0000                 0.0000                 0.0000
 Atom AN      X      Y      Z        X      Y      Z        X      Y      Z
   1   6    -0.00  -0.06  -0.55     0.00  -0.19   0.00    -0.00   0.03   0.03
   2   6     0.01   0.08   0.71     0.00  -0.01   0.23    -0.00  -0.29  -0.32
   3   6     0.00   0.03   0.23    -0.02   0.65  -0.50     0.01   0.54   0.61
   4   7    -0.01  -0.04  -0.36     0.01  -0.41   0.25     0.00  -0.26  -0.29
                      4                      5                      6
                        a                      a                      a 
 Frequencies --   914.9950              2219.8344              2362.1591
 Red. masses --    12.6603                12.0725                12.7367
 Frc consts  --     0.0000                 0.0000                 0.0000
 IR Inten    --     0.0120                 0.4016                 1.0630
 Raman Activ --     0.0000                 0.0000                 0.0000
 Depolar     --     0.0000                 0.0000                 0.0000
 Atom AN      X      Y      Z        X      Y      Z        X      Y      Z
   1   6     0.58   0.01  -0.01    -0.65  -0.01   0.01     0.07   0.00  -0.00
   2   6     0.43   0.00  -0.02     0.74   0.01  -0.01    -0.19  -0.00   0.00
   3   6    -0.39  -0.00   0.01     0.10   0.00  -0.00     0.77   0.01  -0.02
   4   7    -0.57  -0.01   0.01    -0.18  -0.00   0.00    -0.60  -0.01   0.01
