[Molden Format]
[Title]
[Atoms] AU
C      1     6  0.19708681656876E+01  0.62042066004865E-01  0.12418077940129E+01
N      2     7 -0.63441877814434E+00  0.29636849526011E-02 -0.78077364724012E-02
C      3     6  0.20001489888842E+01 -0.80593290357257E-01 -0.11929520401171E+01
H      4     1 -0.16769832538069E+01 -0.16028688510200E+01  0.73727931583266E-01
H      5     1 -0.16596151226272E+01  0.16184563904165E+01 -0.11477783873269E+00
[GTO]
           1 0
 s           4   1.0000000000000000     
   51.049363095579913      -0.16312063210127389     
   8.7911227406887544      -0.19911024581000730     
  0.70640422258929825       0.31882047753655751     
  0.26922813413411617       0.12706504184240380     
 p           4   1.0000000000000000     
   5.8263656140800002       0.73716451545209605     
   1.5106896018720002       0.68216371614850257     
  0.53256483288000001       0.35783053929253711     
  0.21202323690600003        5.3983030275847881E-002

           2 0
 s           4   1.0000000000000000     
   63.594024466941008      -0.19234388414721629     
   10.951417231523665      -0.23478107924953728     
  0.87999310257376984       0.37593753901700888     
  0.33538715296521110       0.14982889271862770     
 p           4   1.0000000000000000     
   7.2965040481495080       0.97658666315667420     
   1.8918745450712575       0.90372226730345739     
  0.66694432110824120       0.47404958461536373     
  0.26552202674130870        7.1516067715011844E-002

           3 0
 s           4   1.0000000000000000     
   51.049363095579913      -0.16312063210127389     
   8.7911227406887544      -0.19911024581000730     
  0.70640422258929825       0.31882047753655751     
  0.26922813413411617       0.12706504184240380     
 p           4   1.0000000000000000     
   5.8263656140800002       0.73716451545209605     
   1.5106896018720002       0.68216371614850257     
  0.53256483288000001       0.35783053929253711     
  0.21202323690600003        5.3983030275847881E-002

           4 0
 s           3   1.0000000000000000     
   3.3702276975336001       0.27359110588908298     
  0.61389118221497996       0.26460540653860526     
  0.16614291148415999        8.2465947534082318E-002

           5 0
 s           3   1.0000000000000000     
   3.3702276975336001       0.27359110588908298     
  0.61389118221497996       0.26460540653860526     
  0.16614291148415999        8.2465947534082318E-002

[MO]
Sym=     1a
Ene=  -0.67695846473890997     
Spin= Alpha
Occup=     2.00000000
           1 -0.31041503154279010     
           2  0.10387816602453895     
           3   6.3796847201494132E-003
           4  0.11859163903561752     
           5 -0.47008727370479469     
           6 -0.22523349710719656     
           7   1.0522494658579597E-003
           8  -2.7707510601579850E-003
           9 -0.31041617929204596     
          10  0.10670068282752372     
          11  -7.3634748873768674E-003
          12 -0.11600150396321232     
          13  -9.4542145226770513E-002
          14  -9.4542120696915574E-002
Sym=     2a
Ene=  -0.62766438042106398     
Spin= Alpha
Occup=     2.00000000
           1  0.22601064921888303     
           2   2.2415445161668317E-002
           3  -5.2660111227964997E-003
           4  -8.7924373409998910E-002
           5 -0.40853038107714978     
           6  0.40896075334888898     
           7  -1.9104659140363200E-003
           8   5.0313847621928382E-003
           9  0.22601040589980087     
          10   2.0294746862589013E-002
          11   5.0665201776660829E-003
          12   8.8450110505164325E-002
          13 -0.27837425443114289     
          14 -0.27837418921993995     
Sym=     3a
Ene=  -0.57875030699038055     
Spin= Alpha
Occup=     2.00000000
           1   1.7581667853332855E-008
           2  -7.4121642885982032E-004
           3 -0.13747795698284698     
           4   8.0449376872511885E-003
           5  -5.8133702768266196E-008
           6  -3.3812017669937284E-003
           7 -0.62712656968502700     
           8   3.6698242351602142E-002
           9   2.2177256176537217E-008
          10  -7.4122548894138790E-004
          11 -0.13747927969955098     
          12   8.0450302508314475E-003
          13  0.34530981683429951     
          14 -0.34530987132087443     
Sym=     4a
Ene=  -0.53333955500909846     
Spin= Alpha
Occup=     2.00000000
           1 -0.36301416285483901     
           2  0.14632614826562387     
           3  -1.1610481711405073E-002
           4 -0.18492651624780285     
           5   1.9103420861287830E-006
           6   8.0243294939272378E-003
           7  -3.9057363241152887E-002
           8 -0.66670168437900290     
           9  0.36300802351233941     
          10 -0.14184216141561573     
          11  -1.0264526165138871E-002
          12 -0.18847654044077952     
          13  -1.9370020174407780E-006
          14  -1.9347247024645475E-006
Sym=     5a
Ene=  -0.49852744874093152     
Spin= Alpha
Occup=     2.00000000
           1 -0.31660332211512421     
           2 -0.40084324323771869     
           3   8.3896354265843957E-003
           4  0.10643605975709068     
           5  0.18150927508864570     
           6  0.40561791903652311     
           7  -1.8944480377176215E-003
           8   4.9984433613081587E-003
           9 -0.31661052009772972     
          10 -0.39816369528517237     
          11  -4.6565457913437126E-003
          12 -0.11625978268050627     
          13 -0.13556858769328245     
          14 -0.13556861120619451     
Sym=     6a
Ene=  -0.40712609730866106     
Spin= Alpha
Occup=     2.00000000
           1  0.45589693298462514     
           2  0.24874906546994979     
           3   1.6961340826154251E-002
           4  0.31276617248447947     
           5  -6.4073296994721370E-008
           6   6.5953917068722378E-003
           7  -3.2125029178979005E-002
           8 -0.54836832847498740     
           9 -0.45589283253221380     
          10 -0.25619892308014430     
          11   1.9320081156795184E-002
          12  0.30655006668282925     
          13  -2.8709978842729048E-007
          14  -3.0755642346583782E-007
Sym=     7a
Ene=  -0.39067165478977556     
Spin= Alpha
Occup=     2.00000000
           1  -1.8294621139413180E-008
           2   3.3494804929779872E-003
           3  0.62123837205843457     
           4  -3.6353692599232282E-002
           5  -1.2376505171805390E-009
           6  -7.7893305877655349E-004
           7 -0.14447041450201437     
           8   8.4541552550060593E-003
           9   2.3992965624740999E-008
          10   3.3495116902977811E-003
          11  0.62123965172585138     
          12  -3.6353768061103381E-002
          13  0.20281794887234594     
          14 -0.20281795017136928     
Sym=     8a
Ene=  -0.34211246189254713     
Spin= Alpha
Occup=     1.00000000
           1  0.38396676604151614     
           2  -3.4918432320517813E-002
           3   3.5636430546555305E-002
           4  0.60576418881535532     
           5  -4.2025900693562018E-002
           6   1.9562872603187943E-002
           7  -9.1151281595453575E-005
           8   2.4476251147416173E-004
           9  0.38396856665801543     
          10  -2.0333919275117612E-002
          11  -3.5378445236581312E-002
          12 -0.60644624439659156     
          13   1.9766018437062594E-002
          14   1.9766018074804048E-002
Sym=     9a
Ene=  -0.19207423286655648     
Spin= Alpha
Occup=     0.00000000
           1   1.4848008121270944E-010
           2  -4.3436834631543466E-003
           3 -0.80563556518603319     
           4   4.7144253248860638E-002
           5   3.1157560959006620E-009
           6   2.9856663832078239E-009
           7   3.8655188921203426E-007
           8  -2.0406227239521264E-008
           9   2.3017421559760803E-009
          10   4.3436790923097324E-003
          11  0.80563418569326939     
          12  -4.7144174706391866E-002
          13   1.5750690480600158E-006
          14  -1.5772915976007596E-006
Sym=    10a
Ene=   -9.2329268788304913E-002
Spin= Alpha
Occup=     0.00000000
           1  0.16665776545872002     
           2 -0.46173017421135248     
           3  -4.8774493802704955E-003
           4 -0.12589144925546727     
           5  -1.0236023968467538     
           6 -0.26316856600012223     
           7   1.2269198200762312E-003
           8  -3.2806826049180150E-003
           9  0.16664856069934547     
          10 -0.46450934255882625     
          11   9.2055588955208423E-003
          12  0.11451317666813383     
          13  0.42562912353458060     
          14  0.42562913742158331     
Sym=    11a
Ene=   -7.0616409820300749E-002
Spin= Alpha
Occup=     0.00000000
           1  -6.7411075623996175E-002
           2  0.78199972034708731     
           3  -1.0993178110370469E-002
           4 -0.11580917184495759     
           5  -8.0810969467954544E-005
           6  -6.9471464700548184E-003
           7   3.3774774248895752E-002
           8  0.57652812954742583     
           9   6.7434076943584345E-002
          10 -0.77904422281835850     
          11  -3.6994164720546997E-003
          12 -0.13499640818193420     
          13   3.6765907558009679E-005
          14   3.6771903065707030E-005
Sym=    12a
Ene=   0.11275609768925481     
Spin= Alpha
Occup=     0.00000000
           1  0.23018109918768781     
           2 -0.34393648529374404     
           3  -3.2446973708049188E-003
           4  -8.7136811966455174E-002
           5  0.37995348679696489     
           6 -0.98734029318782801     
           7   4.6128620448573025E-003
           8  -1.2140621624511393E-002
           9  0.23018147908136513     
          10 -0.34594559348283332     
          11   6.4672623593041972E-003
          12   7.8643174989302317E-002
          13 -0.64624235406166819     
          14 -0.64624227026835857     
Sym=    13a
Ene=   0.18493782597386429     
Spin= Alpha
Occup=     0.00000000
           1  -1.4060559784628673E-008
           2   5.1963997377623881E-004
           3   9.6375735404506835E-002
           4  -5.6397153679141566E-003
           5  -1.7354316560116500E-008
           6  -5.5674236222041261E-003
           7  -1.0326192436717554     
           8   6.0426894574671694E-002
           9  -1.2452564711072639E-008
          10   5.1966208410364880E-004
          11   9.6378892412446612E-002
          12  -5.6399121751384085E-003
          13 -0.86270448563718627     
          14  0.86270454925915396     
Sym=    14a
Ene=   0.64583804124451605     
Spin= Alpha
Occup=     0.00000000
           1  0.84780073769318032     
           2  -3.9361782354332978E-002
           3  -5.7121126660075586E-002
           4 -0.97975439061109915     
           5   1.6019322090815709E-006
           6   1.6594532796633612E-003
           7  -8.0616574016103525E-003
           8 -0.13761059981125864     
           9 -0.84780314650210442     
          10   6.2915437054896994E-002
          11  -5.7598967296969943E-002
          12 -0.97849665929996532     
          13   9.7184097017498295E-007
          14   9.7439249430555234E-007
