5
 energy: -7.921418241069 gnorm: 0.128435057079 xtb: 6.2.2 (9d81278992624c895f80dd42a50cac0aa55982e2)
C         0.94306400000000    0.03834900000000    0.74219300000000
N        -0.32030200000000    0.00149500000000   -0.00395800000000
C         0.96065900000000   -0.04723400000000   -0.71876700000000
H        -0.79672100000000   -0.92667500000000    0.04470800000000
H        -0.78670000000000    0.93406500000000   -0.06417700000000
5
 energy: -7.945802254148 gnorm: 0.111908322395 xtb: 6.2.2 (9d81278992624c895f80dd42a50cac0aa55982e2)
C         0.98899145168803    0.03551926694810    0.69805109125852
N        -0.32638126013729    0.00152337318005   -0.00402326351710
C         1.00549835587204   -0.04482726381005   -0.67350632761276
H        -0.83884859876588   -0.88627787256946    0.04182856044066
H        -0.82925994865689    0.89406249625137   -0.06235106056931
5
 energy: -7.862415445312 gnorm: 0.794462480379 xtb: 6.2.2 (9d81278992624c895f80dd42a50cac0aa55982e2)
C         1.09876744490718    0.02624226139144    0.54960358240773
N        -0.36147195601391    0.00168620586675   -0.00445015043323
C         1.11166390858164   -0.03655699929054   -0.52240225370665
H        -0.92891373108116   -0.81882198663574    0.03679090112783
H        -0.92004566639375    0.82745051866809   -0.05954307939569
5
 energy: -7.955069209269 gnorm: 0.026986943222 xtb: 6.2.2 (9d81278992624c895f80dd42a50cac0aa55982e2)
C         1.06045774158923    0.03309778512820    0.66323442789892
N        -0.33227602741953    0.00155045131813   -0.00409104967035
C         1.07610029691018   -0.04306788761538   -0.63694138737574
H        -0.90667443196515   -0.83739169242742    0.03814593766494
H        -0.89760757911473    0.84581134359647   -0.06034892851776
5
 energy: -7.955529389714 gnorm: 0.014169216436 xtb: 6.2.2 (9d81278992624c895f80dd42a50cac0aa55982e2)
C         1.05020607268117    0.03298733925930    0.66040366612651
N        -0.33439337592893    0.00156034920943   -0.00411702340574
C         1.06578361721986   -0.04286154242035   -0.63436367471095
H        -0.89535444049592   -0.84170422627370    0.03853469698712
H        -0.88624187347618    0.85001808022532   -0.06045866499694
5
 energy: -7.955658009473 gnorm: 0.001552869287 xtb: 6.2.2 (9d81278992624c895f80dd42a50cac0aa55982e2)
C         1.04249386384398    0.03285801012829    0.65748320250269
N        -0.33568806969590    0.00156641290457   -0.00413266535515
C         1.05800129616962   -0.04265985681735   -0.63163300768751
H        -0.88699078638208   -0.84749238630471    0.03897381236818
H        -0.87781630393562    0.85572782008920   -0.06069234182821
5
 energy: -7.955659566996 gnorm: 0.000306332293 xtb: 6.2.2 (9d81278992624c895f80dd42a50cac0aa55982e2)
C         1.04293614997621    0.03283556438070    0.65714014373023
N        -0.33571998449373    0.00156656407012   -0.00413284574295
C         1.05843578840737   -0.04264149283047   -0.63127947169093
H        -0.88741709831246   -0.84820646132569    0.03901056675141
H        -0.87823485557740    0.85644582570534   -0.06073939304777
