 Entering Gaussian System
 *********************************************
 Gaussian 98:
 frequency output generated by the xtb code
 *********************************************
                         Standard orientation:
 --------------------------------------------------------------------
  Center     Atomic     Atomic              Coordinates (Angstroms)
  Number     Number      Type              X           Y           Z
 --------------------------------------------------------------------
    1          6             0        1.042939    0.032831    0.657136
    2          7             0       -0.335720    0.001568   -0.004132
    3          6             0        1.058433   -0.042648   -0.631283
    4          1             0       -0.887421   -0.848202    0.039015
    5          1             0       -0.878231    0.856450   -0.060738
 --------------------------------------------------------------------
     1 basis functions        1 primitive gaussians
     1 alpha electrons        1 beta electrons

 Harmonic frequencies (cm**-1), IR intensities (KM/Mole),
 Raman scattering activities (A**4/amu), Raman depolarization ratios,
 reduced masses (AMU), force constants (mDyne/A) and normal coordinates:
                      1                      2                      3
                        a                      a                      a 
 Frequencies --   402.9420               743.5560               833.1509
 Red. masses --    12.3410                 3.2553                 2.4171
 Frc consts  --     0.0000                 0.0000                 0.0000
 IR Inten    --     0.8642                 0.3967                 0.0006
 Raman Activ --     0.0000                 0.0000                 0.0000
 Depolar     --     0.0000                 0.0000                 0.0000
 Atom AN      X      Y      Z        X      Y      Z        X      Y      Z
   1   6     0.57   0.01   0.27     0.10  -0.00  -0.02    -0.00  -0.25   0.01
   2   7     0.01  -0.03  -0.45    -0.00   0.02   0.39    -0.00   0.00   0.00
   3   6    -0.58   0.02   0.25    -0.10  -0.00  -0.03     0.00   0.25  -0.01
   4   1     0.00  -0.00  -0.06     0.01  -0.04  -0.64    -0.01   0.04   0.66
   5   1     0.00  -0.00  -0.06     0.01  -0.04  -0.64     0.01  -0.04  -0.66
                      4                      5                      6
                        a                      a                      a 
 Frequencies --   937.5314               991.1735              1482.4362
 Red. masses --    12.7510                 3.4020                 1.7775
 Frc consts  --     0.0000                 0.0000                 0.0000
 IR Inten    --     0.9735                 0.0453                 0.2742
 Raman Activ --     0.0000                 0.0000                 0.0000
 Depolar     --     0.0000                 0.0000                 0.0000
 Atom AN      X      Y      Z        X      Y      Z        X      Y      Z
   1   6     0.44  -0.01  -0.10     0.00   0.13  -0.01    -0.05  -0.00  -0.06
   2   7    -0.75   0.00  -0.01    -0.00  -0.39   0.02    -0.22   0.00  -0.00
   3   6     0.44   0.00   0.11     0.00   0.13  -0.01    -0.05   0.00   0.06
   4   1    -0.13  -0.02  -0.00    -0.58   0.27  -0.02     0.58  -0.36   0.03
   5   1    -0.13   0.02  -0.00     0.58   0.27  -0.01     0.58   0.36  -0.01
                      7                      8                      9
                        a                      a                      a 
 Frequencies --  1769.4420              3344.3712              3349.6308
 Red. masses --    11.9817                 1.3788                 2.1919
 Frc consts  --     0.0000                 0.0000                 0.0000
 IR Inten    --     0.4100                 0.0751                 0.0531
 Raman Activ --     0.0000                 0.0000                 0.0000
 Depolar     --     0.0000                 0.0000                 0.0000
 Atom AN      X      Y      Z        X      Y      Z        X      Y      Z
   1   6    -0.05  -0.04  -0.70    -0.01   0.00   0.01    -0.00   0.00  -0.00
   2   7     0.13  -0.00   0.00    -0.17  -0.00  -0.00     0.00   0.30  -0.02
   3   6    -0.07   0.04   0.70    -0.01  -0.00  -0.01    -0.00   0.00  -0.00
   4   1    -0.03   0.04  -0.00     0.35   0.61  -0.03    -0.37  -0.56   0.03
   5   1    -0.03  -0.04   0.00     0.34  -0.60   0.04     0.37  -0.57   0.04
