      -----------------------------------------------------------      
     |                   =====================                   |     
     |                           x T B                           |     
     |                   =====================                   |     
     |                         S. Grimme                         |     
     |          Mulliken Center for Theoretical Chemistry        |     
     |                    University of Bonn                     |     
      -----------------------------------------------------------      

   * xtb version 6.2.2 (9d81278992624c895f80dd42a50cac0aa55982e2) compiled by '@Darwin' on 04/03/2020

   xtb is free software: you can redistribute it and/or modify it under
   the terms of the GNU Lesser General Public License as published by
   the Free Software Foundation, either version 3 of the License, or
   (at your option) any later version.
   
   xtb is distributed in the hope that it will be useful,
   but WITHOUT ANY WARRANTY; without even the implied warranty of
   MERCHANTABILITY or FITNESS FOR A PARTICULAR PURPOSE.  See the
   GNU Lesser General Public License for more details.
   
   Cite this work as:
   * S. Grimme, C. Bannwarth, P. Shushkov, J. Chem. Theory Comput., 2017,
     13, 1989-2009. DOI: 10.1021/acs.jctc.7b00118
   * C. Bannwarth, S. Ehlert and S. Grimme., J. Chem. Theory Comput., 2019,
     15, 1652-1671. DOI: 10.1021/acs.jctc.8b01176
   * P. Pracht, E. Caldeweyher, S. Ehlert, S. Grimme, ChemRxiv, 2019, preprint.
     DOI: 10.26434/chemrxiv.8326202.v1
   
   for DFT-D4:
   * E. Caldeweyher, C. Bannwarth and S. Grimme, J. Chem. Phys., 2017,
     147, 034112. DOI: 10.1063/1.4993215
   * E. Caldeweyher, S. Ehlert, A. Hansen, H. Neugebauer, S. Spicher,
     C. Bannwarth and S. Grimme, J. Chem. Phys., 2019, 150, 154122.
     DOI: 10.1063/1.5090222
   
   for sTDA-xTB:
   * S. Grimme and C. Bannwarth, J. Chem. Phys., 2016, 145, 054103.
     DOI: 10.1063/1.4959605
   
   in the mass-spec context:
   * V. Asgeirsson, C. Bauer and S. Grimme, Chem. Sci., 2017, 8, 4879.
     DOI: 10.1039/c7sc00601b
   
   for metadynamics refer to:
   * S. Grimme, J. Chem. Theory Comput., 2019, 155, 2847-2862
     DOI: 10.1021/acs.jctc.9b00143
   
   with help from (in alphabetical order)
   C. Bannwarth, F. Bohle, G. Brandenburg, E. Caldeweyher, M. Checinski,
   S. Dohm, S. Ehlert, S. Ehrlich, F. März, H. Neugebauer, J. Pisarek,
   P. Pracht, P. Shushkov, and S. Spicher.
   
 * started run on 2020/05/12 at 11:44:48.140     

           -------------------------------------------------
          |                Calculation Setup                |
           -------------------------------------------------

          program call               : xtb --input H2C2N1_11_S_1.input H2C2N1_11_S_1.xyz --ohess --molden --namespace H2C2N1_11_S_1 output.out
          calculation namespace      : H2C2N1_11_S_1
          coordinate file            : H2C2N1_11_S_1.xyz
          number of atoms            :                     5
          number of electrons        :                    15
          charge                     :                     0
          spin                       :                   0.5
          first test random number   :      0.67792236941257

   ID    Z sym.   atoms
    1    6 C      1, 3
    2    7 N      2
    3    1 H      4, 5

           -------------------------------------------------
          |                 G F N 2 - x T B                 |
           -------------------------------------------------

        Reference                      10.1021/acs.jctc.8b01176
      * Hamiltonian:
        H0-scaling (s, p, d)           1.850000    2.230000    2.230000
        zeta-weighting                 0.500000
      * Dispersion:
        s8                             2.700000
        a1                             0.520000
        a2                             5.000000
        s9                             5.000000
      * Repulsion:
        kExp                           1.500000    1.000000
        rExp                           1.000000
      * Coulomb:
        alpha                          2.000000
        third order                    shell-resolved
        anisotropic                    true
        a3                             3.000000
        a5                             4.000000
        cn-shift                       1.200000
        cn-exp                         4.000000
        max-rad                        5.000000


          ...................................................
          :                      SETUP                      :
          :.................................................:
          :  # basis functions                  14          :
          :  # atomic orbitals                  14          :
          :  # shells                            8          :
          :  # electrons                        15          :
          :  max. iterations                   250          :
          :  Hamiltonian                  GFN2-xTB          :
          :  restarted?                      false          :
          :  GBSA solvation                  false          :
          :  PC potential                    false          :
          :  electronic temp.          300.0000000     K    :
          :  accuracy                    1.0000000          :
          :  -> integral cutoff          0.2500000E+02      :
          :  -> integral neglect         0.1000000E-07      :
          :  -> SCF convergence          0.1000000E-05 Eh   :
          :  -> wf. convergence          0.1000000E-03 e    :
          :  Broyden damping             0.4000000          :
          ...................................................

 iter      E             dE          RMSdq      gap      omega  full diag
   1     -7.9946681 -0.799467E+01  0.642E+00    1.89       0.0  T
   2     -7.9972023 -0.253417E-02  0.510E+00    2.30       1.0  T
   3     -8.0190950 -0.218927E-01  0.274E+00    1.83       1.0  T
   4     -8.0058095  0.132855E-01  0.202E+00    2.42       1.0  T
   5     -8.0289625 -0.231530E-01  0.520E-01    1.97       1.0  T
   6     -8.0298957 -0.933131E-03  0.226E-01    2.09       1.0  T
   7     -8.0300396 -0.143924E-03  0.945E-02    2.07       1.0  T
   8     -8.0300703 -0.307229E-04  0.273E-02    2.05       1.6  T
   9     -8.0300740 -0.366308E-05  0.757E-03    2.06       5.9  T
  10     -8.0300741 -0.146705E-06  0.218E-03    2.06      20.5  T
  11     -8.0300741 -0.342661E-08  0.755E-04    2.06      59.2  T
  12     -8.0300741 -0.167420E-08  0.180E-04    2.06     248.6  T

   *** convergence criteria satisfied after 12 iterations ***

         #    Occupation            Energy/Eh            Energy/eV
      -------------------------------------------------------------
         1        2.0000           -0.6966695             -18.9573
         2        2.0000           -0.5976339             -16.2624
         3        2.0000           -0.5802579             -15.7896
         4        2.0000           -0.5495024             -14.9527
         5        2.0000           -0.4714270             -12.8282
         6        2.0000           -0.4667189             -12.7001
         7        2.0000           -0.4216104             -11.4726
         8        1.0000           -0.3885087             -10.5719 (HOMO)
         9                         -0.3128719              -8.5137 (LUMO)
        10                         -0.1015692              -2.7638
        11                          0.0156595               0.4261
        12                          0.0759143               2.0657
        13                          0.1693788               4.6090
        14                          0.2393344               6.5126
      -------------------------------------------------------------
                  HL-Gap            0.0756368 Eh            2.0582 eV
             Fermi-level           -0.3778750 Eh          -10.2825 eV

 SCC (total)                   0 d,  0 h,  0 min,  0.003 sec
 SCC setup                      ...        0 min,  0.000 sec (  3.120%)
 Dispersion                     ...        0 min,  0.000 sec (  0.493%)
 integral evaluation            ...        0 min,  0.001 sec ( 26.101%)
 zeroth order Hamiltonian       ...        0 min,  0.000 sec (  0.556%)
 iterations                     ...        0 min,  0.001 sec ( 40.922%)
 molecular gradient             ...        0 min,  0.001 sec ( 26.405%)
 printout                       ...        0 min,  0.000 sec (  1.955%)

         :::::::::::::::::::::::::::::::::::::::::::::::::::::
         ::                     SUMMARY                     ::
         :::::::::::::::::::::::::::::::::::::::::::::::::::::
         :: total energy              -7.961355263868 Eh    ::
         :: gradient norm              0.125784574293 Eh/a0 ::
         :: HOMO-LUMO gap              2.058181184892 eV    ::
         ::.................................................::
         :: SCC energy                -8.030074119382 Eh    ::
         :: -> isotropic ES           -0.004213242846 Eh    ::
         :: -> anisotropic ES          0.002764764169 Eh    ::
         :: -> anisotropic XC          0.007546501288 Eh    ::
         :: -> dispersion             -0.001513361971 Eh    ::
         :: repulsion energy           0.068718834377 Eh    ::
         :: add. restraining           0.000000000000 Eh    ::
         :::::::::::::::::::::::::::::::::::::::::::::::::::::

      ----------------------------------------------------------- 
     |                   =====================                   |
     |                        A N C O P T                        |
     |                   =====================                   |
     |               Approximate Normal Coordinate               |
     |                Rational Function Optimizer                |
      ----------------------------------------------------------- 

          ...................................................
          :                      SETUP                      :
          :.................................................:
          :   optimization level            normal          :
          :   max. optcycles                   200          :
          :   ANC micro-cycles                  20          :
          :   degrees of freedom                 9          :
          :.................................................:
          :   RF solver                   davidson          :
          :   write xtbopt.log                true          :
          :   linear?                        false          :
          :   energy convergence         0.5000000E-05 Eh   :
          :   grad. convergence          0.1000000E-02 Eh/α :
          :   maximium RF displ.         1.0000000          :
          :   Hlow (freq-cutoff)         0.1000000E-01      :
          :   Hmax (freq-cutoff)         5.0000000          :
          :   S6 in model hess.         20.0000000          :
          ...................................................

generating ANC from model Hessian ...
Using Lindh-Hessian (1995)
 Shifting diagonal of input Hessian by    0.0000000000000000     
 Lowest  eigenvalues of input Hessian
   -0.000000   -0.000000   -0.000000    0.000000    0.000000    0.000000
    0.043279    0.080384    0.149059    0.198745    0.703788    0.803688
    0.909034    1.063546    1.522675
 Highest eigenvalues
    0.198745    0.703788    0.803688    0.909034    1.063546    1.522675


........................................................................
.............................. CYCLE    1 ..............................
........................................................................
   1     -8.0300741 -0.803007E+01  0.889E-05    2.06       0.0  T
   2     -8.0300741  0.629257E-10  0.128E-04    2.06     350.6  T
   3     -8.0300741 -0.104439E-09  0.255E-05    2.06    1751.4  T
     SCC iter.                  ...        0 min,  0.000 sec
     gradient                   ...        0 min,  0.001 sec
 * total energy  :    -7.9613553 Eh     change        0.2349276E-09 Eh
   gradient norm :     0.1257826 Eh/α   predicted     0.0000000E+00 (-100.00%)
   displ. norm   :     0.3524726 α      lambda       -0.2643383E-01
   maximum displ.:     0.2147717 α      in ANC's #3, #1, #2, ...

........................................................................
.............................. CYCLE    2 ..............................
........................................................................
   1     -8.0633671 -0.806337E+01  0.103E+00    2.10       0.0  T
   2     -8.0624482  0.918903E-03  0.798E-01    2.32       1.0  T
   3     -8.0635539 -0.110566E-02  0.564E-01    2.12       1.0  T
   4     -8.0644715 -0.917567E-03  0.162E-01    2.18       1.0  T
   5     -8.0645640 -0.924876E-04  0.406E-02    2.19       1.1  T
   6     -8.0645647 -0.761773E-06  0.840E-03    2.19       5.3  T
   7     -8.0645649 -0.157059E-06  0.356E-03    2.19      12.6  T
   8     -8.0645649 -0.173725E-07  0.363E-04    2.19     123.2  T
   9     -8.0645649 -0.153284E-09  0.858E-05    2.19     521.1  T
     SCC iter.                  ...        0 min,  0.001 sec
     gradient                   ...        0 min,  0.001 sec
 * total energy  :    -7.9827685 Eh     change       -0.2141325E-01 Eh
   gradient norm :     0.0839090 Eh/α   predicted    -0.1485894E-01 ( -30.61%)
   displ. norm   :     0.4236545 α      lambda       -0.2508506E-01
   maximum displ.:     0.2990956 α      in ANC's #3, #1, #5, ...

........................................................................
.............................. CYCLE    3 ..............................
........................................................................
   1     -8.0975788 -0.809758E+01  0.141E+00    2.23       0.0  T
   2     -8.0964698  0.110906E-02  0.107E+00    2.45       1.0  T
   3     -8.0981513 -0.168148E-02  0.736E-01    2.26       1.0  T
   4     -8.0995152 -0.136393E-02  0.114E-01    2.30       1.0  T
   5     -8.0995469 -0.317428E-04  0.454E-02    2.32       1.0  T
   6     -8.0995469  0.169705E-07  0.944E-03    2.32       4.7  T
   7     -8.0995471 -0.199187E-06  0.381E-03    2.32      11.8  T
   8     -8.0995471 -0.179283E-07  0.410E-04    2.32     109.2  T
   9     -8.0995471 -0.155845E-09  0.891E-05    2.32     501.9  T
     SCC iter.                  ...        0 min,  0.001 sec
     gradient                   ...        0 min,  0.001 sec
 * total energy  :    -7.9995755 Eh     change       -0.1680702E-01 Eh
   gradient norm :     0.0407517 Eh/α   predicted    -0.1479370E-01 ( -11.98%)
   displ. norm   :     0.2858681 α      lambda       -0.7400091E-02
   maximum displ.:     0.1902149 α      in ANC's #3, #5, #1, ...

........................................................................
.............................. CYCLE    4 ..............................
........................................................................
   1     -8.1056516 -0.810565E+01  0.881E-01    2.41       0.0  T
   2     -8.1053592  0.292470E-03  0.599E-01    2.45       1.0  T
   3     -8.1054153 -0.561791E-04  0.501E-01    2.38       1.0  T
   4     -8.1061568 -0.741487E-03  0.625E-02    2.43       1.0  T
   5     -8.1061704 -0.135312E-04  0.260E-02    2.41       1.7  T
   6     -8.1061706 -0.199887E-06  0.338E-03    2.42      13.2  T
   7     -8.1061706 -0.156370E-07  0.915E-04    2.42      48.9  T
   8     -8.1061706 -0.621695E-09  0.266E-04    2.42     168.3  T
     SCC iter.                  ...        0 min,  0.000 sec
     gradient                   ...        0 min,  0.001 sec
 * total energy  :    -8.0048053 Eh     change       -0.5229722E-02 Eh
   gradient norm :     0.0374533 Eh/α   predicted    -0.4002418E-02 ( -23.47%)
   displ. norm   :     0.2155917 α      lambda       -0.4466778E-02
   maximum displ.:     0.1298132 α      in ANC's #5, #3, #7, ...

........................................................................
.............................. CYCLE    5 ..............................
........................................................................
   1     -8.1147132 -0.811471E+01  0.717E-01    2.65       0.0  T
   2     -8.1145922  0.120957E-03  0.484E-01    2.66       1.0  T
   3     -8.1147268 -0.134627E-03  0.382E-01    2.63       1.0  T
   4     -8.1151090 -0.382179E-03  0.719E-02    2.66       1.0  T
   5     -8.1151288 -0.198262E-04  0.224E-02    2.65       2.0  T
   6     -8.1151291 -0.213219E-06  0.464E-03    2.65       9.6  T
   7     -8.1151291 -0.100040E-07  0.690E-04    2.65      64.8  T
   8     -8.1151291 -0.469518E-09  0.276E-04    2.65     162.1  T
     SCC iter.                  ...        0 min,  0.001 sec
     gradient                   ...        0 min,  0.001 sec
 * total energy  :    -8.0077456 Eh     change       -0.2940335E-02 Eh
   gradient norm :     0.0159373 Eh/α   predicted    -0.2337195E-02 ( -20.51%)
   displ. norm   :     0.1370433 α      lambda       -0.1160968E-02
   maximum displ.:     0.0808374 α      in ANC's #1, #5, #2, ...

........................................................................
.............................. CYCLE    6 ..............................
........................................................................
   1     -8.1168816 -0.811688E+01  0.363E-01    2.79       0.0  T
   2     -8.1168384  0.432297E-04  0.248E-01    2.80       1.0  T
   3     -8.1168725 -0.341105E-04  0.195E-01    2.78       1.0  T
   4     -8.1169794 -0.106895E-03  0.194E-02    2.80       2.3  T
   5     -8.1169798 -0.432015E-06  0.115E-02    2.79       3.9  T
   6     -8.1169799 -0.112805E-06  0.132E-03    2.79      33.8  T
   7     -8.1169799 -0.819949E-09  0.412E-04    2.79     108.7  T
   8     -8.1169799 -0.708678E-10  0.125E-04    2.79     356.5  T
     SCC iter.                  ...        0 min,  0.001 sec
     gradient                   ...        0 min,  0.001 sec
 * total energy  :    -8.0084893 Eh     change       -0.7436845E-03 Eh
   gradient norm :     0.0114521 Eh/α   predicted    -0.5913877E-03 ( -20.48%)
   displ. norm   :     0.0616364 α      lambda       -0.4557865E-03
   maximum displ.:     0.0485814 α      in ANC's #5, #7, #2, ...

........................................................................
.............................. CYCLE    7 ..............................
........................................................................
   1     -8.1199488 -0.811995E+01  0.179E-01    2.82       0.0  T
   2     -8.1199486  0.210794E-06  0.110E-01    2.83       1.0  T
   3     -8.1199147  0.338447E-04  0.951E-02    2.82       1.0  T
   4     -8.1199572 -0.424995E-04  0.103E-02    2.83       4.3  T
   5     -8.1199574 -0.125748E-06  0.561E-03    2.83       8.0  T
   6     -8.1199574 -0.241905E-07  0.108E-03    2.83      41.3  T
   7     -8.1199574 -0.722284E-09  0.156E-04    2.83     286.7  T
   8     -8.1199574 -0.405009E-12  0.713E-05    2.83     627.1  T
     SCC iter.                  ...        0 min,  0.000 sec
     gradient                   ...        0 min,  0.001 sec
 * total energy  :    -8.0087275 Eh     change       -0.2382650E-03 Eh
   gradient norm :     0.0092541 Eh/α   predicted    -0.2287607E-03 (  -3.99%)
   displ. norm   :     0.0575856 α      lambda       -0.1864055E-03
   maximum displ.:     0.0402303 α      in ANC's #1, #2, #5, ...

........................................................................
.............................. CYCLE    8 ..............................
........................................................................
   1     -8.1183948 -0.811839E+01  0.166E-01    2.84       0.0  T
   2     -8.1183989 -0.407179E-05  0.939E-02    2.86       1.0  T
   3     -8.1183864  0.124513E-04  0.828E-02    2.84       1.0  T
   4     -8.1184106 -0.241319E-04  0.187E-02    2.85       2.4  T
   5     -8.1184118 -0.121036E-05  0.513E-03    2.85       8.7  T
   6     -8.1184118 -0.180024E-07  0.805E-04    2.85      55.6  T
   7     -8.1184118 -0.393875E-09  0.118E-04    2.85     378.0  T
     SCC iter.                  ...        0 min,  0.000 sec
     gradient                   ...        0 min,  0.001 sec
 * total energy  :    -8.0088200 Eh     change       -0.9241568E-04 Eh
   gradient norm :     0.0034381 Eh/α   predicted    -0.9351242E-04 (   1.19%)
   displ. norm   :     0.0210515 α      lambda       -0.5150815E-04
   maximum displ.:     0.0134564 α      in ANC's #3, #4, #8, ...

........................................................................
.............................. CYCLE    9 ..............................
........................................................................
   1     -8.1189295 -0.811893E+01  0.728E-02    2.86       0.0  T
   2     -8.1189317 -0.218528E-05  0.383E-02    2.86       1.2  T
   3     -8.1189318 -0.734838E-07  0.215E-02    2.86       2.1  T
   4     -8.1189324 -0.619067E-06  0.418E-03    2.86      10.7  T
   5     -8.1189324  0.130278E-07  0.348E-03    2.86      12.9  T
   6     -8.1189324 -0.425964E-07  0.323E-04    2.86     138.5  T
   7     -8.1189324 -0.902265E-10  0.984E-05    2.86     454.4  T
     SCC iter.                  ...        0 min,  0.000 sec
     gradient                   ...        0 min,  0.001 sec
 * total energy  :    -8.0088554 Eh     change       -0.3548190E-04 Eh
   gradient norm :     0.0026502 Eh/α   predicted    -0.2576543E-04 ( -27.38%)
   displ. norm   :     0.0246754 α      lambda       -0.3744237E-04
   maximum displ.:     0.0159231 α      in ANC's #1, #4, #7, ...

........................................................................
.............................. CYCLE   10 ..............................
........................................................................
   1     -8.1183238 -0.811832E+01  0.716E-02    2.85       0.0  T
   2     -8.1183235  0.376150E-06  0.453E-02    2.85       1.0  T
   3     -8.1183216  0.191130E-05  0.371E-02    2.86       1.2  T
   4     -8.1183267 -0.517460E-05  0.508E-03    2.85       8.8  T
   5     -8.1183268 -0.499225E-07  0.291E-03    2.85      15.4  T
   6     -8.1183268 -0.692812E-08  0.444E-04    2.85     100.7  T
   7     -8.1183268 -0.164590E-09  0.126E-04    2.85     355.8  T
     SCC iter.                  ...        0 min,  0.000 sec
     gradient                   ...        0 min,  0.001 sec
 * total energy  :    -8.0088721 Eh     change       -0.1669497E-04 Eh
   gradient norm :     0.0029001 Eh/α   predicted    -0.1873229E-04 (  12.20%)
   displ. norm   :     0.0075206 α      lambda       -0.1231318E-04
   maximum displ.:     0.0046364 α      in ANC's #2, #7, #3, ...

........................................................................
.............................. CYCLE   11 ..............................
........................................................................
   1     -8.1185153 -0.811852E+01  0.283E-02    2.87       0.0  T
   2     -8.1185150  0.284677E-06  0.195E-02    2.88       2.3  T
   3     -8.1185154 -0.448800E-06  0.144E-02    2.87       3.1  T
   4     -8.1185160 -0.561208E-06  0.149E-03    2.87      30.0  T
   5     -8.1185160 -0.207626E-08  0.938E-04    2.87      47.7  T
   6     -8.1185160 -0.863057E-09  0.165E-04    2.87     270.8  T
     SCC iter.                  ...        0 min,  0.000 sec
     gradient                   ...        0 min,  0.001 sec
 * total energy  :    -8.0088792 Eh     change       -0.7043461E-05 Eh
   gradient norm :     0.0011945 Eh/α   predicted    -0.6156561E-05 ( -12.59%)
   displ. norm   :     0.0073196 α      lambda       -0.3722988E-05
   maximum displ.:     0.0045759 α      in ANC's #3, #2, #6, ...

........................................................................
.............................. CYCLE   12 ..............................
........................................................................
   1     -8.1184828 -0.811848E+01  0.330E-02    2.89       0.0  T
   2     -8.1184832 -0.421795E-06  0.178E-02    2.88       2.5  T
   3     -8.1184831  0.126723E-06  0.135E-02    2.88       3.3  T
   4     -8.1184834 -0.265889E-06  0.552E-03    2.89       8.1  T
   5     -8.1184835 -0.162740E-06  0.945E-04    2.88      47.3  T
   6     -8.1184835 -0.129285E-09  0.116E-04    2.88     386.4  T
     SCC iter.                  ...        0 min,  0.000 sec
     gradient                   ...        0 min,  0.001 sec
 * total energy  :    -8.0088816 Eh     change       -0.2449048E-05 Eh
   gradient norm :     0.0003987 Eh/α   predicted    -0.1862485E-05 ( -23.95%)
   displ. norm   :     0.0019766 α      lambda       -0.2536337E-06
   maximum displ.:     0.0014418 α      in ANC's #2, #1, #5, ...

   *** GEOMETRY OPTIMIZATION CONVERGED AFTER 12 ITERATIONS ***

------------------------------------------------------------------------
 total energy gain   :        -0.0475264 Eh      -29.8232 kcal/mol
 total RMSD          :         0.6247063 a0        0.3306 Å
 total power (kW/mol):       -10.3983710 (step)-5187.5541 (real)
------------------------------------------------------------------------

 ANCopt (total)                0 d,  0 h,  0 min,  0.024 sec
 optimizer setup                ...        0 min,  0.000 sec (  0.273%)
 model hessian                  ...        0 min,  0.000 sec (  0.411%)
 ANC generation                 ...        0 min,  0.000 sec (  0.216%)
 coordinate transformation      ...        0 min,  0.000 sec (  0.115%)
 single point calculation       ...        0 min,  0.023 sec ( 94.887%)
 optimization log               ...        0 min,  0.000 sec (  1.282%)
 hessian update                 ...        0 min,  0.000 sec (  0.116%)
 rational function              ...        0 min,  0.000 sec (  1.150%)

================
 final structure:
================
5
 xtb: 6.2.2 (9d81278992624c895f80dd42a50cac0aa55982e2)
C         0.65432174069006    0.06393474417934   -0.00014787796344
N        -0.67811900242851   -0.05365693165913    0.31865159530424
C        -0.06360728328049    1.21266944030278   -0.10238218884979
H         1.46883893297068   -0.61764175503866   -0.06133971951173
H        -1.38143538795173   -0.60530549778434   -0.15478180897929

 Bond Distances (Angstroems)
 ---------------------------
C1-N2=1.3751         C1-C3=1.3585         C1-H4=1.0638         N2-C1=1.3751         N2-C3=1.4692         N2-H5=1.0115         
C3-C1=1.3585         C3-N2=1.4692         H4-C1=1.0638         H5-N2=1.0115         
 C  H  Rav=1.0638 sigma=0.0000  Rmin=1.0638  Rmax=1.0638     1
 C  C  Rav=1.3585 sigma=0.0000  Rmin=1.3585  Rmax=1.3585     1
 N  H  Rav=1.0115 sigma=0.0000  Rmin=1.0115  Rmax=1.0115     1
 N  C  Rav=1.4221 sigma=0.0470  Rmin=1.3751  Rmax=1.4692     2

 selected bond angles (degree)
 --------------------
C3-C1-N2= 65.02                H4-C1-N2=134.46                H4-C1-C3=160.40                C3-N2-C1= 56.94                
H5-N2-C1=127.73                H5-N2-C3=128.81                N2-C3-C1= 58.04                

 selected dihedral angles (degree)
 ---------------------------------
C3-N2-C1-H4=182.64            H5-N2-C1-C3=116.23            H5-N2-C1-H4=298.87            N2-C3-C1-H4=174.38            
C1-C3-N2-H5=245.58            
           -------------------------------------------------
          |                Final Singlepoint                |
           -------------------------------------------------

          ...................................................
          :                      SETUP                      :
          :.................................................:
          :  # basis functions                  14          :
          :  # atomic orbitals                  14          :
          :  # shells                            8          :
          :  # electrons                        15          :
          :  max. iterations                   250          :
          :  Hamiltonian                  GFN2-xTB          :
          :  restarted?                      false          :
          :  GBSA solvation                  false          :
          :  PC potential                    false          :
          :  electronic temp.          300.0000000     K    :
          :  accuracy                    1.0000000          :
          :  -> integral cutoff          0.2500000E+02      :
          :  -> integral neglect         0.1000000E-07      :
          :  -> SCF convergence          0.1000000E-05 Eh   :
          :  -> wf. convergence          0.1000000E-03 e    :
          :  Broyden damping             0.4000000          :
          ...................................................

 iter      E             dE          RMSdq      gap      omega  full diag
   1     -8.1184835 -0.811848E+01  0.320E-05    2.88       0.0  T
   2     -8.1184835  0.197176E-12  0.252E-05    2.88    1773.1  T
   3     -8.1184835 -0.591527E-12  0.151E-05    2.88    2957.8  T

   *** convergence criteria satisfied after 3 iterations ***

         #    Occupation            Energy/Eh            Energy/eV
      -------------------------------------------------------------
         1        2.0000           -0.6922172             -18.8362
         2        2.0000           -0.6029530             -16.4072
         3        2.0000           -0.5806193             -15.7995
         4        2.0000           -0.5354425             -14.5701
         5        2.0000           -0.4990520             -13.5799
         6        2.0000           -0.4612973             -12.5525
         7        2.0000           -0.4005891             -10.9006
         8        1.0000           -0.3469822              -9.4419 (HOMO)
         9                         -0.2409742              -6.5572 (LUMO)
        10                         -0.0603758              -1.6429
        11                          0.0281257               0.7653
        12                          0.1090580               2.9676
        13                          0.2625418               7.1441
        14                          0.6533974              17.7798
      -------------------------------------------------------------
                  HL-Gap            0.1060080 Eh            2.8846 eV
             Fermi-level           -0.3338819 Eh           -9.0854 eV

 SCC (total)                   0 d,  0 h,  0 min,  0.002 sec
 SCC setup                      ...        0 min,  0.000 sec (  2.445%)
 Dispersion                     ...        0 min,  0.000 sec (  0.411%)
 integral evaluation            ...        0 min,  0.001 sec ( 33.925%)
 zeroth order Hamiltonian       ...        0 min,  0.000 sec (  0.647%)
 iterations                     ...        0 min,  0.001 sec ( 25.744%)
 molecular gradient             ...        0 min,  0.001 sec ( 33.913%)
 printout                       ...        0 min,  0.000 sec (  2.375%)

         :::::::::::::::::::::::::::::::::::::::::::::::::::::
         ::                     SUMMARY                     ::
         :::::::::::::::::::::::::::::::::::::::::::::::::::::
         :: total energy              -8.008881628910 Eh    ::
         :: gradient norm              0.000414470369 Eh/a0 ::
         :: HOMO-LUMO gap              2.884623778062 eV    ::
         ::.................................................::
         :: SCC energy                -8.118483517704 Eh    ::
         :: -> isotropic ES           -0.002596147225 Eh    ::
         :: -> anisotropic ES          0.001158739115 Eh    ::
         :: -> anisotropic XC          0.007704710740 Eh    ::
         :: -> dispersion             -0.001517695045 Eh    ::
         :: repulsion energy           0.109601857343 Eh    ::
         :: add. restraining           0.000000000000 Eh    ::
         :::::::::::::::::::::::::::::::::::::::::::::::::::::

           ------------------------------------------------- 
          |                Numerical Hessian                |
           ------------------------------------------------- 
step length          :   0.00500
SCC accuracy         :   0.30000
Hessian scale factor :   1.00000
frozen atoms in %    :   0.00000    0
RMS gradient         :   0.00041
estimated CPU  time      0.00 min
estimated wall time      0.00 min

writing file <hessian>.

 projected vibrational frequencies (cm-1)
eigval :       -0.00    -0.00     0.00     0.00     0.00     0.00
eigval :      601.63   746.26   826.89   905.10   940.14  1236.17
eigval :     1605.49  3212.97  3322.07
           -------------------------------------------------
          |                Property Printout                |
           -------------------------------------------------

    * Orbital Energies and Occupations

         #    Occupation            Energy/Eh            Energy/eV
      -------------------------------------------------------------
         1        2.0000           -0.6922172             -18.8362
         2        2.0000           -0.6029530             -16.4072
         3        2.0000           -0.5806193             -15.7995
         4        2.0000           -0.5354425             -14.5701
         5        2.0000           -0.4990520             -13.5799
         6        2.0000           -0.4612972             -12.5525
         7        2.0000           -0.4005892             -10.9006
         8        1.0000           -0.3469821              -9.4419 (HOMO)
         9                         -0.2409742              -6.5572 (LUMO)
        10                         -0.0603758              -1.6429
        11                          0.0281257               0.7653
        12                          0.1090580               2.9676
        13                          0.2625418               7.1441
        14                          0.6533974              17.7798
      -------------------------------------------------------------
                  HL-Gap            0.1060079 Eh            2.8846 eV
             Fermi-level           -0.3338819 Eh           -9.0854 eV

     #   Z        covCN         q      C6AA      α(0)
     1   6 C      2.817     0.068    26.459     8.428
     2   7 N      2.676    -0.127    23.756     7.239
     3   6 C      1.887    -0.146    35.244     9.588
     4   1 H      0.927     0.049     2.332     2.388
     5   1 H      0.860     0.155     1.368     1.832

 Mol. C6AA /au·bohr⁶  :        347.081495
 Mol. C8AA /au·bohr⁸  :       8420.080424
 Mol. α(0) /au        :         29.475257


Wiberg/Mayer (AO) data.
largest (>0.10) Wiberg bond orders for each atom
          total WBO             WBO to atom ...
     1  C   3.586        C    3 1.483    N    2 1.138    H    4 0.961
     2  N   3.022        C    1 1.138    C    3 0.956    H    5 0.921
     3  C   2.476        C    1 1.483    N    2 0.956
     4  H   0.997        C    1 0.961
     5  H   0.936        N    2 0.921

MOs/occ written to file <molden.input>


molecular dipole:
                 x           y           z       tot (Debye)
 q only:       -0.004      -0.547      -0.099
   full:        0.037      -1.298      -0.203       3.341
molecular quadrupole (traceless):
                xx          xy          yy          xz          yz          zz
 q only:        1.594       0.507      -1.140       0.295       0.196      -0.454
  q+dip:        3.376       0.006      -2.967       0.919       0.805      -0.409
   full:        2.948       0.697      -3.854       1.057       1.039       0.906

           -------------------------------------------------
          |                Geometry Summary                 |
           -------------------------------------------------

      molecular mass/u    :       40.0440565
   center of mass at/Å    :       -0.0578143       0.3333518       0.0752657
  moments of inertia/u·Å² :        0.1426759E+02   0.1717168E+02   0.3056324E+02
rotational constants/cm⁻¹ :        0.1181533E+01   0.9817112E+00   0.5515656E+00

 * 4 selected distances

     #   Z        #   Z                                     value/Å
     1   6 C      2   7 N                                 1.3750852 (max)
     1   6 C      3   6 C                                 1.3584791
     1   6 C      4   1 H                                 1.0638276
     2   7 N      5   1 H                                 1.0114886 (min)

 * 4 distinct bonds (by element types)

   Z      Z             #   av. dist./Å        max./Å        min./Å
   1 H    6 C           1     1.0638276     1.0638276     1.0638276
   6 C    6 C           1     1.3584791     1.3584791     1.3584791
   1 H    7 N           1     1.0114886     1.0114886     1.0114886
   6 C    7 N           1     1.3750852     1.3750852     1.3750852

           -------------------------------------------------
          |               Frequency Printout                |
           -------------------------------------------------
 projected vibrational frequencies (cm-1)
eigval :       -0.00    -0.00     0.00     0.00     0.00     0.00
eigval :      601.63   746.26   826.89   905.10   940.14  1236.17
eigval :     1605.49  3212.97  3322.07
 reduced masses (amu)
   1: 11.77   2:  9.31   3: 11.99   4: 12.06   5: 10.96   6: 11.45   7:  3.57   8:  8.99
   9:  4.85  10:  2.01  11:  5.11  12: 12.55  13: 11.65  14:  2.01  15:  1.84
Molecule has no symmetry elements
It seems to be the C1 point group
 IR intensities (amu)
   1:  0.20   2:  0.21   3:  0.25   4:  0.25   5:  0.20   6:  0.14   7:  0.05   8:  0.19
   9:  0.38  10:  0.24  11:  0.23  12:  0.41  13:  0.41  14:  0.15  15:  0.04
 Raman intensities (amu)
   1:  0.00   2:  0.00   3:  0.00   4:  0.00   5:  0.00   6:  0.00   7:  0.00   8:  0.00
   9:  0.00  10:  0.00  11:  0.00  12:  0.00  13:  0.00  14:  0.00  15:  0.00
 output can be read by thermo (or use thermo option).
 writing <g98.out> molden fake output.
 recommended (thermochemical) frequency scaling factor: 1.0
           -------------------------------------------------
          |             Thermodynamic Functions             |
           -------------------------------------------------

c1  symmetry found (for desy threshold:  0.10E+00) used in thermo

          ...................................................
          :                      SETUP                      :
          :.................................................:
          :  # frequencies                           9      :
          :  # imaginary freq.                       0      :
          :  linear?                             false      :
          :  only rotor calc.                    false      :
          :  symmetry                               c1      :
          :  rotational number                       1      :
          :  scaling factor                  1.0000000      :
          :  rotor cutoff                   50.0000000 cm⁻¹ :
          :  imag. cutoff                  -20.0000000 cm⁻¹ :
          :.................................................:

    mode    ω/cm⁻¹     T·S(HO)/kcal·mol⁻¹    T·S(FR)/kcal·mol⁻¹   T·S(vib)
   ------------------------------------------------------------------------
   ------------------------------------------------------------------------

   temp. (K)  partition function   enthalpy   heat capacity  entropy
                                   cal/mol     cal/K/mol   cal/K/mol   J/K/mol
 298.15  VIB   1.14                  277.634      3.554      1.188
         ROT  0.661E+04              888.752      2.981     20.462
         INT  0.752E+04             1166.387      6.535     21.650
         TR   0.245E+27             1481.254      4.968     36.973
         TOT                        2647.6405    11.5029    58.6230   245.2785

   temp. (K)  partition function   enthalpy   heat capacity  entropy
                                   cal/mol     cal/K/mol   cal/K/mol   J/K/mol
 120.00  VIB   1.00                    1.748      0.115      0.016
         ROT  0.169E+04              357.707      2.981     17.749
         INT  0.169E+04              359.455      3.095     17.765
         TR   0.626E+26              596.178      4.968     32.454
         TOT                         955.6329     8.0636    50.2190   210.1164

   temp. (K)  partition function   enthalpy   heat capacity  entropy
                                   cal/mol     cal/K/mol   cal/K/mol   J/K/mol
 100.00  VIB   1.00                    0.371      0.034      0.004
         ROT  0.128E+04              298.089      2.981     17.205
         INT  0.128E+04              298.460      3.015     17.209
         TR   0.476E+26              496.815      4.968     31.549
         TOT                         795.2753     7.9831    48.7578   204.0028

   temp. (K)  partition function   enthalpy   heat capacity  entropy
                                   cal/mol     cal/K/mol   cal/K/mol   J/K/mol
  80.00  VIB   1.00                    0.039      0.005      0.000
         ROT   919.                  238.471      2.981     16.540
         INT   919.                  238.510      2.986     16.541
         TR   0.341E+26              397.452      4.968     30.440
         TOT                         635.9619     7.9544    46.9810   196.5685

   temp. (K)  partition function   enthalpy   heat capacity  entropy
                                   cal/mol     cal/K/mol   cal/K/mol   J/K/mol
  60.00  VIB   1.00                    0.001      0.000     -0.000
         ROT   597.                  178.853      2.981     15.682
         INT   597.                  178.854      2.981     15.682
         TR   0.221E+26              298.089      4.968     29.012
         TOT                         476.9434     7.9493    44.6944   187.0012

   temp. (K)  partition function   enthalpy   heat capacity  entropy
                                   cal/mol     cal/K/mol   cal/K/mol   J/K/mol
  40.00  VIB   1.00                    0.000      0.000     -0.000
         ROT   325.                  119.236      2.981     14.474
         INT   325.                  119.236      2.981     14.474
         TR   0.120E+26              198.726      4.968     26.999
         TOT                         317.9616     7.9490    41.4722   173.5198

   temp. (K)  partition function   enthalpy   heat capacity  entropy
                                   cal/mol     cal/K/mol   cal/K/mol   J/K/mol
  20.00  VIB   1.00                    0.000      0.000     -0.000
         ROT   115.                   59.618      2.981     12.408
         INT   115.                   59.618      2.981     12.407
         TR   0.426E+25               99.363      4.968     23.557
         TOT                         158.9808     7.9490    35.9640   150.4733

   temp. (K)  partition function   enthalpy   heat capacity  entropy
                                   cal/mol     cal/K/mol   cal/K/mol   J/K/mol
  10.00  VIB   1.00                    0.000      0.000     -0.000
         ROT   40.6                   29.809      2.981     10.341
         INT   40.6                   29.809      2.981     10.341
         TR   0.151E+25               49.681      4.968     20.115
         TOT                          79.4904     7.9490    30.4557   127.4268

       T/K    H(0)-H(T)+PV         H(T)/Eh          T*S/Eh         G(T)/Eh
   ------------------------------------------------------------------------
    298.15    0.421928E-02    0.347393E-01    0.278537E-01    0.688560E-02
    120.00    0.152290E-02    0.320429E-01    0.960350E-02    0.224394E-01
    100.00    0.126735E-02    0.317873E-01    0.777006E-02    0.240173E-01
     80.00    0.101347E-02    0.315335E-01    0.598952E-02    0.255439E-01
     60.00    0.760058E-03    0.312800E-01    0.427350E-02    0.270065E-01
     40.00    0.506704E-03    0.310267E-01    0.264361E-02    0.283831E-01
     20.00    0.253352E-03    0.307733E-01    0.114625E-02    0.296271E-01
     10.00    0.126676E-03    0.306467E-01    0.485343E-03    0.301613E-01 (used)
   ------------------------------------------------------------------------

         :::::::::::::::::::::::::::::::::::::::::::::::::::::
         ::                  THERMODYNAMIC                  ::
         :::::::::::::::::::::::::::::::::::::::::::::::::::::
         :: total free energy          -7.978720312781 Eh   ::
         ::.................................................::
         :: total energy               -8.008881628926 Eh   ::
         :: zero point energy           0.030519983221 Eh   ::
         :: G(RRHO) w/o ZPVE           -0.000358667077 Eh   ::
         :: G(RRHO) contrib.            0.030161316145 Eh   ::
         :::::::::::::::::::::::::::::::::::::::::::::::::::::

optimized geometry written to: xtbopt.xyz


           -------------------------------------------------
          | TOTAL ENERGY               -8.008881628926 Eh   |
          | TOTAL ENTHALPY             -7.978234969689 Eh   |
          | TOTAL FREE ENERGY          -7.978720312781 Eh   |
          | GRADIENT NORM               0.000414528683 Eh/α |
          | HOMO-LUMO GAP               2.884623069897 eV   |
           -------------------------------------------------

------------------------------------------------------------------------
 * finished run on 2020/05/12 at 11:44:48.239     
------------------------------------------------------------------------
 total:
 * wall-time:     0 d,  0 h,  0 min,  0.098 sec
 *  cpu-time:     0 d,  0 h,  0 min,  0.098 sec
 * ratio c/w:     0.999 speedup
 SCF:
 * wall-time:     0 d,  0 h,  0 min,  0.003 sec
 *  cpu-time:     0 d,  0 h,  0 min,  0.003 sec
 * ratio c/w:     1.000 speedup
 ANC optimizer:
 * wall-time:     0 d,  0 h,  0 min,  0.027 sec
 *  cpu-time:     0 d,  0 h,  0 min,  0.027 sec
 * ratio c/w:     1.000 speedup
 numerical hessian:
 * wall-time:     0 d,  0 h,  0 min,  0.053 sec
 *  cpu-time:     0 d,  0 h,  0 min,  0.053 sec
 * ratio c/w:     0.999 speedup

