 Entering Gaussian System
 *********************************************
 Gaussian 98:
 frequency output generated by the xtb code
 *********************************************
                         Standard orientation:
 --------------------------------------------------------------------
  Center     Atomic     Atomic              Coordinates (Angstroms)
  Number     Number      Type              X           Y           Z
 --------------------------------------------------------------------
    1          6             0       -0.705995   -0.035800    0.073978
    2          6             0        0.371536   -0.844731   -0.021476
    3          6             0        1.626497    0.072598   -0.169845
    4          6             0        0.469408    0.783082   -0.062234
    5          1             0       -1.761446    0.024850    0.179577
 --------------------------------------------------------------------
     1 basis functions        1 primitive gaussians
     1 alpha electrons        1 beta electrons

 Harmonic frequencies (cm**-1), IR intensities (KM/Mole),
 Raman scattering activities (A**4/amu), Raman depolarization ratios,
 reduced masses (AMU), force constants (mDyne/A) and normal coordinates:
                      1                      2                      3
                        a                      a                      a 
 Frequencies --   221.4830               399.2237               584.6102
 Red. masses --     9.4121                11.4126                 5.2267
 Frc consts  --     0.0000                 0.0000                 0.0000
 IR Inten    --     0.4540                 1.2781                 0.2707
 Raman Activ --     0.0000                 0.0000                 0.0000
 Depolar     --     0.0000                 0.0000                 0.0000
 Atom AN      X      Y      Z        X      Y      Z        X      Y      Z
   1   6     0.03   0.01   0.27    -0.08  -0.25   0.02    -0.05  -0.01  -0.54
   2   6    -0.04  -0.01  -0.42     0.30   0.52  -0.04     0.02   0.00   0.21
   3   6     0.06   0.01   0.51    -0.20  -0.58   0.03    -0.01  -0.00  -0.09
   4   6    -0.05  -0.01  -0.50    -0.01   0.37  -0.01     0.02   0.01   0.20
   5   1     0.05   0.01   0.48    -0.03  -0.23   0.01     0.08   0.01   0.78
                      4                      5                      6
                        a                      a                      a 
 Frequencies --   680.2161               920.0246              1031.3871
 Red. masses --    11.8420                 2.8464                11.9088
 Frc consts  --     0.0000                 0.0000                 0.0000
 IR Inten    --     0.1380                 0.2222                 0.3777
 Raman Activ --     0.0000                 0.0000                 0.0000
 Depolar     --     0.0000                 0.0000                 0.0000
 Atom AN      X      Y      Z        X      Y      Z        X      Y      Z
   1   6    -0.44   0.09   0.04     0.01  -0.28   0.00    -0.26  -0.54   0.04
   2   6     0.16   0.48  -0.02     0.23   0.04  -0.02    -0.47   0.11   0.05
   3   6     0.39   0.02  -0.04    -0.12  -0.04   0.01     0.36   0.14  -0.04
   4   6    -0.07  -0.60   0.02    -0.14   0.01   0.01     0.39   0.28  -0.05
   5   1    -0.12   0.03   0.01     0.06   0.91  -0.02    -0.07   0.07   0.01
                      7                      8                      9
                        a                      a                      a 
 Frequencies --  1435.8707              1509.0766              3237.0987
 Red. masses --    11.9944                11.4679                 2.0155
 Frc consts  --     0.0000                 0.0000                 0.0000
 IR Inten    --     0.4243                 0.2238                 0.0039
 Raman Activ --     0.0000                 0.0000                 0.0000
 Depolar     --     0.0000                 0.0000                 0.0000
 Atom AN      X      Y      Z        X      Y      Z        X      Y      Z
   1   6     0.09   0.07  -0.01     0.62  -0.18  -0.06     0.30  -0.02  -0.03
   2   6    -0.10  -0.12   0.01    -0.43   0.47   0.04    -0.01   0.02   0.00
   3   6     0.63  -0.25  -0.06    -0.08   0.02   0.01    -0.00  -0.00   0.00
   4   6    -0.64   0.29   0.06    -0.16  -0.30   0.02    -0.01  -0.01   0.00
   5   1     0.03   0.02  -0.00     0.22  -0.02  -0.02    -0.95   0.06   0.09
