[Molden Format]
[Title]
[Atoms] AU
C      1     6 -0.13341379855079E+01 -0.67652076320285E-01  0.13979820405145E+00
C      2     6  0.70210165959308E+00 -0.15963092751391E+01 -0.40584307742592E-01
C      3     6  0.30736337255773E+01  0.13718977135584E+00 -0.32096104709293E+00
C      4     6  0.88705198877908E+00  0.14798111358698E+01 -0.11760442173730E+00
H      5     1 -0.33286493884416E+01  0.46960444233735E-01  0.33935157252138E+00
[GTO]
           1 0
 s           4   1.0000000000000000     
   51.049363095579913      -0.16312063210127389     
   8.7911227406887544      -0.19911024581000730     
  0.70640422258929825       0.31882047753655751     
  0.26922813413411617       0.12706504184240380     
 p           4   1.0000000000000000     
   5.8263656140800002       0.73716451545209605     
   1.5106896018720002       0.68216371614850257     
  0.53256483288000001       0.35783053929253711     
  0.21202323690600003        5.3983030275847881E-002

           2 0
 s           4   1.0000000000000000     
   51.049363095579913      -0.16312063210127389     
   8.7911227406887544      -0.19911024581000730     
  0.70640422258929825       0.31882047753655751     
  0.26922813413411617       0.12706504184240380     
 p           4   1.0000000000000000     
   5.8263656140800002       0.73716451545209605     
   1.5106896018720002       0.68216371614850257     
  0.53256483288000001       0.35783053929253711     
  0.21202323690600003        5.3983030275847881E-002

           3 0
 s           4   1.0000000000000000     
   51.049363095579913      -0.16312063210127389     
   8.7911227406887544      -0.19911024581000730     
  0.70640422258929825       0.31882047753655751     
  0.26922813413411617       0.12706504184240380     
 p           4   1.0000000000000000     
   5.8263656140800002       0.73716451545209605     
   1.5106896018720002       0.68216371614850257     
  0.53256483288000001       0.35783053929253711     
  0.21202323690600003        5.3983030275847881E-002

           4 0
 s           4   1.0000000000000000     
   51.049363095579913      -0.16312063210127389     
   8.7911227406887544      -0.19911024581000730     
  0.70640422258929825       0.31882047753655751     
  0.26922813413411617       0.12706504184240380     
 p           4   1.0000000000000000     
   5.8263656140800002       0.73716451545209605     
   1.5106896018720002       0.68216371614850257     
  0.53256483288000001       0.35783053929253711     
  0.21202323690600003        5.3983030275847881E-002

           5 0
 s           3   1.0000000000000000     
   3.3702276975336001       0.27359110588908298     
  0.61389118221497996       0.26460540653860526     
  0.16614291148415999        8.2465947534082318E-002

[MO]
Sym=     1a
Ene=  -0.71478575051347859     
Spin= Alpha
Occup=     2.00000000
           1 -0.33433843540063152     
           2 -0.17369158430864942     
           3   9.4313556912931848E-003
           4   1.7700144348322337E-002
           5 -0.35383385001961803     
           6   3.3666825531531983E-002
           7 -0.15096161090981147     
           8  -5.4718194632599694E-004
           9 -0.21000055790972569     
          10  0.10470079809619656     
          11   2.1120383037789730E-003
          12  -1.0944142052826593E-002
          13 -0.33769968940894490     
          14   2.8830576738082026E-002
          15  0.15274949300218035     
          16  -5.7509737114862557E-003
          17  -4.3108356224794593E-002
Sym=     2a
Ene=  -0.63719520570792132     
Spin= Alpha
Occup=     2.00000000
           1  0.43569793087717995     
           2  -5.9614708012577365E-002
           3  -4.2102384192023008E-002
           4   6.9541009079471363E-003
           5   2.1398478467019207E-002
           6 -0.26710427697961070     
           7  -3.0325210597236529E-002
           8   2.8203447090270978E-002
           9 -0.42014187893734201     
          10   8.1807985695166535E-002
          11  -3.4364770040983574E-002
          12  -7.9577160194445086E-003
          13 -0.16495163730146753     
          14 -0.28322574430483088     
          15   1.9975323318790355E-002
          16   2.9004758532971363E-002
          17  0.19799077860652645     
Sym=     3a
Ene=  -0.58726478063864873     
Spin= Alpha
Occup=     2.00000000
           1  0.12336858312237842     
           2 -0.11013386108918430     
           3  0.39852073359333856     
           4   3.6096361592440926E-003
           5 -0.50900958959369003     
           6   4.7172333112080050E-002
           7  0.13822186446051721     
           8  -7.4981933670160462E-003
           9   2.3102207217391195E-002
          10  -1.0724244052486604E-002
          11  0.17973958685744482     
          12  -2.3222148142330690E-003
          13  0.44200613267262956     
          14  -7.8306330598957252E-002
          15  0.14835479522165329     
          16   5.0452874923460414E-003
          17  0.14644631177909512     
Sym=     4a
Ene=  -0.55913645138114154     
Spin= Alpha
Occup=     2.00000000
           1  0.18491848060445790     
           2 -0.43818615238845071     
           3 -0.13833046373334079     
           4   4.6239274629254784E-002
           5   4.0680229888995501E-002
           6   9.4853340582183934E-002
           7  -7.3488666897759347E-002
           8  -9.5002857251567634E-003
           9  0.37225253791509305     
          10   2.9749516596896498E-002
          11   7.5313039072219903E-004
          12  -3.4893057024944774E-003
          13 -0.15144241309515233     
          14  0.26755426175827407     
          15  -1.7125418829698910E-002
          16  -2.8371586469343919E-002
          17  0.43331902437843944     
Sym=     5a
Ene=  -0.52786778009858881     
Spin= Alpha
Occup=     2.00000000
           1  -6.4378499198560781E-004
           2  -4.8199603838073264E-002
           3  -8.6426526092436597E-003
           4 -0.48243926472765564     
           5  -9.8225817334536507E-005
           6  -4.6066107842803940E-002
           7  -8.3398640966837398E-003
           8 -0.44528785548501792     
           9  -8.5586995470602061E-004
          10  -2.7262352869786125E-002
          11  -5.2645835793483651E-003
          12 -0.25994024704008034     
          13  -2.0360164209489313E-004
          14  -4.6836436013604855E-002
          15  -8.3670497226697900E-003
          16 -0.44326608893584318     
          17  -1.0365746270892043E-003
Sym=     6a
Ene=  -0.50632606251170076     
Spin= Alpha
Occup=     2.00000000
           1  -6.9995540218499982E-003
           2  -6.0100274668087796E-002
           3  0.37232622340124250     
           4  -6.1291976126202929E-004
           5  0.10610464236530223     
           6  0.45064433501223700     
           7   9.9450122016507946E-003
           8  -4.6496300983652504E-002
           9   3.4277678010230593E-002
          10  -8.5043340077410826E-003
          11 -0.44147732328697059     
          12   9.4321970740249405E-003
          13 -0.19717667559487562     
          14 -0.31670281773654019     
          15 -0.16777568068431548     
          16   3.6373728828474269E-002
          17   8.1096914946880094E-002
Sym=     7a
Ene=  -0.43860361122006192     
Spin= Alpha
Occup=     2.00000000
           1   8.8141045238575341E-002
           2   8.2387417813795438E-002
           3  -6.6245644340918106E-002
           4  -6.7473193985617755E-003
           5 -0.47996130571392259     
           6 -0.14270857004760926     
           7  0.52963793871580978     
           8   4.7466202266807835E-003
           9  0.23111056019504800     
          10  0.18880165427066004     
          11   2.9831081944635585E-003
          12  -1.9972347757533992E-002
          13 -0.40110290759744710     
          14   1.6783740636914814E-002
          15 -0.46002627515068628     
          16   6.7937339960781364E-003
          17  -7.9466181665347094E-002
Sym=     8a
Ene=  -0.40870898014501750     
Spin= Alpha
Occup=     1.99999995
           1  0.11774258225359323     
           2  0.14929424952320811     
           3   7.4177045038582065E-002
           4  -1.5109700676850159E-002
           5   7.2516900481679428E-002
           6 -0.13594413605297501     
           7 -0.21965273664938220     
           8   1.8377816207410736E-002
           9  0.57510165336983932     
          10  0.64562969325669317     
          11  -4.5259085847542548E-002
          12  -6.7851102495919469E-002
          13   4.2632692151682854E-002
          14 -0.21535188596142524     
          15  0.24404481449330942     
          16   1.6819146593078052E-002
          17 -0.12727800181643292     
Sym=     9a
Ene=  -0.37669782725733603     
Spin= Alpha
Occup=     1.00000005
           1  -3.0817743409799120E-005
           2  -5.9457815116928020E-002
           3  -1.1276984862630629E-002
           4 -0.58773105156313488     
           5  -2.5920151074443115E-004
           6  -2.6053307293055494E-002
           7  -4.5263696380138732E-003
           8 -0.24730145621152280     
           9   1.0448329764974128E-003
          10   6.7043370172617939E-002
          11   1.1345482111214217E-002
          12  0.62443903684552726     
          13   3.9254040259709458E-004
          14   4.5254777646779730E-002
          15   8.9647611228795207E-003
          16  0.44219174842585968     
          17  -1.4204473786165044E-004
Sym=    10a
Ene=  -0.31829397489319949     
Spin= Alpha
Occup=     0.00000000
           1  -1.8081690181425452E-004
           2  -4.0071935303777249E-002
           3  -6.0479626843428841E-003
           4 -0.39566101949408222     
           5   8.7418013074245854E-004
           6   7.8929711690252438E-002
           7   1.3245552064725755E-002
           8  0.76504587242338984     
           9   4.9250838466867928E-005
          10   3.2751087657864983E-002
          11   7.5183801361753009E-003
          12  0.30797006052717274     
          13  -1.0627674214800991E-003
          14  -5.7949144548726447E-002
          15  -1.2079075810848055E-002
          16 -0.55920858756486336     
          17   1.6738312592281287E-004
Sym=    11a
Ene=  -0.26612243250731227     
Spin= Alpha
Occup=     0.00000000
           1  -2.6463605925681904E-002
           2  -4.3245428065155390E-002
           3 -0.49461421448602311     
           4   1.2770232734164359E-002
           5 -0.18204123955555906     
           6   4.4766175270237060E-002
           7  0.50556292377339640     
           8  -1.1369395837634577E-002
           9   8.5923161662288770E-003
          10  -3.0508348731432822E-002
          11 -0.57004504402623590     
          12   1.4117663400894783E-002
          13  0.24773517821663843     
          14  -3.9695824561861048E-002
          15  0.58771000616160851     
          16  -8.8472760286544567E-003
          17   8.0665093611897859E-003
Sym=    12a
Ene=  -0.19541217997705915     
Spin= Alpha
Occup=     0.00000000
           1  -1.2705409968768902E-003
           2  -5.8139441016727141E-002
           3  -1.0739443441796335E-002
           4 -0.57077748058677313     
           5   4.7026611292105581E-004
           6   4.7509605114420005E-002
           7   8.9107438353761871E-003
           8  0.45979118165972765     
           9  -2.6692880909382878E-005
          10  -7.2467553567051035E-002
          11  -1.2724574818171562E-002
          12 -0.70284995504053593     
          13   3.7615455694940789E-004
          14   6.2160551755069161E-002
          15   1.0760150299295120E-002
          16  0.60194265894786325     
          17   1.1409316477261841E-003
Sym=    13a
Ene=    1.9869917069549079E-002
Spin= Alpha
Occup=     0.00000000
           1  0.31340317962057207     
           2 -0.13709508258855316     
           3   7.7579286692089341E-002
           4   1.1507419990343314E-002
           5 -0.54744620993938775     
           6 -0.53473880063677071     
           7 -0.60181696218788439     
           8   6.7689227558409434E-002
           9  0.29720309436853026     
          10 -0.43663207411354660     
          11 -0.62699328934607290     
          12   5.7024385246247505E-002
          13  0.18352618078250996     
          14  0.13924189142543075     
          15 -0.23709924470901156     
          16  -9.4920013749377509E-003
          17 -0.38619271864867172     
Sym=    14a
Ene=    7.9057292104501242E-002
Spin= Alpha
Occup=     0.00000000
           1 -0.97322962495517396     
           2  0.18411477342413496     
           3 -0.23937324516381900     
           4  -1.2958197078317290E-002
           5 -0.11840336810553086     
           6 -0.31084117034862047     
           7 -0.16807680496071478     
           8   3.4692382211305627E-002
           9   1.9060865317537586E-002
          10  0.13279161120231517     
          11 -0.17559948223377786     
          12  -9.9027507021704261E-003
          13  0.49702737370293887     
          14 -0.31215029660790855     
          15 -0.45105942651286945     
          16   3.9791500124790623E-002
          17  0.80212108731164822     
Sym=    15a
Ene=   0.17939103276931956     
Spin= Alpha
Occup=     0.00000000
           1  0.30635492722167956     
           2 -0.30073699210740373     
           3 -0.79622933902414150     
           4   4.5361427765003300E-002
           5 -0.36609654326496344     
           6  0.64273576938055266     
           7 -0.30979366700711303     
           8  -6.0338752416182848E-002
           9  -5.6828321532772725E-003
          10   5.6984233231102292E-002
          11  0.32175731813274633     
          12  -1.2023793426071842E-002
          13  0.38884873105438689     
          14 -0.58674675481923666     
          15 -0.37321144582259652     
          16   6.7697585660718915E-002
          17 -0.39544975139633887     
Sym=    16a
Ene=   0.42523016645342637     
Spin= Alpha
Occup=     0.00000000
           1 -0.28320359128592032     
           2  -4.6645661819679336E-002
           3  -5.1741562212824811E-002
           4   5.5148062780919624E-003
           5   1.2463968531155140E-002
           6 -0.26567812370012639     
           7   6.5046392399707387E-002
           8   2.6439639619943955E-002
           9  0.77821789422802401     
          10 -0.82197487544368253     
          11  0.40622283246889512     
          12   7.8353432718653346E-002
          13 -0.62087895756615685     
          14 -0.86212720803639686     
          15  0.42368172194417553     
          16   8.1993226880820877E-002
          17   6.8838780706588498E-002
Sym=    17a
Ene=   0.61461877178822277     
Spin= Alpha
Occup=     0.00000000
           1 -0.39526755626108973     
           2  -1.2485913802077415     
           3  0.23658772049195437     
           4  0.12308646455920848     
           5  0.63715905197861478     
           6 -0.51572864858621259     
           7  0.45446022277160797     
           8   4.4466063933059921E-002
           9  -5.7710706440284122E-002
          10  0.18627328765571904     
          11  -1.2251415537922699E-002
          12  -1.9060687031652659E-002
          13  0.37507268582426534     
          14 -0.25129045404755784     
          15 -0.24224030600563462     
          16   3.0308999790893739E-002
          17 -0.71077955896686729     
