[Molden Format]
[Title]
[Atoms] AU
O      1     8  0.20508787942864E-02  0.10734572384574E+01 -0.18806756356471E-05
C      2     6 -0.18027197167650E+01 -0.53328551370356E+00  0.72234444436209E-05
C      3     6  0.18006688379608E+01 -0.54017361447983E+00 -0.53427655097640E-05
[GTO]
           1 0
 s           4   1.0000000000000000     
   69.137961906196551      -0.20478756370077797     
   11.906129132707308      -0.24997023136827334     
  0.95670827744340703       0.40025880240639616     
  0.36462520496073686       0.15952206667693555     
 p           4   1.0000000000000000     
   8.2124193257781641        1.1321556799186829     
   2.1293576997098116        1.0476840782254817     
  0.75066448202360914       0.54956508217158984     
  0.29885246543283073        8.2908486592766617E-002

           2 0
 s           4   1.0000000000000000     
   51.049363095579913      -0.16312063210127389     
   8.7911227406887544      -0.19911024581000730     
  0.70640422258929825       0.31882047753655751     
  0.26922813413411617       0.12706504184240380     
 p           4   1.0000000000000000     
   5.8263656140800002       0.73716451545209605     
   1.5106896018720002       0.68216371614850257     
  0.53256483288000001       0.35783053929253711     
  0.21202323690600003        5.3983030275847881E-002

           3 0
 s           4   1.0000000000000000     
   51.049363095579913      -0.16312063210127389     
   8.7911227406887544      -0.19911024581000730     
  0.70640422258929825       0.31882047753655751     
  0.26922813413411617       0.12706504184240380     
 p           4   1.0000000000000000     
   5.8263656140800002       0.73716451545209605     
   1.5106896018720002       0.68216371614850257     
  0.53256483288000001       0.35783053929253711     
  0.21202323690600003        5.3983030275847881E-002

[MO]
Sym=     1a
Ene=  -0.83189783637106429     
Spin= Alpha
Occup=     2.00000000
           1  0.66721208726239223     
           2  -3.7718363297714017E-004
           3 -0.19735306469571332     
           4   3.5694143468807025E-007
           5  0.21856471689193943     
           6  0.12319167468367420     
           7   7.6722648361640416E-002
           8  -5.6575460501802467E-007
           9  0.21856473316993882     
          10 -0.12289751006657468     
          11   7.7192987674676750E-002
          12   2.9830352291111293E-007
Sym=     2a
Ene=  -0.73945630569001342     
Spin= Alpha
Occup=     2.00000000
           1  -4.0348644833566809E-007
           2  0.64131912559684245     
           3  -1.2260601552917388E-003
           4  -2.2214508418930799E-006
           5 -0.34878240748050165     
           6  -2.8451197936936935E-002
           7 -0.15926372214092235     
           8   3.8502346419071991E-007
           9  0.34878321128904805     
          10  -2.7842574674683773E-002
          11  0.15937124425252169     
          12  -1.7342266640224293E-007
Sym=     3a
Ene=  -0.68819107600876539     
Spin= Alpha
Occup=     2.00000000
           1 -0.54406250565676950     
           2  -1.2460060441612118E-003
           3 -0.65157204547632086     
           4   1.1018589078074673E-006
           5  0.24812164840422149     
           6  0.10146107861380821     
           7 -0.13202210259792352     
           8  -1.3714793129465586E-007
           9  0.24812135001680286     
          10 -0.10196499864235122     
          11 -0.13163355330887744     
          12   5.7593492394838299E-007
Sym=     4a
Ene=  -0.65175199629686686     
Spin= Alpha
Occup=     2.00000000
           1  -3.0350155389873295E-008
           2   2.8066104816085243E-006
           3   1.3812383485621639E-006
           4  0.80848418332645267     
           5   1.3646554400855654E-008
           6   9.9541947190071031E-007
           7   4.9082992747293127E-007
           8  0.28498518385031968     
           9   2.1824905309769426E-009
          10   9.9030437368710820E-007
          11   4.8548671268622737E-007
          12  0.28498503382410945     
Sym=     5a
Ene=  -0.51028708363642838     
Spin= Alpha
Occup=     2.00000000
           1   5.6492786816068700E-005
           2  0.29137677444358745     
           3  -1.5585582410181471E-003
           4  -1.0111050323242927E-006
           5  0.51919947438297187     
           6 -0.28045637834758930     
           7 -0.33747779398140426     
           8   1.5655588078847262E-006
           9 -0.52287513167229571     
          10 -0.28179792372935231     
          11  0.33925479916286910     
          12   3.8700507843570174E-007
Sym=     6a
Ene=  -0.51020871354793385     
Spin= Alpha
Occup=     2.00000000
           1   1.6945442664450312E-002
           2  -1.5455760006050916E-003
           3 -0.30010716262840775     
           4   5.2800825136191212E-007
           5 -0.55249698274874381     
           6  0.39602128683356808     
           7  0.10556579732670283     
           8  -1.5580440924222277E-006
           9 -0.54901991244632431     
          10 -0.39374292121556664     
          11  0.10481648650194453     
          12   1.1843587041635792E-006
Sym=     7a
Ene=  -0.41131890139987198     
Spin= Alpha
Occup=     1.00000000
           1  0.20365754981313469     
           2   7.6339994458182530E-004
           3  0.39906496913299960     
           4  -6.9311975540577776E-007
           5   2.1580354977319381E-002
           6  0.28860683379085472     
           7 -0.58524002581609003     
           8   2.1921440727127012E-008
           9   2.1580017434387144E-002
          10 -0.29084497335289539     
          11 -0.58413513596538902     
          12   2.0121584297678810E-006
Sym=     8a
Ene=  -0.38527698044142944     
Spin= Alpha
Occup=     1.00000000
           1  -1.2035267257905790E-009
           2  -5.2127185735978314E-009
           3  -9.1406946699339841E-009
           4   2.5993746062808855E-006
           5   4.5716397197513811E-009
           6   2.5466445611391926E-006
           7   1.2814611754343284E-006
           8  0.73117291786264793     
           9   7.5459903667888047E-009
          10  -2.5365218141380214E-006
          11  -1.2612414398638497E-006
          12 -0.73117904386477084     
Sym=     9a
Ene=  -0.31217315244386756     
Spin= Alpha
Occup=     0.00000000
           1  -4.8683012209912509E-009
           2   2.2512205533882791E-006
           3   1.1207210593906323E-006
           4  0.64620724408463048     
           5  -1.1824586198844682E-009
           6  -2.2478511606392490E-006
           7  -1.1408845082681758E-006
           8 -0.64948414084678618     
           9  -2.0519599275697044E-009
          10  -2.2405217225402234E-006
          11  -1.1137631241489953E-006
          12 -0.64947714783638388     
Sym=    10a
Ene=  -0.30334974939806886     
Spin= Alpha
Occup=     0.00000000
           1   8.4512671013766443E-007
           2 -0.18645780642924731     
           3   3.5732429978344900E-004
           4   6.2999937716670886E-007
           5   9.5955142378416194E-002
           6  0.61437232318633073     
           7 -0.47249190422120940     
           8  -1.3052212082746776E-006
           9  -9.5955602509763677E-002
          10  0.61617257325006658     
          11  0.47013649195181079     
          12  -2.9414177995807074E-006
Sym=    11a
Ene=   0.26228221795749401     
Spin= Alpha
Occup=     0.00000000
           1  0.90220738687955826     
           2  -1.2366322160066471E-003
           3 -0.76691042170992330     
           4   1.3396576215980658E-006
           5 -0.42794828867700568     
           6 -0.54597071553195076     
           7 -0.43230382150644664     
           8   2.6594794246583632E-006
           9 -0.42819991632601356     
          10  0.54454880838813946     
          11 -0.43464154384752074     
          12  -1.1399794890318672E-006
Sym=    12a
Ene=   0.26942560709376101     
Spin= Alpha
Occup=     0.00000000
           1  -2.1799781103575648E-004
           2  0.95441844646698204     
           3  -1.6395171087823341E-003
           4  -3.3276225548964255E-006
           5  0.52647986273957748     
           6  0.49240588402473540     
           7  0.52693600961902187     
           8  -2.6336936331603526E-006
           9 -0.52627291354965333     
          10  0.49012668222221345     
          11 -0.52860486451134969     
          12  -7.8932382592011721E-007
