 Entering Gaussian System
 *********************************************
 Gaussian 98:
 frequency output generated by the xtb code
 *********************************************
                         Standard orientation:
 --------------------------------------------------------------------
  Center     Atomic     Atomic              Coordinates (Angstroms)
  Number     Number      Type              X           Y           Z
 --------------------------------------------------------------------
    1          8             0        0.001085    0.568049   -0.000001
    2          6             0       -0.953958   -0.282203    0.000004
    3          6             0        0.952873   -0.285848   -0.000003
 --------------------------------------------------------------------
     1 basis functions        1 primitive gaussians
     1 alpha electrons        1 beta electrons

 Harmonic frequencies (cm**-1), IR intensities (KM/Mole),
 Raman scattering activities (A**4/amu), Raman depolarization ratios,
 reduced masses (AMU), force constants (mDyne/A) and normal coordinates:
                      1                      2                      3
                        a                      a                      a 
 Frequencies --   493.3818               928.9489              1426.4979
 Red. masses --    12.8671                13.8254                13.5485
 Frc consts  --     0.0000                 0.0000                 0.0000
 IR Inten    --     0.3020                 1.1401                 0.4565
 Raman Activ --     0.0000                 0.0000                 0.0000
 Depolar     --     0.0000                 0.0000                 0.0000
 Atom AN      X      Y      Z        X      Y      Z        X      Y      Z
   1   8     0.00   0.46  -0.00     0.67  -0.00  -0.00    -0.00  -0.62   0.00
   2   6     0.57  -0.27  -0.00    -0.39  -0.35   0.00     0.42   0.36  -0.00
   3   6    -0.57  -0.27   0.00    -0.39   0.35   0.00    -0.42   0.36   0.00
