      -----------------------------------------------------------      
     |                   =====================                   |     
     |                           x T B                           |     
     |                   =====================                   |     
     |                         S. Grimme                         |     
     |          Mulliken Center for Theoretical Chemistry        |     
     |                    University of Bonn                     |     
      -----------------------------------------------------------      

   * xtb version 6.2.2 (9d81278992624c895f80dd42a50cac0aa55982e2) compiled by '@Darwin' on 04/03/2020

   xtb is free software: you can redistribute it and/or modify it under
   the terms of the GNU Lesser General Public License as published by
   the Free Software Foundation, either version 3 of the License, or
   (at your option) any later version.
   
   xtb is distributed in the hope that it will be useful,
   but WITHOUT ANY WARRANTY; without even the implied warranty of
   MERCHANTABILITY or FITNESS FOR A PARTICULAR PURPOSE.  See the
   GNU Lesser General Public License for more details.
   
   Cite this work as:
   * S. Grimme, C. Bannwarth, P. Shushkov, J. Chem. Theory Comput., 2017,
     13, 1989-2009. DOI: 10.1021/acs.jctc.7b00118
   * C. Bannwarth, S. Ehlert and S. Grimme., J. Chem. Theory Comput., 2019,
     15, 1652-1671. DOI: 10.1021/acs.jctc.8b01176
   * P. Pracht, E. Caldeweyher, S. Ehlert, S. Grimme, ChemRxiv, 2019, preprint.
     DOI: 10.26434/chemrxiv.8326202.v1
   
   for DFT-D4:
   * E. Caldeweyher, C. Bannwarth and S. Grimme, J. Chem. Phys., 2017,
     147, 034112. DOI: 10.1063/1.4993215
   * E. Caldeweyher, S. Ehlert, A. Hansen, H. Neugebauer, S. Spicher,
     C. Bannwarth and S. Grimme, J. Chem. Phys., 2019, 150, 154122.
     DOI: 10.1063/1.5090222
   
   for sTDA-xTB:
   * S. Grimme and C. Bannwarth, J. Chem. Phys., 2016, 145, 054103.
     DOI: 10.1063/1.4959605
   
   in the mass-spec context:
   * V. Asgeirsson, C. Bauer and S. Grimme, Chem. Sci., 2017, 8, 4879.
     DOI: 10.1039/c7sc00601b
   
   for metadynamics refer to:
   * S. Grimme, J. Chem. Theory Comput., 2019, 155, 2847-2862
     DOI: 10.1021/acs.jctc.9b00143
   
   with help from (in alphabetical order)
   C. Bannwarth, F. Bohle, G. Brandenburg, E. Caldeweyher, M. Checinski,
   S. Dohm, S. Ehlert, S. Ehrlich, F. März, H. Neugebauer, J. Pisarek,
   P. Pracht, P. Shushkov, and S. Spicher.
   
 * started run on 2020/05/12 at 11:43:50.798     

           -------------------------------------------------
          |                Calculation Setup                |
           -------------------------------------------------

          program call               : xtb --input C2O1_1_S_2.input C2O1_1_S_2.xyz --ohess --molden --namespace C2O1_1_S_2 output.out
          calculation namespace      : C2O1_1_S_2
          coordinate file            : C2O1_1_S_2.xyz
          number of atoms            :                     3
          number of electrons        :                    14
          charge                     :                     0
          spin                       :                   1.0
          first test random number   :      0.62733295605452

   ID    Z sym.   atoms
    1    8 O      1
    2    6 C      2, 3

           -------------------------------------------------
          |                 G F N 2 - x T B                 |
           -------------------------------------------------

        Reference                      10.1021/acs.jctc.8b01176
      * Hamiltonian:
        H0-scaling (s, p, d)           1.850000    2.230000    2.230000
        zeta-weighting                 0.500000
      * Dispersion:
        s8                             2.700000
        a1                             0.520000
        a2                             5.000000
        s9                             5.000000
      * Repulsion:
        kExp                           1.500000    1.000000
        rExp                           1.000000
      * Coulomb:
        alpha                          2.000000
        third order                    shell-resolved
        anisotropic                    true
        a3                             3.000000
        a5                             4.000000
        cn-shift                       1.200000
        cn-exp                         4.000000
        max-rad                        5.000000


          ...................................................
          :                      SETUP                      :
          :.................................................:
          :  # basis functions                  12          :
          :  # atomic orbitals                  12          :
          :  # shells                            6          :
          :  # electrons                        14          :
          :  max. iterations                   250          :
          :  Hamiltonian                  GFN2-xTB          :
          :  restarted?                      false          :
          :  GBSA solvation                  false          :
          :  PC potential                    false          :
          :  electronic temp.          300.0000000     K    :
          :  accuracy                    1.0000000          :
          :  -> integral cutoff          0.2500000E+02      :
          :  -> integral neglect         0.1000000E-07      :
          :  -> SCF convergence          0.1000000E-05 Eh   :
          :  -> wf. convergence          0.1000000E-03 e    :
          :  Broyden damping             0.4000000          :
          ...................................................

 iter      E             dE          RMSdq      gap      omega  full diag
   1     -7.9765691 -0.797657E+01  0.102E+01    1.05       0.0  T
   2     -7.9766124 -0.432920E-04  0.615E+00    1.05       1.0  T
   3     -7.9754881  0.112425E-02  0.131E+00    1.06       1.0  T
   4     -7.9775463 -0.205815E-02  0.936E-01    1.06       1.0  T
   5     -7.9739648  0.358154E-02  0.157E+00    1.06       1.0  T
   6     -7.9778624 -0.389764E-02  0.535E-01    1.06       1.0  T
   7     -7.9789783 -0.111588E-02  0.243E-01    1.06       1.0  T
   8     -7.9790891 -0.110807E-03  0.953E-02    1.06       1.0  T
   9     -7.9791087 -0.196556E-04  0.168E-02    1.06       3.4  T
  10     -7.9791093 -0.542483E-06  0.532E-03    1.06      10.9  T
  11     -7.9791093 -0.585511E-07  0.787E-04    1.06      73.4  T
  12     -7.9791093 -0.133427E-08  0.573E-05    1.06    1008.1  T

   *** convergence criteria satisfied after 12 iterations ***

         #    Occupation            Energy/Eh            Energy/eV
      -------------------------------------------------------------
         1        2.0000           -0.8102127             -22.0470
         2        2.0000           -0.7330926             -19.9485
         3        2.0000           -0.6731192             -18.3165
         4        2.0000           -0.6264096             -17.0455
         5        2.0000           -0.5436967             -14.7947
         6        2.0000           -0.5386817             -14.6583
         7        1.0000           -0.4216307             -11.4732
         8        1.0000           -0.4183812             -11.3847 (HOMO)
         9                         -0.3795802             -10.3289 (LUMO)
        10                         -0.3563169              -9.6959
        11                          0.0019234               0.0523
        12                          0.0651820               1.7737
      -------------------------------------------------------------
                  HL-Gap            0.0388010 Eh            1.0558 eV
             Fermi-level           -0.4395608 Eh          -11.9611 eV

 transition dipole moment (au) for excitation:           7           8
     X       Y       Z   
  -0.0000   0.0000   0.0000  total (au/Debye):    0.000   0.000
 dE (eV)             :    0.088
 oscillator strength :  0.77268E-18

 SCC (total)                   0 d,  0 h,  0 min,  0.002 sec
 SCC setup                      ...        0 min,  0.000 sec (  3.008%)
 Dispersion                     ...        0 min,  0.000 sec (  0.388%)
 integral evaluation            ...        0 min,  0.000 sec ( 22.327%)
 zeroth order Hamiltonian       ...        0 min,  0.000 sec (  0.400%)
 iterations                     ...        0 min,  0.001 sec ( 31.739%)
 molecular gradient             ...        0 min,  0.000 sec ( 21.974%)
 printout                       ...        0 min,  0.000 sec ( 19.718%)

         :::::::::::::::::::::::::::::::::::::::::::::::::::::
         ::                     SUMMARY                     ::
         :::::::::::::::::::::::::::::::::::::::::::::::::::::
         :: total energy              -7.962507851524 Eh    ::
         :: gradient norm              0.160455864311 Eh/a0 ::
         :: HOMO-LUMO gap              1.055828891708 eV    ::
         ::.................................................::
         :: SCC energy                -7.979109335188 Eh    ::
         :: -> isotropic ES           -0.024256148291 Eh    ::
         :: -> anisotropic ES          0.002099102381 Eh    ::
         :: -> anisotropic XC          0.000378235290 Eh    ::
         :: -> dispersion             -0.000876495078 Eh    ::
         :: repulsion energy           0.016601482780 Eh    ::
         :: add. restraining           0.000000000000 Eh    ::
         :::::::::::::::::::::::::::::::::::::::::::::::::::::

      ----------------------------------------------------------- 
     |                   =====================                   |
     |                        A N C O P T                        |
     |                   =====================                   |
     |               Approximate Normal Coordinate               |
     |                Rational Function Optimizer                |
      ----------------------------------------------------------- 

          ...................................................
          :                      SETUP                      :
          :.................................................:
          :   optimization level            normal          :
          :   max. optcycles                   200          :
          :   ANC micro-cycles                  20          :
          :   degrees of freedom                 3          :
          :.................................................:
          :   RF solver                   davidson          :
          :   write xtbopt.log                true          :
          :   linear?                        false          :
          :   energy convergence         0.5000000E-05 Eh   :
          :   grad. convergence          0.1000000E-02 Eh/α :
          :   maximium RF displ.         1.0000000          :
          :   Hlow (freq-cutoff)         0.1000000E-01      :
          :   Hmax (freq-cutoff)         5.0000000          :
          :   S6 in model hess.         20.0000000          :
          ...................................................

generating ANC from model Hessian ...
Using Lindh-Hessian (1995)
 Shifting diagonal of input Hessian by    0.0000000000000000     
 Lowest  eigenvalues of input Hessian
   -0.000000   -0.000000   -0.000000    0.000000    0.000000    0.000000
    0.176131    1.075026    1.298090
 Highest eigenvalues
    0.000000    0.000000    0.000000    0.176131    1.075026    1.298090


........................................................................
.............................. CYCLE    1 ..............................
........................................................................
   1     -7.9791093 -0.797911E+01  0.191E-05    1.06       0.0  T
   2     -7.9791093 -0.809131E-12  0.106E-05    1.06    5470.2  T
   3     -7.9791093  0.754952E-13  0.751E-06    1.06    7686.1  T
     SCC iter.                  ...        0 min,  0.000 sec
     gradient                   ...        0 min,  0.000 sec
 * total energy  :    -7.9625079 Eh     change        0.2326521E-09 Eh
   gradient norm :     0.1604568 Eh/α   predicted     0.0000000E+00 (-100.00%)
   displ. norm   :     0.2113866 α      lambda       -0.2739181E-01
   maximum displ.:     0.1559765 α      in ANC's #1, #2, #3, ...

........................................................................
.............................. CYCLE    2 ..............................
........................................................................
   1     -8.0103710 -0.801037E+01  0.156E+00    1.54       0.0  T
   2     -8.0137404 -0.336942E-02  0.810E-01    1.53       1.0  T
   3     -8.0139937 -0.253309E-03  0.474E-01    1.53       1.0  T
   4     -8.0140016 -0.783302E-05  0.424E-02    1.54       1.4  T
   5     -8.0140015  0.552078E-07  0.195E-02    1.54       3.0  T
   6     -8.0139988  0.275681E-05  0.289E-02    1.54       2.0  T
   7     -8.0140029 -0.412409E-05  0.296E-03    1.54      19.5  T
   8     -8.0140029 -0.717816E-08  0.476E-04    1.54     121.2  T
   9     -8.0140029 -0.472035E-09  0.331E-05    1.54    1742.6  T
     SCC iter.                  ...        0 min,  0.001 sec
     gradient                   ...        0 min,  0.001 sec
 * total energy  :    -7.9833919 Eh     change       -0.2088405E-01 Eh
   gradient norm :     0.0741704 Eh/α   predicted    -0.1430789E-01 ( -31.49%)
   displ. norm   :     0.2096661 α      lambda       -0.1198666E-01
   maximum displ.:     0.1703225 α      in ANC's #1, #2, #3, ...

........................................................................
.............................. CYCLE    3 ..............................
........................................................................
   1     -8.0358970 -0.803590E+01  0.148E+00    2.28       0.0  T
   2     -8.0382303 -0.233326E-02  0.742E-01    2.18       1.0  T
   3     -8.0383054 -0.750786E-04  0.440E-01    2.20       1.0  T
   4     -8.0383130 -0.758598E-05  0.297E-02    2.20       1.9  T
   5     -8.0383131 -0.139431E-06  0.103E-02    2.20       5.6  T
   6     -8.0383132 -0.120892E-06  0.539E-03    2.20      10.7  T
   7     -8.0383133 -0.908587E-07  0.294E-03    2.20      19.6  T
   8     -8.0383133 -0.190311E-07  0.259E-04    2.20     222.9  T
   9     -8.0383133 -0.132378E-09  0.195E-05    2.20    2965.1  T
     SCC iter.                  ...        0 min,  0.000 sec
     gradient                   ...        0 min,  0.000 sec
 * total energy  :    -7.9870746 Eh     change       -0.3682666E-02 Eh
   gradient norm :     0.0472451 Eh/α   predicted    -0.6256798E-02 (  69.90%)
   displ. norm   :     0.0487448 α      lambda       -0.2151890E-02
   maximum displ.:     0.0455712 α      in ANC's #2, #1, #3, ...

........................................................................
.............................. CYCLE    4 ..............................
........................................................................
   1     -8.0302248 -0.803022E+01  0.483E-01    1.98       0.0  T
   2     -8.0305308 -0.306022E-03  0.232E-01    2.03       1.0  T
   3     -8.0305410 -0.102033E-04  0.139E-01    2.02       1.0  T
   4     -8.0305420 -0.101390E-05  0.105E-02    2.02       5.5  T
   5     -8.0305420 -0.833241E-08  0.295E-03    2.02      19.6  T
   6     -8.0305420  0.987494E-08  0.235E-03    2.02      24.6  T
   7     -8.0305420 -0.205592E-07  0.100E-03    2.02      57.7  T
   8     -8.0305420 -0.205605E-08  0.282E-05    2.02    2046.4  T
   9     -8.0305420 -0.298428E-12  0.134E-05    2.02    4300.2  T
     SCC iter.                  ...        0 min,  0.000 sec
     gradient                   ...        0 min,  0.000 sec
 * total energy  :    -7.9880273 Eh     change       -0.9526994E-03 Eh
   gradient norm :     0.0039328 Eh/α   predicted    -0.1078500E-02 (  13.20%)
   displ. norm   :     0.0142222 α      lambda       -0.3981475E-04
   maximum displ.:     0.0138694 α      in ANC's #1, #2, #3, ...

........................................................................
.............................. CYCLE    5 ..............................
........................................................................
   1     -8.0311423 -0.803114E+01  0.798E-02    2.01       0.0  T
   2     -8.0311441 -0.176207E-05  0.459E-02    2.00       1.3  T
   3     -8.0311441 -0.369402E-07  0.188E-02    2.00       3.1  T
   4     -8.0311442 -0.478942E-07  0.112E-03    2.00      51.6  T
   5     -8.0311441  0.433055E-08  0.972E-04    2.00      59.4  T
   6     -8.0311442 -0.442640E-08  0.979E-05    2.00     589.5  T
     SCC iter.                  ...        0 min,  0.000 sec
     gradient                   ...        0 min,  0.001 sec
 * total energy  :    -7.9880509 Eh     change       -0.2365905E-04 Eh
   gradient norm :     0.0005237 Eh/α   predicted    -0.1991051E-04 ( -15.84%)
   displ. norm   :     0.0063807 α      lambda       -0.2207991E-05
   maximum displ.:     0.0063740 α      in ANC's #1, #2, #3, ...

........................................................................
.............................. CYCLE    6 ..............................
........................................................................
   1     -8.0312069 -0.803121E+01  0.352E-02    1.99       0.0  T
   2     -8.0312070 -0.289208E-07  0.213E-02    1.99       2.7  T
   3     -8.0312070 -0.280325E-09  0.198E-03    1.99      29.2  T
   4     -8.0312070  0.317595E-08  0.130E-03    1.99      44.3  T
   5     -8.0312070 -0.603725E-08  0.606E-04    1.99      95.2  T
   6     -8.0312070 -0.919739E-09  0.195E-05    1.99    2963.4  T
     SCC iter.                  ...        0 min,  0.000 sec
     gradient                   ...        0 min,  0.001 sec
 * total energy  :    -7.9880518 Eh     change       -0.8933542E-06 Eh
   gradient norm :     0.0002998 Eh/α   predicted    -0.1103690E-05 (  23.54%)
   displ. norm   :     0.0019770 α      lambda       -0.3294059E-06
   maximum displ.:     0.0019646 α      in ANC's #1, #2, #3, ...

   *** GEOMETRY OPTIMIZATION CONVERGED AFTER 6 ITERATIONS ***

------------------------------------------------------------------------
 total energy gain   :        -0.0255440 Eh      -16.0291 kcal/mol
 total RMSD          :         0.2295255 a0        0.1215 Å
 total power (kW/mol):       -11.1776127 (step)-6623.0419 (real)
------------------------------------------------------------------------

 ANCopt (total)                0 d,  0 h,  0 min,  0.010 sec
 optimizer setup                ...        0 min,  0.000 sec (  0.704%)
 model hessian                  ...        0 min,  0.000 sec (  0.534%)
 ANC generation                 ...        0 min,  0.000 sec (  0.315%)
 coordinate transformation      ...        0 min,  0.000 sec (  0.120%)
 single point calculation       ...        0 min,  0.009 sec ( 92.588%)
 optimization log               ...        0 min,  0.000 sec (  1.828%)
 hessian update                 ...        0 min,  0.000 sec (  0.108%)
 rational function              ...        0 min,  0.000 sec (  1.212%)

================
 final structure:
================
3
 xtb: 6.2.2 (9d81278992624c895f80dd42a50cac0aa55982e2)
O         0.00108230412596    0.56804916584966    0.00000000000000
C        -0.95395680265093   -0.28220756184978    0.00000000000000
C         0.95287449852497   -0.28584260399988    0.00000000000000

 Bond Distances (Angstroems)
 ---------------------------
O1-C2=1.2787         O1-C3=1.2787         C2-O1=1.2787         C2-C3=1.9068         C3-O1=1.2787         C3-C2=1.9068         
 C  C  Rav=1.9068 sigma=0.0000  Rmin=1.9068  Rmax=1.9068     1
 O  C  Rav=1.2787 sigma=0.0000  Rmin=1.2787  Rmax=1.2787     2

 selected bond angles (degree)
 --------------------
C3-O1-C2= 96.43                C3-C2-O1= 41.79                C2-C3-O1= 41.79                

 selected dihedral angles (degree)
 ---------------------------------

           -------------------------------------------------
          |                Final Singlepoint                |
           -------------------------------------------------

          ...................................................
          :                      SETUP                      :
          :.................................................:
          :  # basis functions                  12          :
          :  # atomic orbitals                  12          :
          :  # shells                            6          :
          :  # electrons                        14          :
          :  max. iterations                   250          :
          :  Hamiltonian                  GFN2-xTB          :
          :  restarted?                      false          :
          :  GBSA solvation                  false          :
          :  PC potential                    false          :
          :  electronic temp.          300.0000000     K    :
          :  accuracy                    1.0000000          :
          :  -> integral cutoff          0.2500000E+02      :
          :  -> integral neglect         0.1000000E-07      :
          :  -> SCF convergence          0.1000000E-05 Eh   :
          :  -> wf. convergence          0.1000000E-03 e    :
          :  Broyden damping             0.4000000          :
          ...................................................

 iter      E             dE          RMSdq      gap      omega  full diag
   1     -8.0312070 -0.803121E+01  0.403E-06    1.99       0.0  T
   2     -8.0312070 -0.355271E-14  0.296E-06    1.99   19474.8  T
   3     -8.0312070 -0.532907E-14  0.141E-06    1.99   40815.4  T

   *** convergence criteria satisfied after 3 iterations ***

         #    Occupation            Energy/Eh            Energy/eV
      -------------------------------------------------------------
         1        2.0000           -0.8318978             -22.6371
         2        2.0000           -0.7394563             -20.1216
         3        2.0000           -0.6881911             -18.7266
         4        2.0000           -0.6517520             -17.7351
         5        2.0000           -0.5102871             -13.8856
         6        2.0000           -0.5102087             -13.8835
         7        1.0000           -0.4113189             -11.1926
         8        1.0000           -0.3852770             -10.4839 (HOMO)
         9                         -0.3121731              -8.4947 (LUMO)
        10                         -0.3033497              -8.2546
        11                          0.2622822               7.1371
        12                          0.2694256               7.3314
      -------------------------------------------------------------
                  HL-Gap            0.0731038 Eh            1.9893 eV
             Fermi-level           -0.4047444 Eh          -11.0137 eV

 transition dipole moment (au) for excitation:           7           8
     X       Y       Z   
  -0.0000  -0.0000   0.0000  total (au/Debye):    0.000   0.000
 dE (eV)             :    0.709
 oscillator strength :  0.31311E-16

 SCC (total)                   0 d,  0 h,  0 min,  0.002 sec
 SCC setup                      ...        0 min,  0.000 sec (  4.488%)
 Dispersion                     ...        0 min,  0.000 sec (  0.898%)
 integral evaluation            ...        0 min,  0.001 sec ( 34.900%)
 zeroth order Hamiltonian       ...        0 min,  0.000 sec (  0.280%)
 iterations                     ...        0 min,  0.000 sec ( 17.894%)
 molecular gradient             ...        0 min,  0.001 sec ( 25.557%)
 printout                       ...        0 min,  0.000 sec ( 15.018%)

         :::::::::::::::::::::::::::::::::::::::::::::::::::::
         ::                     SUMMARY                     ::
         :::::::::::::::::::::::::::::::::::::::::::::::::::::
         :: total energy              -7.988051818618 Eh    ::
         :: gradient norm              0.000299834313 Eh/a0 ::
         :: HOMO-LUMO gap              1.989256503737 eV    ::
         ::.................................................::
         :: SCC energy                -8.031206959926 Eh    ::
         :: -> isotropic ES           -0.018107048755 Eh    ::
         :: -> anisotropic ES          0.004442653376 Eh    ::
         :: -> anisotropic XC         -0.001119839145 Eh    ::
         :: -> dispersion             -0.000831618863 Eh    ::
         :: repulsion energy           0.043155140592 Eh    ::
         :: add. restraining           0.000000000000 Eh    ::
         :::::::::::::::::::::::::::::::::::::::::::::::::::::

           ------------------------------------------------- 
          |                Numerical Hessian                |
           ------------------------------------------------- 
step length          :   0.00500
SCC accuracy         :   0.30000
Hessian scale factor :   1.00000
frozen atoms in %    :   0.00000    0
RMS gradient         :   0.00030
estimated CPU  time      0.00 min
estimated wall time      0.00 min

writing file <hessian>.

 projected vibrational frequencies (cm-1)
eigval :       -0.00    -0.00    -0.00    -0.00    -0.00     0.00
eigval :      493.38   928.95  1426.50
           -------------------------------------------------
          |                Property Printout                |
           -------------------------------------------------

    * Orbital Energies and Occupations

         #    Occupation            Energy/Eh            Energy/eV
      -------------------------------------------------------------
         1        2.0000           -0.8318978             -22.6371
         2        2.0000           -0.7394563             -20.1216
         3        2.0000           -0.6881911             -18.7266
         4        2.0000           -0.6517520             -17.7351
         5        2.0000           -0.5102871             -13.8856
         6        2.0000           -0.5102087             -13.8835
         7        1.0000           -0.4113189             -11.1926
         8        1.0000           -0.3852770             -10.4839 (HOMO)
         9                         -0.3121732              -8.4947 (LUMO)
        10                         -0.3033497              -8.2546
        11                          0.2622822               7.1371
        12                          0.2694256               7.3314
      -------------------------------------------------------------
                  HL-Gap            0.0731038 Eh            1.9893 eV
             Fermi-level           -0.4047444 Eh          -11.0137 eV

     #   Z        covCN         q      C6AA      α(0)
     1   8 O      1.710     0.093    13.334     4.930
     2   6 C      1.531    -0.047    34.370     9.632
     3   6 C      1.531    -0.047    34.370     9.632

 Mol. C6AA /au·bohr⁶  :        234.914833
 Mol. C8AA /au·bohr⁸  :       6277.040485
 Mol. α(0) /au        :         24.194398


Wiberg/Mayer (AO) data.
largest (>0.10) Wiberg bond orders for each atom
          total WBO             WBO to atom ...
     1  O   2.684        C    2 1.342    C    3 1.342
     2  C   1.771        O    1 1.342    C    3 0.429
     3  C   1.771        O    1 1.342    C    2 0.429

MOs/occ written to file <molden.input>


molecular dipole:
                 x           y           z       tot (Debye)
 q only:        0.000       0.150      -0.000
   full:        0.001       0.635      -0.000       1.613
molecular quadrupole (traceless):
                xx          xy          yy          xz          yz          zz
 q only:       -0.343       0.001       0.232       0.000      -0.000       0.111
  q+dip:       -3.200       0.008       1.106       0.000       0.000       2.094
   full:       -3.468       0.008       0.780       0.000       0.000       2.688

           -------------------------------------------------
          |                Geometry Summary                 |
           -------------------------------------------------

      molecular mass/u    :       40.0208767
   center of mass at/Å    :        0.0001082       0.0566142      -0.0000001
  moments of inertia/u·Å² :        0.6972256E+01   0.2183563E+02   0.2880789E+02
rotational constants/cm⁻¹ :        0.2417816E+01   0.7720241E+00   0.5851742E+00

 * 2 selected distances

     #   Z        #   Z                                     value/Å
     1   8 O      2   6 C                                 1.2786853 (min)
     1   8 O      3   6 C                                 1.2786866 (max)

 * 1 distinct bonds (by element types)

   Z      Z             #   av. dist./Å        max./Å        min./Å
   6 C    8 O           2     1.2786860     1.2786866     1.2786853

           -------------------------------------------------
          |               Frequency Printout                |
Molecule has the following symmetry elements: (C2) 2*(sigma) 
It seems to be the C2v point group
           -------------------------------------------------
 projected vibrational frequencies (cm-1)
eigval :       -0.00    -0.00    -0.00    -0.00    -0.00     0.00
eigval :      493.38   928.95  1426.50
 reduced masses (amu)
   1: 13.43   2: 12.97   3: 13.06   4: 12.36   5: 16.00   6: 12.01   7: 12.87   8: 13.83
   9: 13.55
 IR intensities (amu)
   1:  0.12   2:  0.24   3:  0.13   4:  0.17   5:  0.39   6:  0.20   7:  0.30   8:  1.14
   9:  0.46
 Raman intensities (amu)
   1:  0.00   2:  0.00   3:  0.00   4:  0.00   5:  0.00   6:  0.00   7:  0.00   8:  0.00
   9:  0.00
 output can be read by thermo (or use thermo option).
 writing <g98.out> molden fake output.
 recommended (thermochemical) frequency scaling factor: 1.0
           -------------------------------------------------
          |             Thermodynamic Functions             |
           -------------------------------------------------

c2v symmetry found (for desy threshold:  0.10E+00) used in thermo

          ...................................................
          :                      SETUP                      :
          :.................................................:
          :  # frequencies                           3      :
          :  # imaginary freq.                       0      :
          :  linear?                             false      :
          :  only rotor calc.                    false      :
          :  symmetry                              c2v      :
          :  rotational number                       2      :
          :  scaling factor                  1.0000000      :
          :  rotor cutoff                   50.0000000 cm⁻¹ :
          :  imag. cutoff                  -20.0000000 cm⁻¹ :
          :.................................................:

    mode    ω/cm⁻¹     T·S(HO)/kcal·mol⁻¹    T·S(FR)/kcal·mol⁻¹   T·S(vib)
   ------------------------------------------------------------------------
   ------------------------------------------------------------------------

   temp. (K)  partition function   enthalpy   heat capacity  entropy
                                   cal/mol     cal/K/mol   cal/K/mol   J/K/mol
 298.15  VIB   1.12                  178.275      1.823      0.815
         ROT  0.253E+04              888.752      2.981     18.553
         INT  0.282E+04             1067.027      4.804     19.368
         TR   0.245E+27             1481.254      4.968     36.972
         TOT                        2548.2814     9.7721    56.3396   235.7248

   temp. (K)  partition function   enthalpy   heat capacity  entropy
                                   cal/mol     cal/K/mol   cal/K/mol   J/K/mol
 120.00  VIB   1.00                    3.854      0.192      0.038
         ROT   646.                  357.707      2.981     15.840
         INT   648.                  361.561      3.173     15.877
         TR   0.625E+26              596.178      4.968     32.452
         TOT                         957.7387     8.1412    48.3294   202.2103

   temp. (K)  partition function   enthalpy   heat capacity  entropy
                                   cal/mol     cal/K/mol   cal/K/mol   J/K/mol
 100.00  VIB   1.00                    1.171      0.083      0.013
         ROT   491.                  298.089      2.981     15.296
         INT   492.                  299.260      3.064     15.310
         TR   0.476E+26              496.815      4.968     31.547
         TOT                         796.0747     8.0325    46.8564   196.0472

   temp. (K)  partition function   enthalpy   heat capacity  entropy
                                   cal/mol     cal/K/mol   cal/K/mol   J/K/mol
  80.00  VIB   1.00                    0.198      0.022      0.003
         ROT   352.                  238.471      2.981     14.631
         INT   352.                  238.669      3.003     14.634
         TR   0.340E+26              397.452      4.968     30.439
         TOT                         636.1210     7.9710    45.0725   188.5835

   temp. (K)  partition function   enthalpy   heat capacity  entropy
                                   cal/mol     cal/K/mol   cal/K/mol   J/K/mol
  60.00  VIB   1.00                    0.010      0.002      0.000
         ROT   228.                  178.853      2.981     13.774
         INT   228.                  178.864      2.983     13.774
         TR   0.221E+26              298.089      4.968     29.010
         TOT                         476.9527     7.9511    42.7839   179.0076

   temp. (K)  partition function   enthalpy   heat capacity  entropy
                                   cal/mol     cal/K/mol   cal/K/mol   J/K/mol
  40.00  VIB   1.00                    0.000      0.000     -0.000
         ROT   124.                  119.236      2.981     12.565
         INT   124.                  119.236      2.981     12.565
         TR   0.120E+26              198.726      4.968     26.997
         TOT                         317.9616     7.9491    39.5615   165.5255

   temp. (K)  partition function   enthalpy   heat capacity  entropy
                                   cal/mol     cal/K/mol   cal/K/mol   J/K/mol
  20.00  VIB   1.00                    0.000      0.000     -0.000
         ROT   43.9                   59.618      2.981     10.499
         INT   43.9                   59.618      2.981     10.498
         TR   0.426E+25               99.363      4.968     23.555
         TOT                         158.9808     7.9490    34.0533   142.4790

   temp. (K)  partition function   enthalpy   heat capacity  entropy
                                   cal/mol     cal/K/mol   cal/K/mol   J/K/mol
  10.00  VIB   1.00                    0.000      0.000     -0.000
         ROT   15.5                   29.809      2.981      8.432
         INT   15.5                   29.809      2.981      8.432
         TR   0.150E+25               49.681      4.968     20.113
         TOT                          79.4904     7.9490    28.5450   119.4325

       T/K    H(0)-H(T)+PV         H(T)/Eh          T*S/Eh         G(T)/Eh
   ------------------------------------------------------------------------
    298.15    0.406094E-02    0.105511E-01    0.267688E-01   -0.162177E-01
    120.00    0.152625E-02    0.801636E-02    0.924214E-02   -0.122578E-02
    100.00    0.126863E-02    0.775873E-02    0.746704E-02    0.291690E-03
     80.00    0.101372E-02    0.750383E-02    0.574621E-02    0.175762E-02
     60.00    0.760072E-03    0.725018E-02    0.409082E-02    0.315936E-02
     40.00    0.506704E-03    0.699681E-02    0.252181E-02    0.447500E-02
     20.00    0.253352E-03    0.674346E-02    0.108535E-02    0.565811E-02
     10.00    0.126676E-03    0.661679E-02    0.454894E-03    0.616189E-02 (used)
   ------------------------------------------------------------------------

         :::::::::::::::::::::::::::::::::::::::::::::::::::::
         ::                  THERMODYNAMIC                  ::
         :::::::::::::::::::::::::::::::::::::::::::::::::::::
         :: total free energy          -7.981889927705 Eh   ::
         ::.................................................::
         :: total energy               -7.988051818600 Eh   ::
         :: zero point energy           0.006490109093 Eh   ::
         :: G(RRHO) w/o ZPVE           -0.000328218198 Eh   ::
         :: G(RRHO) contrib.            0.006161890896 Eh   ::
         :::::::::::::::::::::::::::::::::::::::::::::::::::::

optimized geometry written to: xtbopt.xyz


           -------------------------------------------------
          | TOTAL ENERGY               -7.988051818600 Eh   |
          | TOTAL ENTHALPY             -7.981435033491 Eh   |
          | TOTAL FREE ENERGY          -7.981889927705 Eh   |
          | GRADIENT NORM               0.000299841266 Eh/α |
          | HOMO-LUMO GAP               1.989256412271 eV   |
           -------------------------------------------------

------------------------------------------------------------------------
 * finished run on 2020/05/12 at 11:43:50.855     
------------------------------------------------------------------------
 total:
 * wall-time:     0 d,  0 h,  0 min,  0.056 sec
 *  cpu-time:     0 d,  0 h,  0 min,  0.054 sec
 * ratio c/w:     0.960 speedup
 SCF:
 * wall-time:     0 d,  0 h,  0 min,  0.002 sec
 *  cpu-time:     0 d,  0 h,  0 min,  0.002 sec
 * ratio c/w:     1.000 speedup
 ANC optimizer:
 * wall-time:     0 d,  0 h,  0 min,  0.014 sec
 *  cpu-time:     0 d,  0 h,  0 min,  0.014 sec
 * ratio c/w:     0.965 speedup
 numerical hessian:
 * wall-time:     0 d,  0 h,  0 min,  0.024 sec
 *  cpu-time:     0 d,  0 h,  0 min,  0.024 sec
 * ratio c/w:     0.988 speedup

