3
 energy: -7.962507851291 gnorm: 0.160456774119 xtb: 6.2.2 (9d81278992624c895f80dd42a50cac0aa55982e2)
O         0.00108400000000    0.56882500000000    0.00000000000000
C        -1.10271300000000   -0.28231200000000    0.00000000000000
C         1.10162900000000   -0.28651400000000    0.00000000000000
3
 energy: -7.983391900558 gnorm: 0.074170364971 xtb: 6.2.2 (9d81278992624c895f80dd42a50cac0aa55982e2)
O         0.00105796147949    0.55513563703048    0.00000000000000
C        -1.02449595879825   -0.27561641296121    0.00000000000000
C         1.02343799731876   -0.27952022406927    0.00000000000000
3
 energy: -7.987074566820 gnorm: 0.047245072604 xtb: 6.2.2 (9d81278992624c895f80dd42a50cac0aa55982e2)
O         0.00105250030173    0.55221993889940    0.00000000000000
C        -0.94608015250905   -0.27430807471788    0.00000000000000
C         0.94502765220733   -0.27791286418151    0.00000000000000
3
 energy: -7.988027266204 gnorm: 0.003932786464 xtb: 6.2.2 (9d81278992624c895f80dd42a50cac0aa55982e2)
O         0.00107575579531    0.56441482339884    0.00000000000000
C        -0.96096270252321   -0.28037717561825    0.00000000000000
C         0.95988694672790   -0.28403864778059    0.00000000000000
3
 energy: -7.988050925259 gnorm: 0.000523745935 xtb: 6.2.2 (9d81278992624c895f80dd42a50cac0aa55982e2)
O         0.00107999506749    0.56662115911346    0.00000000000000
C        -0.95599795716673   -0.28148982493213    0.00000000000000
C         0.95491796209924   -0.28513233418133    0.00000000000000
3
 energy: -7.988051818613 gnorm: 0.000299822392 xtb: 6.2.2 (9d81278992624c895f80dd42a50cac0aa55982e2)
O         0.00108230412596    0.56804916584966    0.00000000000000
C        -0.95395680265093   -0.28220756184978    0.00000000000000
C         0.95287449852497   -0.28584260399988    0.00000000000000
