3
 energy: -7.988051818618 gnorm: 0.000299834313 xtb: 6.2.2 (9d81278992624c895f80dd42a50cac0aa55982e2)
O         0.00108527842095    0.56804916017408   -0.00000099521078
C        -0.95395828026566   -0.28220256693934    0.00000382248254
C         0.95287300183947   -0.28584759323473   -0.00000282727001
