$hessian                                                                        
        0.2377103446   0.0005165256  -0.0000008307  -0.1195332556  -0.1064782261
        0.0000006031  -0.1181770891   0.1059617005   0.0000002276
        0.0005165256   0.5066487384  -0.0000008861  -0.2470331006  -0.2526509142
        0.0000013033   0.2465165750  -0.2539978242  -0.0000004172
       -0.0000008307  -0.0000008861   0.0000000000   0.0000008484   0.0000008126
       -0.0000000000  -0.0000000177   0.0000000734  -0.0000000000
       -0.1195332556  -0.2470331006   0.0000008484   0.2610530136   0.1763347336
       -0.0000012190  -0.1415197581   0.0706983670   0.0000003706
       -0.1064782261  -0.2526509142   0.0000008126   0.1763347336   0.1734546252
       -0.0000009183  -0.0698565075   0.0791962891   0.0000001056
        0.0000006031   0.0000013033  -0.0000000000  -0.0000012190  -0.0000009183
        0.0000000000   0.0000006159  -0.0000003850  -0.0000000000
       -0.1181770891   0.2465165750  -0.0000000177  -0.1415197581  -0.0698565075
        0.0000006159   0.2596968471  -0.1766600675  -0.0000005982
        0.1059617005  -0.2539978242   0.0000000734   0.0706983670   0.0791962891
       -0.0000003850  -0.1766600675   0.1748015351   0.0000003116
        0.0000002276  -0.0000004172  -0.0000000000   0.0000003706   0.0000001056
       -0.0000000000  -0.0000005982   0.0000003116   0.0000000000
