5
 energy: -8.429173259060 gnorm: 0.089974785704 xtb: 6.2.2 (9d81278992624c895f80dd42a50cac0aa55982e2)
C        -0.73686200000000    1.24584900000000   -0.34922100000000
C         0.00394700000000   -0.00254600000000    0.08078900000000
C         1.40503900000000    0.01937900000000   -0.49249700000000
C        -0.73018000000000   -1.22525000000000   -0.42739200000000
H         0.05805600000000   -0.03743300000000    1.18832100000000
5
 energy: -8.462501451845 gnorm: 0.075154336037 xtb: 6.2.2 (9d81278992624c895f80dd42a50cac0aa55982e2)
C        -0.68667538480060    1.15640558145743   -0.41314483143612
C         0.00838460382213   -0.00540686446510    0.17160433587839
C         1.29659298948958    0.02077273409614   -0.54580914679504
C        -0.68048878206340   -1.13167519298225   -0.48552525062900
H         0.06218657355229   -0.04009725810623    1.27287489298177
5
 energy: -8.513902752755 gnorm: 0.066504869015 xtb: 6.2.2 (9d81278992624c895f80dd42a50cac0aa55982e2)
C        -0.58562443427119    0.97638442318239   -0.54055272180786
C         0.01767384022607   -0.01139472928164    0.36177125249769
C         1.07842323548724    0.02353426772467   -0.65186561512482
C        -0.58042969955226   -0.94341762150568   -0.60128481784319
H         0.06995705811015   -0.04510734011974    1.43193190227818
5
 energy: -8.573797451225 gnorm: 0.042414146997 xtb: 6.2.2 (9d81278992624c895f80dd42a50cac0aa55982e2)
C        -0.47958359762713    0.78887317760465   -0.64751578495480
C         0.02565838957386   -0.01654245719306    0.52522578971755
C         0.85336922512529    0.02560749962124   -0.73668156103965
C        -0.47542041018147   -0.74895055269972   -0.69616466127555
H         0.07597639310946   -0.04898866733312    1.55513621755244
5
 energy: -8.573405129350 gnorm: 0.029360573872 xtb: 6.2.2 (9d81278992624c895f80dd42a50cac0aa55982e2)
C        -0.48966454344172    0.80691527600562   -0.63324320353792
C         0.02399702233509   -0.01547211939022    0.49121677154016
C         0.87536431120224    0.02528432746797   -0.72455739429650
C        -0.48540441003898   -0.76791607095146   -0.68306671619365
H         0.07570761994337   -0.04881241313192    1.54965054248790
5
 energy: -8.574116845317 gnorm: 0.031157718637 xtb: 6.2.2 (9d81278992624c895f80dd42a50cac0aa55982e2)
C        -0.47671017028366    0.78392210298056   -0.64803403179244
C         0.02462243707969   -0.01587673024860    0.50402689433873
C         0.84762552099369    0.02559331935176   -0.73662816364923
C        -0.47258171221829   -0.74396795276644   -0.69637525208242
H         0.07704392442857   -0.04967173931729    1.57701055318536
5
 energy: -8.574406120833 gnorm: 0.017344291819 xtb: 6.2.2 (9d81278992624c895f80dd42a50cac0aa55982e2)
C        -0.48222378253207    0.79323346127457   -0.65068515070049
C         0.02519786879884   -0.01624444375683    0.51580039601863
C         0.85812343718801    0.02573041148791   -0.74035644183091
C        -0.47803477740006   -0.75312183028305   -0.69961940834431
H         0.07693725394529   -0.04959859872260    1.57486060485708
5
 energy: -8.574555926955 gnorm: 0.004594476757 xtb: 6.2.2 (9d81278992624c895f80dd42a50cac0aa55982e2)
C        -0.48143512341803    0.79227854322249   -0.64302495929173
C         0.02478168235113   -0.01597543375383    0.50727981135945
C         0.85768024206231    0.02548166984985   -0.73262106894624
C        -0.47725075630833   -0.75265448958557   -0.69192537827782
H         0.07622395531292   -0.04913128973294    1.56029159515634
5
 energy: -8.574589136699 gnorm: 0.001894603566 xtb: 6.2.2 (9d81278992624c895f80dd42a50cac0aa55982e2)
C        -0.48091838476342    0.79123012791828   -0.64603926399772
C         0.02483205500905   -0.01600647626276    0.50831337672479
C         0.85622203270471    0.02556388288435   -0.73551464961896
C        -0.47674004399249   -0.75142335927490   -0.69488505962755
H         0.07660434104216   -0.04936517526497    1.56812559651944
5
 energy: -8.574590310784 gnorm: 0.001317478380 xtb: 6.2.2 (9d81278992624c895f80dd42a50cac0aa55982e2)
C        -0.48108510229819    0.79151598442279   -0.64568959123058
C         0.02487021578881   -0.01602417776505    0.50910932125741
C         0.85659438720556    0.02553271419727   -0.73523597212541
C        -0.47689368289694   -0.75175231300455   -0.69460862242858
H         0.07651418220075   -0.04927320785045    1.56642486452716
5
 energy: -8.574591083118 gnorm: 0.000149785830 xtb: 6.2.2 (9d81278992624c895f80dd42a50cac0aa55982e2)
C        -0.48108517417691    0.79140879621842   -0.64565265133412
C         0.02486248130966   -0.01598954365966    0.50865436988981
C         0.85654579671125    0.02547755155672   -0.73524581695109
C        -0.47684732320892   -0.75166703638772   -0.69465106221117
H         0.07652421936492   -0.04923076772777    1.56689516060657
