 Entering Gaussian System
 *********************************************
 Gaussian 98:
 frequency output generated by the xtb code
 *********************************************
                         Standard orientation:
 --------------------------------------------------------------------
  Center     Atomic     Atomic              Coordinates (Angstroms)
  Number     Number      Type              X           Y           Z
 --------------------------------------------------------------------
    1          6             0       -0.481083    0.791410   -0.645652
    2          6             0        0.024864   -0.015989    0.508654
    3          6             0        0.856543    0.025472   -0.735249
    4          6             0       -0.476854   -0.751666   -0.694648
    5          1             0        0.076529   -0.049228    1.566895
 --------------------------------------------------------------------
     1 basis functions        1 primitive gaussians
     1 alpha electrons        1 beta electrons

 Harmonic frequencies (cm**-1), IR intensities (KM/Mole),
 Raman scattering activities (A**4/amu), Raman depolarization ratios,
 reduced masses (AMU), force constants (mDyne/A) and normal coordinates:
                      1                      2                      3
                        a                      a                      a 
 Frequencies --  -984.4389              -979.5356               482.0959
 Red. masses --    12.0047                12.0042                11.9487
 Frc consts  --     0.0000                 0.0000                 0.0000
 IR Inten    --     6.4778                 6.4515                 1.6440
 Raman Activ --     0.0000                 0.0000                 0.0000
 Depolar     --     0.0000                 0.0000                 0.0000
 Atom AN      X      Y      Z        X      Y      Z        X      Y      Z
   1   6     0.20  -0.27   0.53     0.04   0.12  -0.13     0.30  -0.42  -0.12
   2   6    -0.42   0.44   0.03    -0.44  -0.42   0.01     0.06  -0.13  -0.01
   3   6     0.20  -0.06  -0.40     0.21   0.08  -0.41     0.22   0.55   0.04
   4   6     0.03  -0.12  -0.16     0.20   0.23   0.53    -0.58  -0.02   0.08
   5   1    -0.02   0.02   0.00    -0.02  -0.02   0.00    -0.03   0.07   0.00
                      4                      5                      6
                        a                      a                      a 
 Frequencies --   482.4444               772.4959               772.5348
 Red. masses --    11.9450                 2.6168                 2.6216
 Frc consts  --     0.0000                 0.0000                 0.0000
 IR Inten    --     1.6362                 0.1585                 0.1386
 Raman Activ --     0.0000                 0.0000                 0.0000
 Depolar     --     0.0000                 0.0000                 0.0000
 Atom AN      X      Y      Z        X      Y      Z        X      Y      Z
   1   6     0.50   0.34  -0.01    -0.02   0.04   0.20    -0.04  -0.02   0.00
   2   6    -0.13  -0.06   0.00     0.14  -0.24  -0.01    -0.24  -0.14   0.01
   3   6    -0.48   0.26  -0.05    -0.03  -0.03  -0.10     0.05  -0.03   0.17
   4   6     0.09  -0.55   0.05     0.04   0.01  -0.10    -0.00   0.06  -0.17
   5   1     0.07   0.03  -0.00    -0.47   0.80   0.05     0.80   0.47  -0.02
                      7                      8                      9
                        a                      a                      a 
 Frequencies --   949.8781              1433.1463              3272.1241
 Red. masses --    11.7185                11.5755                 1.9615
 Frc consts  --     0.0000                 0.0000                 0.0000
 IR Inten    --     0.4269                 0.1347                 0.0029
 Raman Activ --     0.0000                 0.0000                 0.0000
 Depolar     --     0.0000                 0.0000                 0.0000
 Atom AN      X      Y      Z        X      Y      Z        X      Y      Z
   1   6     0.20  -0.35  -0.23    -0.21   0.36  -0.19     0.01  -0.01   0.00
   2   6     0.03  -0.02   0.58     0.03  -0.02   0.58    -0.01   0.01  -0.29
   3   6    -0.42   0.01  -0.19     0.39   0.01  -0.23    -0.01  -0.00   0.01
   4   6     0.19   0.36  -0.21    -0.21  -0.34  -0.21     0.01   0.01   0.01
   5   1     0.01  -0.01   0.16     0.01  -0.01   0.20     0.05  -0.03   0.95
