[Molden Format]
[Title]
[Atoms] AU
C      1     6 -0.90911556578273E+00  0.14955483693645E+01 -0.12201060062446E+01
C      2     6  0.46986473174526E-01 -0.30214423951258E-01  0.96121725073092E+00
C      3     6  0.16186322208847E+01  0.48134690180063E-01 -0.13894188335324E+01
C      4     6 -0.90112278012529E+00 -0.14204422767366E+01 -0.13126945133437E+01
H      5     1  0.14461965183887E+00 -0.93028248582659E-01  0.29610021023931E+01
[GTO]
           1 0
 s           4   1.0000000000000000     
   51.049363095579913      -0.16312063210127389     
   8.7911227406887544      -0.19911024581000730     
  0.70640422258929825       0.31882047753655751     
  0.26922813413411617       0.12706504184240380     
 p           4   1.0000000000000000     
   5.8263656140800002       0.73716451545209605     
   1.5106896018720002       0.68216371614850257     
  0.53256483288000001       0.35783053929253711     
  0.21202323690600003        5.3983030275847881E-002

           2 0
 s           4   1.0000000000000000     
   51.049363095579913      -0.16312063210127389     
   8.7911227406887544      -0.19911024581000730     
  0.70640422258929825       0.31882047753655751     
  0.26922813413411617       0.12706504184240380     
 p           4   1.0000000000000000     
   5.8263656140800002       0.73716451545209605     
   1.5106896018720002       0.68216371614850257     
  0.53256483288000001       0.35783053929253711     
  0.21202323690600003        5.3983030275847881E-002

           3 0
 s           4   1.0000000000000000     
   51.049363095579913      -0.16312063210127389     
   8.7911227406887544      -0.19911024581000730     
  0.70640422258929825       0.31882047753655751     
  0.26922813413411617       0.12706504184240380     
 p           4   1.0000000000000000     
   5.8263656140800002       0.73716451545209605     
   1.5106896018720002       0.68216371614850257     
  0.53256483288000001       0.35783053929253711     
  0.21202323690600003        5.3983030275847881E-002

           4 0
 s           4   1.0000000000000000     
   51.049363095579913      -0.16312063210127389     
   8.7911227406887544      -0.19911024581000730     
  0.70640422258929825       0.31882047753655751     
  0.26922813413411617       0.12706504184240380     
 p           4   1.0000000000000000     
   5.8263656140800002       0.73716451545209605     
   1.5106896018720002       0.68216371614850257     
  0.53256483288000001       0.35783053929253711     
  0.21202323690600003        5.3983030275847881E-002

           5 0
 s           3   1.0000000000000000     
   3.3702276975336001       0.27359110588908298     
  0.61389118221497996       0.26460540653860526     
  0.16614291148415999        8.2465947534082318E-002

[MO]
Sym=     1a
Ene=  -0.72777113240310121     
Spin= Alpha
Occup=     2.00000000
           1 -0.29790811483438623     
           2  -7.1683804295603198E-002
           3  0.12070764950732374     
           4  -4.3512879561382736E-002
           5 -0.31099701826733556     
           6   8.2043962410633265E-003
           7  -5.2781613619743931E-003
           8  0.16777985726443342     
           9 -0.29791073564817405     
          10  0.13525494008363911     
          11   2.1823069872091982E-003
          12  -5.7353284432944379E-002
          13 -0.29794858584144562     
          14  -7.1013987763791239E-002
          15 -0.11804976536049355     
          16  -5.1074444449106533E-002
          17  -3.8132173741476705E-002
Sym=     2a
Ene=  -0.61120271287683814     
Spin= Alpha
Occup=     2.00000000
           1 -0.14295891564828553     
           2  -2.2791012119481920E-002
           3   4.8875455174128495E-002
           4  0.18396250545605516     
           5  0.49123969087401187     
           6   1.1925749179193203E-002
           7  -7.4739716800901902E-003
           8  0.24488537986277628     
           9 -0.14329932659848543     
          10   7.1842352221481637E-002
          11  -5.2416966442947214E-003
          12  0.17750797380083078     
          13 -0.14353433849384076     
          14  -2.2618044887759130E-002
          15  -6.0360732342731760E-002
          16  0.18034895471811485     
          17  0.37586966753080109     
Sym=     3a
Ene=  -0.58990371856492774     
Spin= Alpha
Occup=     2.00000000
           1 -0.28476162132822275     
           2  0.25490499115336174     
           3   8.6556726048192908E-002
           4  -6.2164694095628040E-002
           5   7.1686692045603106E-005
           6  0.38171779514187243     
           7  -2.4810373971838402E-002
           8  -1.9392867862974016E-002
           9  0.50854907734990207     
          10  0.10520696205659012     
          11  -2.4561171712071023E-002
          12   8.7767254549748944E-002
          13 -0.22382201200358007     
          14  0.26902173590179873     
          15 -0.10280837009964738     
          16  -5.7580504627235789E-002
          17   5.3179044102930502E-005
Sym=     4a
Ene=  -0.58989326702645895     
Spin= Alpha
Occup=     2.00000000
           1  0.42291078449741482     
           2  0.11611719107883654     
           3  0.15981804878447728     
           4   7.7161663781328854E-002
           5  -2.7411081045340300E-004
           6   2.5347630369311609E-002
           7  0.38205154769338751     
           8   1.0542921492671749E-002
           9   3.5241202272938414E-002
          10   6.3942137557213450E-003
          11  0.31876468178148176     
          12   1.6108877988241919E-002
          13 -0.45794782822046370     
          14  -8.0648986394620675E-002
          15  0.15109714356976042     
          16  -7.5750458436849230E-002
          17  -2.8733969332004282E-004
Sym=     5a
Ene=  -0.51919555931004735     
Spin= Alpha
Occup=     2.00000000
           1 -0.14256778975968343     
           2  -1.1573402546513586E-002
           3   3.8166337727811445E-002
           4  0.35005233353855697     
           5   2.7381435818812080E-002
           6  -1.9207802577719809E-002
           7   1.2256206151575112E-002
           8 -0.39284313914666591     
           9 -0.14253831170698497     
          10   7.3799883028833391E-002
          11  -1.0740898939740298E-002
          12  0.34429962973043926     
          13 -0.14254197959203774     
          14  -1.1303508743900022E-002
          15  -6.0372080276967270E-002
          16  0.34698123036121209     
          17 -0.38485902583079001     
Sym=     6a
Ene=  -0.43327561694387118     
Spin= Alpha
Occup=     1.98023145
           1   6.4282563927022460E-002
           2 -0.17045620679971346     
           3  -3.1687195463338584E-002
           4  -4.5776542894732077E-002
           5  -1.2511473042112347E-005
           6 -0.33881856206383271     
           7 -0.26733787168210094     
           8   8.1720921091454745E-003
           9  0.36162634354078627     
          10  0.29921580876648124     
          11  -9.0086480854264309E-002
          12 -0.31635679020008545     
          13 -0.42604259712878745     
          14  0.14814478431992356     
          15  0.34020808330847424     
          16  0.35542894430801125     
          17   3.0220674058029447E-005
Sym=     7a
Ene=  -0.43326621093801926     
Spin= Alpha
Occup=     1.98003868
           1 -0.45427830947039538     
           2  0.19643200424076734     
           3 -0.36345124731998818     
           4  0.35545388348070234     
           5  -4.7864425610854653E-005
           6 -0.26706828926509374     
           7  0.33908886872742450     
           8   2.3699378642820193E-002
           9  0.28318528981282265     
          10  0.23370969268601838     
          11  0.13633297734366923     
          12 -0.24151193188414152     
          13  0.17184866541183769     
          14 -0.21158135089094685     
          15  -5.0313028878717254E-002
          16 -0.13330202986445225     
          17  -1.6425383455736513E-005
Sym=     8a
Ene=  -0.42650967545061763     
Spin= Alpha
Occup=     1.03849290
           1  0.35707107125607696     
           2 -0.22837316550839473     
           3  0.39249297076559825     
           4   5.6447376959452795E-002
           5  -2.8462704306543025E-002
           6   2.5055279600469632E-005
           7   1.1347974166631865E-003
           8  -3.6661576906934427E-003
           9  0.35631065422841046     
          10  0.45621093105696414     
          11  -1.2612673941931811E-003
          12   9.9839339566745594E-003
          13  0.35586906278289682     
          14 -0.22337034533404979     
          15 -0.39564785062838465     
          16   2.9594907210726155E-002
          17   7.1893959951354587E-003
Sym=     9a
Ene=  -0.42257509701783291     
Spin= Alpha
Occup=     1.00063611
           1  -9.8211079428866435E-002
           2  -6.5565591231159251E-002
           3 -0.30834853297337650     
           4 -0.34031110915980328     
           5  -3.4287989213952734E-005
           6  0.27715562202761451     
           7 -0.22335712104513650     
           8  -2.0567954766482828E-002
           9   8.2902690954967204E-002
          10  0.22259131504971993     
          11  0.35026905959720195     
          12  0.27783114822931532     
          13   1.7574998040658776E-002
          14 -0.50508215764087860     
          15  0.23872066711837411     
          16   8.8570355636246462E-002
          17   2.7239370755455065E-005
Sym=    10a
Ene=  -0.42252089830482070     
Spin= Alpha
Occup=     1.00060086
           1  -3.6574076526966752E-002
           2  0.49952150161195308     
           3  0.18923829264239780     
           4 -0.14621266789787560     
           5  -7.9046224040351919E-005
           6 -0.22438891002521541     
           7 -0.27817003660451584     
           8   2.2203097874155236E-003
           9  -6.5096134108619294E-002
          10 -0.18008556212504270     
          11  0.44711428445006157     
          12 -0.20297087044738801     
          13  0.10481755981699202     
          14  -3.7880584233797851E-002
          15 -0.28715691843162533     
          16  0.34661596716059845     
          17   6.0277684155272900E-005
Sym=    11a
Ene=  -0.12581171437566366     
Spin= Alpha
Occup=     0.00000000
           1  -1.0575273042531196E-004
           2 -0.62576705521172360     
           3 -0.36419241041646644     
           4   1.9971217961260317E-002
           5   3.4190635313415162E-007
           6   9.3899175955226334E-004
           7  -4.6763744240991856E-004
           8  -6.0618509649136114E-005
           9   1.0761233732365719E-004
          10  -2.5542642301964328E-003
          11  0.72396543860893670     
          12   2.2052786414498159E-002
          13  -1.9926566957227001E-006
          14  0.62687978935048794     
          15 -0.35898884602571718     
          16  -4.1929185106718107E-002
          17  -2.3987817490996940E-007
Sym=    12a
Ene=  -0.10997866719499790     
Spin= Alpha
Occup=     0.00000000
           1   1.9986357013879625E-004
           2 -0.25249713286179309     
           3 -0.14953869139264800     
           4   2.0920221993849897E-003
           5  -1.5098693513933200E-004
           6  0.64368078734568301     
           7  0.38187253355476591     
           8  -1.9392776119209754E-002
           9   2.6719637496503142E-002
          10 -0.29880109454141651     
          11 -0.13095854602320828     
          12 -0.61296343829411604     
          13  -2.6874728570755683E-002
          14 -0.23042188529808122     
          15 -0.18300776379992872     
          16  0.63458688572671296     
          17   9.4704082374812558E-005
Sym=    13a
Ene=  -0.10994441741133740     
Spin= Alpha
Occup=     0.00000000
           1   3.1130767631419538E-002
           2  0.12270920609686681     
           3 -0.24637849374211038     
           4 -0.73670234851746019     
           5  -4.7959342135238788E-004
           6 -0.38051178353460885     
           7  0.64350482435500900     
           8   3.8907477149601598E-002
           9  -1.5746463955461552E-002
          10  0.17660946967634039     
          11 -0.26328584819549467     
          12  0.34954680331618371     
          13  -1.5243401776449941E-002
          14  0.16326509617159021     
          15 -0.27215271048302003     
          16  0.34037896785734900     
          17   3.0988125181321608E-004
Sym=    14a
Ene=    3.0291137174001087E-002
Spin= Alpha
Occup=     0.00000000
           1 -0.14245569912383557     
           2  -7.6041284581117058E-002
           3  0.11377797164622908     
           4 -0.31411611571812659     
           5   1.1422048020360052     
           6   8.4233150975093296E-004
           7  -4.3829647311233823E-004
           8   1.8570259388374248E-002
           9 -0.14288925756047488     
          10  0.10506381325708156     
          11   1.0250694629692384E-002
          12 -0.32591959175832241     
          13 -0.14309955494612295     
          14  -7.5656649058311709E-002
          15  -9.5154918554769805E-002
          16 -0.32026918866751297     
          17 -0.79007216729652385     
Sym=    15a
Ene=   0.15158753093112765     
Spin= Alpha
Occup=     0.00000000
           1 -0.52900290566650854     
           2 -0.50494784284910610     
           3  0.41087673774314498     
           4 -0.13113462972158982     
           5   3.0764759076481102E-004
           6 -0.40629744092501885     
           7  0.10704203097601896     
           8   2.3340630720142867E-002
           9  0.72315501314092467     
          10 -0.81021984313371065     
          11   7.1516076591650712E-002
          12  0.27236986288976217     
          13 -0.19421416403533937     
          14 -0.38008599242215407     
          15  -3.6626889900922575E-002
          16  -4.4431199325581483E-002
          17  -3.0315773824579899E-004
Sym=    16a
Ene=   0.15167982647109216     
Spin= Alpha
Occup=     0.00000000
           1 -0.52973639291022478     
           2 -0.11544713267686645     
           3  0.63895391850514671     
           4 -0.14307844425551466     
           5   6.1426996406351085E-004
           6  0.10722169583146021     
           7  0.40658912164671013     
           8   7.8608165655471036E-003
           9 -0.19334336718734588     
          10  0.21580641753079913     
          11  0.31116940480337113     
          12  -6.2261320523564929E-002
          13  0.72298632171678878     
          14  0.34802535918783994     
          15  0.74714687543830349     
          16  0.23682841928679957     
          17  -6.4299984160557766E-004
Sym=    17a
Ene=   0.43946974869644412     
Spin= Alpha
Occup=     0.00000000
           1 -0.26065388397753148     
           2 -0.10322201585224211     
           3  0.16174649551933745     
           4 -0.29279558577095910     
           5  0.11814429277730765     
           6  -6.3301075498056913E-002
           7   4.0927388870599962E-002
           8  -1.2952496124128736     
           9 -0.26034426353572154     
          10  0.16107031052229170     
          11   1.0281197849425864E-002
          12 -0.31031622487530819     
          13 -0.26015849695832793     
          14 -0.10217462200587971     
          15 -0.14305111687701147     
          16 -0.30218793146524187     
          17  0.90885227219206299     
