$hessian                                                                        
        0.0769389856  -0.0733287185  -0.0293239077   0.0374273187  -0.0337413109
       -0.0819461839  -0.1518404241   0.0341008357   0.0702241053   0.0380244333
        0.0747434194   0.0390951416  -0.0005503135  -0.0017742256   0.0019508448
       -0.0733287185   0.1632780036   0.0450226700  -0.0255118572   0.0709125502
        0.1306401090   0.1762467036  -0.0243915616  -0.0822289138  -0.0752422413
       -0.2119020766  -0.0897275653  -0.0021638866   0.0021030845  -0.0037062998
       -0.0293239077   0.0450226700  -0.0607122138   0.0715746377  -0.1319988371
       -0.1725978918  -0.0682996670   0.0072480974   0.1219055332   0.0328915886
        0.0683904687   0.1190350324  -0.0068426516   0.0113376009  -0.0076304599
        0.0374273187  -0.0255118572   0.0715746377  -0.1362816564  -0.0005640099
        0.0491584121   0.0853361517   0.0054739757  -0.1754293545   0.0368789332
        0.0200986752   0.0707688073  -0.0233607472   0.0005032163  -0.0160725026
       -0.0337413109   0.0709125502  -0.1319988371  -0.0005640099  -0.1377485709
       -0.0318509596  -0.0036117015   0.0203260653   0.0063706429   0.0374814430
        0.0694109464   0.1471297937   0.0004355794  -0.0229009911   0.0103493601
       -0.0819461839   0.1306401090  -0.1725978918   0.0491584121  -0.0318509596
        0.8653446605   0.1276826993   0.0063607662  -0.1699801830  -0.0788312093
       -0.1154684695  -0.1710876256  -0.0160637181   0.0103185540  -0.3516789601
       -0.1518404241   0.1762467036  -0.0682996670   0.0853361517  -0.0036117015
        0.1276826993   0.2131064705  -0.0004924097   0.0256481511  -0.1505824513
       -0.1723260774  -0.0796933831   0.0039802531   0.0001834850  -0.0053378002
        0.0341008357  -0.0243915616   0.0072480974   0.0054739757   0.0203260653
        0.0063607662  -0.0004924097   0.0348808697   0.0029993980  -0.0386337368
       -0.0292581570  -0.0167942428  -0.0004486649  -0.0015572164   0.0001859812
        0.0702241053  -0.0822289138   0.1219055332  -0.1754293545   0.0063706429
       -0.1699801830   0.0256481511   0.0029993980  -0.0682723302   0.0675301449
        0.0726082968   0.1247749841   0.0120269531   0.0002505762  -0.0084280040
        0.0380244333  -0.0752422413   0.0328915886   0.0368789332   0.0374814430
       -0.0788312093  -0.1505824513  -0.0386337368   0.0675301449   0.0760588761
        0.0747568417  -0.0236506516  -0.0003797914   0.0016376934   0.0020601273
        0.0747434194  -0.2119020766   0.0683904687   0.0200986752   0.0694109464
       -0.1154684695  -0.1723260774  -0.0292581570   0.0726082968   0.0747568417
        0.1692062842  -0.0298982997   0.0027271413   0.0025430030   0.0043680037
        0.0390951416  -0.0897275653   0.1190350324   0.0707688073   0.1471297937
       -0.1710876256  -0.0796933831  -0.0167942428   0.1247749841  -0.0236506516
       -0.0298982997  -0.0646428317  -0.0065199141  -0.0107096858  -0.0080795592
       -0.0005503135  -0.0021638866  -0.0068426516  -0.0233607472   0.0004355794
       -0.0160637181   0.0039802531  -0.0004486649   0.0120269531  -0.0003797914
        0.0027271413  -0.0065199141   0.0203105990  -0.0005501691   0.0173993307
       -0.0017742256   0.0021030845   0.0113376009   0.0005032163  -0.0229009911
        0.0103185540   0.0001834850  -0.0015572164   0.0002505762   0.0016376934
        0.0025430030  -0.0107096858  -0.0005501691   0.0198121200  -0.0111970452
        0.0019508448  -0.0037062998  -0.0076304599  -0.0160725026   0.0103493601
       -0.3516789601  -0.0053378002   0.0001859812  -0.0084280040   0.0020601273
        0.0043680037  -0.0080795592   0.0173993307  -0.0111970452   0.3758169833
