[Molden Format]
[Title]
[Atoms] AU
C      1     6 -0.23509032468616E+01 -0.89672676144355E+00 -0.21452592926214E+00
C      2     6  0.30267363955730E-01 -0.13897901808288E+01  0.93149870534214E+00
C      3     6  0.12221311567209E+01  0.15629238927172E+01 -0.25787291177978E+00
C      4     6  0.23962193159450E+01 -0.77484566203801E+00 -0.18706423893804E+00
C      5     6 -0.12977127000274E+01  0.14984387115866E+01 -0.27203373564284E+00
[GTO]
           1 0
 s           4   1.0000000000000000     
   51.049363095579913      -0.16312063210127389     
   8.7911227406887544      -0.19911024581000730     
  0.70640422258929825       0.31882047753655751     
  0.26922813413411617       0.12706504184240380     
 p           4   1.0000000000000000     
   5.8263656140800002       0.73716451545209605     
   1.5106896018720002       0.68216371614850257     
  0.53256483288000001       0.35783053929253711     
  0.21202323690600003        5.3983030275847881E-002

           2 0
 s           4   1.0000000000000000     
   51.049363095579913      -0.16312063210127389     
   8.7911227406887544      -0.19911024581000730     
  0.70640422258929825       0.31882047753655751     
  0.26922813413411617       0.12706504184240380     
 p           4   1.0000000000000000     
   5.8263656140800002       0.73716451545209605     
   1.5106896018720002       0.68216371614850257     
  0.53256483288000001       0.35783053929253711     
  0.21202323690600003        5.3983030275847881E-002

           3 0
 s           4   1.0000000000000000     
   51.049363095579913      -0.16312063210127389     
   8.7911227406887544      -0.19911024581000730     
  0.70640422258929825       0.31882047753655751     
  0.26922813413411617       0.12706504184240380     
 p           4   1.0000000000000000     
   5.8263656140800002       0.73716451545209605     
   1.5106896018720002       0.68216371614850257     
  0.53256483288000001       0.35783053929253711     
  0.21202323690600003        5.3983030275847881E-002

           4 0
 s           4   1.0000000000000000     
   51.049363095579913      -0.16312063210127389     
   8.7911227406887544      -0.19911024581000730     
  0.70640422258929825       0.31882047753655751     
  0.26922813413411617       0.12706504184240380     
 p           4   1.0000000000000000     
   5.8263656140800002       0.73716451545209605     
   1.5106896018720002       0.68216371614850257     
  0.53256483288000001       0.35783053929253711     
  0.21202323690600003        5.3983030275847881E-002

           5 0
 s           4   1.0000000000000000     
   51.049363095579913      -0.16312063210127389     
   8.7911227406887544      -0.19911024581000730     
  0.70640422258929825       0.31882047753655751     
  0.26922813413411617       0.12706504184240380     
 p           4   1.0000000000000000     
   5.8263656140800002       0.73716451545209605     
   1.5106896018720002       0.68216371614850257     
  0.53256483288000001       0.35783053929253711     
  0.21202323690600003        5.3983030275847881E-002

[MO]
Sym=     1a
Ene=  -0.73407499501179263     
Spin= Alpha
Occup=     2.00000000
           1 -0.22423707970057247     
           2 -0.10410514068408844     
           3  -5.5303644185007814E-002
           4  -1.9355445799351279E-002
           5 -0.30252942828744989     
           6   2.4262913533951371E-003
           7 -0.11206961857632489     
           8   7.7658709127456177E-002
           9 -0.30461724810297336     
          10   9.0068214741333294E-002
          11  0.11788209118218371     
          12  -2.2814271687223657E-002
          13 -0.22424156195326092     
          14  0.10702548214313308     
          15  -4.9886033794029207E-002
          16  -1.8126306084692040E-002
          17 -0.30458868503919578     
          18  -9.5729392964973986E-002
          19  0.11311270611369294     
          20  -2.3845387883310323E-002
Sym=     2a
Ene=  -0.66828485951745065     
Spin= Alpha
Occup=     2.00000000
           1  0.38902185066211581     
           2   4.8008131698854178E-002
           3   8.4161692810084218E-002
           4   3.0935755325902044E-002
           5   1.2509640028402249E-005
           6 -0.27504660376393064     
           7  -7.0517833598732985E-003
           8  -1.5820308472572454E-003
           9 -0.25025961788250251     
          10 -0.14991875522703091     
          11  0.11906195278979664     
          12  -1.6985355136713062E-002
          13 -0.38906269452888315     
          14   5.2624237382373332E-002
          15  -8.1586715048887842E-002
          16  -3.0326530844000599E-002
          17  0.25028957076214220     
          18 -0.14372621596202104     
          19 -0.12657420609368544     
          20   1.5273615570638260E-002
Sym=     3a
Ene=  -0.63861961194689620     
Spin= Alpha
Occup=     2.00000000
           1 -0.21144757206997991     
           2  -6.3966069182177912E-002
           3  0.11152598144506266     
           4  -5.5870349492127984E-002
           5 -0.38218212328829942     
           6  -2.9103806050104508E-003
           7  0.10464605398557697     
           8   4.4107975528786265E-002
           9  0.35368133694339643     
          10 -0.19892682488307784     
          11  0.16589198157312132     
          12  -4.0251876530696229E-002
          13 -0.21139145668800122     
          14   5.8791788689009014E-002
          15  0.11467003871552785     
          16  -5.5138296984970588E-002
          17  0.35366418691547769     
          18  0.19062335808356715     
          19  0.17586173546061576     
          20  -3.8055981904952234E-002
Sym=     4a
Ene=  -0.57502099278133623     
Spin= Alpha
Occup=     2.00000000
           1 -0.24294634240765289     
           2  0.13545876699968001     
           3 -0.18530345474250604     
           4  0.17036691262985448     
           5  0.39628510031861131     
           6   1.0216846051699685E-003
           7  -6.6680837645036350E-002
           8  0.13633672038231631     
           9  -5.5518194442178100E-002
          10 -0.26375966163475778     
          11  0.15083750423089842     
          12  0.17487949135553635     
          13 -0.24284087540731328     
          14 -0.12774674693335034     
          15 -0.19213389394708003     
          16  0.16894208803200714     
          17  -5.5404931165959202E-002
          18  0.25361949666328459     
          19  0.16412396501670584     
          20  0.17780545680153753     
Sym=     5a
Ene=  -0.55212328529597077     
Spin= Alpha
Occup=     2.00000000
           1  0.15766490255687754     
           2   8.2701936520142696E-002
           3 -0.30626032770811290     
           4  0.13991874496039974     
           5   1.0588431613191366E-004
           6 -0.38174832071438586     
           7  -9.9889521819121318E-003
           8  -2.3549154102439516E-003
           9  0.32255942677618676     
          10  0.20751691627832108     
          11   5.9275609097335889E-002
          12  -5.3189259500570178E-002
          13 -0.15774870350525980     
          14   6.8305460584590305E-002
          15  0.30983743480094927     
          16 -0.13925606265654020     
          17 -0.32257144484636452     
          18  0.20993968185740636     
          19  -4.8385585903276206E-002
          20   5.5210322668017897E-002
Sym=     6a
Ene=  -0.54944899592687990     
Spin= Alpha
Occup=     2.00000000
           1   8.9021352904220460E-003
           2  0.13206366790630461     
           3 -0.19021533709984761     
           4 -0.20901943151160871     
           5   4.8333938835542857E-002
           6   8.4901020730571378E-003
           7 -0.25444035257903475     
           8 -0.29481553979582020     
           9  -2.9297468354448009E-002
          10 -0.16614834415070132     
          11   3.3044726563654585E-002
          12 -0.36750006313291933     
          13   9.0562625910409287E-003
          14 -0.11980492157224576     
          15 -0.19708442325790076     
          16 -0.21027454341358481     
          17  -2.9004746511857284E-002
          18  0.16814991049729014     
          19   4.1729952759917525E-002
          20 -0.36564382434053261     
Sym=     7a
Ene=  -0.49025809627325057     
Spin= Alpha
Occup=     2.00000000
           1 -0.29919252106134703     
           2  0.20999586114319346     
           3  0.11374305252995540     
           4  -7.4939808725655560E-002
           5 -0.18625162117603369     
           6  -8.4867842087361384E-003
           7  0.36060392281844694     
           8 -0.13430717108369220     
           9 -0.24303748266699210     
          10 -0.15313361136292208     
          11 -0.34594951529350743     
          12   2.8769291035810347E-002
          13 -0.29926002462814766     
          14 -0.21470662732381823     
          15  0.10286433680322558     
          16  -7.7402910792540788E-002
          17 -0.24314617089109861     
          18  0.17033776805899881     
          19 -0.33764730467646475     
          20   3.0643169035891413E-002
Sym=     8a
Ene=  -0.45202767793530357     
Spin= Alpha
Occup=     2.00000000
           1  0.34625053588361221     
           2 -0.22894387281383555     
           3 -0.14365567754276221     
           4 -0.41370683404871339     
           5  -1.0524553335400842E-004
           6  0.19389340433131314     
           7   5.0034077817917508E-003
           8   1.0239159567888825E-003
           9  0.15549378349758144     
          10   4.3873436569828179E-002
          11  0.10089104317836241     
          12  0.24080485124349715     
          13 -0.34599594489265462     
          14 -0.24060862689753354     
          15  0.13152494112234411     
          16  0.41098317853510041     
          17 -0.15560651409898410     
          18   5.1852051136973859E-002
          19  -9.8408643708563920E-002
          20 -0.24006056229807074     
Sym=     9a
Ene=  -0.43591491006252187     
Spin= Alpha
Occup=     1.99999994
           1  0.26128808967047645     
           2 -0.13775994342151163     
           3 -0.24500440873271032     
           4  -9.9132473237047866E-002
           5 -0.36481366991128211     
           6  -2.6972896322281699E-004
           7  0.10928030223122388     
           8 -0.45842665115758957     
           9  -6.4681722158350038E-002
          10 -0.16858757459159610     
          11   3.6774684240686757E-002
          12  0.36718388243698025     
          13  0.26155223896599994     
          14  0.15164001318484302     
          15 -0.23759625960942579     
          16  -9.7555983489024820E-002
          17  -6.4451001198738228E-002
          18  0.16227514550067701     
          19   4.5363149475774217E-002
          20  0.36910815279429676     
Sym=    10a
Ene=  -0.40421570628296538     
Spin= Alpha
Occup=     1.00000006
           1  0.18422947427255917     
           2 -0.51867535130259190     
           3  -9.0498652314806749E-002
           4  0.28010627607817512     
           5  -4.0830170605976219E-005
           6  0.11482318573069417     
           7   2.7869107852850931E-003
           8   1.4069724133653801E-004
           9  -1.1126362768677782E-002
          10  -8.9787566771137639E-002
          11 -0.22089334874296424     
          12 -0.20355902872296552     
          13 -0.18463712503089511     
          14 -0.52002053087131228     
          15   6.3897982711613510E-002
          16 -0.28634692855048022     
          17   1.1492700299081272E-002
          18 -0.10401109875782698     
          19  0.21638551006454776     
          20  0.20307922897471078     
Sym=    11a
Ene=  -0.39716411943659718     
Spin= Alpha
Occup=     1.00000000
           1  0.22074170794735798     
           2 -0.33744930596915029     
           3 -0.11966895715833106     
           4   7.6226934417804620E-002
           5  -2.0737351055750478E-002
           6  -6.6518659463257399E-003
           7  0.16220443325618511     
           8  0.45645479658423116     
           9 -0.13615584932306368     
          10 -0.33794817127976046     
          11 -0.21963702960691131     
          12 -0.20628193524962038     
          13  0.22042302127334948     
          14  0.34107916200186267     
          15 -0.10231358800924555     
          16   7.9358515604508378E-002
          17 -0.13640489235183378     
          18  0.35097846163668212     
          19 -0.20177104900847281     
          20 -0.20179719949773198     
Sym=    12a
Ene=  -0.35628057166069926     
Spin= Alpha
Occup=     0.00000000
           1   3.9318470032112508E-002
           2 -0.12993273549557005     
           3  0.35290810700877945     
           4  0.13170538190512579     
           5  -3.4774943266283105E-005
           6  0.18598556007824726     
           7   4.7323771926644116E-003
           8   8.3706095600404767E-004
           9  0.32067802688689612     
          10  0.14356816778250353     
          11  0.49835934872817772     
          12 -0.16932727187038354     
          13  -3.9378632284981084E-002
          14 -0.11029720995036395     
          15 -0.35910565025855262     
          16 -0.13311296147059043     
          17 -0.32060488173685631     
          18  0.16676105201267968     
          19 -0.49021796107456178     
          20  0.17136010284474076     
Sym=    13a
Ene=  -0.28011910880927982     
Spin= Alpha
Occup=     0.00000000
           1   1.9708809391371179E-002
           2  -6.7819748973293415E-003
           3  -4.0234990540699365E-002
           4  0.60247292792623841     
           5 -0.21020072800488099     
           6  -5.0786177334245231E-003
           7  0.30237670136705141     
           8 -0.46744314776645118     
           9  -3.3104594220259506E-002
          10   4.4462348902956299E-002
          11  0.10316373755409605     
          12 -0.27965447155144840     
          13   1.9761271550660767E-002
          14   1.8068210960679061E-003
          15  -3.9959073150351243E-002
          16  0.60242610957459075     
          17  -3.3167378490022090E-002
          18  -4.6569916999149953E-002
          19  0.10089099087107460     
          20 -0.28026561282124668     
Sym=    14a
Ene=  -0.24149703775085685     
Spin= Alpha
Occup=     0.00000000
           1   9.0236513441395300E-002
           2  0.13535811008102064     
           3 -0.23320761457725628     
           4 -0.23442090177049771     
           5  0.14945498684481950     
           6  -2.3303881355370933E-002
           7  0.85874861883219089     
           8  0.22907604510496649     
           9  -5.4208322571252548E-002
          10  0.17623829838753149     
          11  0.31232529656712932     
          12 -0.10862827205151328     
          13   9.0129598275064698E-002
          14 -0.12036330269692516     
          15 -0.23969792648706356     
          16 -0.23547167202756203     
          17  -5.4168394340123223E-002
          18 -0.19073632109818603     
          19  0.30296000327895639     
          20 -0.11001474545098998     
Sym=    15a
Ene=  -0.21238210259946699     
Spin= Alpha
Occup=     0.00000000
           1   6.1899151937741342E-002
           2  0.12513961701889012     
           3 -0.11281148825891141     
           4 -0.38282677106416579     
           5  -9.8501418851843587E-005
           6  0.11913104160777907     
           7   2.6528037554414603E-003
           8   5.5711259420394464E-004
           9  -5.1199665770007875E-002
          10   1.8178925125102916E-003
          11  -2.4144571096959312E-002
          12 -0.72585551238611190     
          13  -6.1979463458944201E-002
          14  0.11492866040624476     
          15  0.11918158017875390     
          16  0.38458573276098162     
          17   5.1372076799760372E-002
          18  -7.5251794637259803E-003
          19   2.3608737443125940E-002
          20  0.72585901572445877     
Sym=    16a
Ene=   0.10170139561332489     
Spin= Alpha
Occup=     0.00000000
           1  -4.8446521474995931E-002
           2 -0.40358114260414502     
           3  0.50689801773473930     
           4 -0.15583005027249366     
           5  0.77868207716019844     
           6  -1.7119244067493936E-003
           7  0.18759440624242082     
           8 -0.49559907393628228     
           9 -0.33111421764096449     
          10 -0.19985400399342917     
          11  0.28559363914780378     
          12  -2.8985248194205223E-002
          13  -4.8625987296367523E-002
          14  0.37894108913363500     
          15  0.52704409637291938     
          16 -0.15151782740700798     
          17 -0.33097881726429013     
          18  0.18539875800327790     
          19  0.29555904231586344     
          20  -2.6659837489702853E-002
Sym=    17a
Ene=   0.21231271884363570     
Spin= Alpha
Occup=     0.00000000
           1  0.11104320347281321     
           2  0.23681125081069740     
           3 -0.53039194343513019     
           4  0.33819580363565788     
           5   5.0429493543090180E-005
           6  0.91356074859054959     
           7   2.3516879457059315E-002
           8   5.2250468620910710E-003
           9 -0.39223379329776997     
          10  -3.3225216981690835E-002
          11  0.40704131988299858     
          12   3.6769215974026895E-002
          13 -0.11144323277685338     
          14  0.21344268076333420     
          15  0.54141295846278603     
          16 -0.33563580033419133     
          17  0.39262686286857817     
          18  -1.2141401163097124E-002
          19 -0.40862340315220613     
          20  -3.7126231883336268E-002
Sym=    18a
Ene=   0.33852494800890826     
Spin= Alpha
Occup=     0.00000000
           1 -0.59743736464686603     
           2 -0.50891463070899134     
           3 -0.44356700963921197     
           4  -6.9241222295682137E-002
           5  0.51332965619530369     
           6  -3.4378356196135031E-003
           7  0.19151168670381269     
           8 -0.33701339118930473     
           9  0.42538821645141828     
          10  0.28365437695902901     
          11 -0.37125133678333672     
          12  -1.1471478879075564E-002
          13 -0.59704179273771141     
          14  0.53157244998737896     
          15 -0.41702757490787307     
          16  -6.2836887788370863E-002
          17  0.42454837117423605     
          18 -0.26498440563668207     
          19 -0.38530612212472670     
          20  -1.4748205940935150E-002
Sym=    19a
Ene=   0.48033665675185311     
Spin= Alpha
Occup=     0.00000000
           1 -0.14495921928178188     
           2  0.11071778104548083     
           3 -0.18785167758936752     
           4   1.1342016612783215E-002
           5  -1.7647671050288185E-004
           6   1.9494742420012028E-002
           7   4.2609486543220351E-004
           8   2.5663957861526163E-004
           9  0.64601657921330669     
          10  -1.0227586551804990     
          11  0.13128247770883714     
          12  -9.8972781874079908E-003
          13  0.14557352721972233     
          14  0.10061449901018517     
          15  0.19378605819475442     
          16  -1.0184526818526664E-002
          17 -0.64648929513612663     
          18  -1.0144512162872694     
          19 -0.18303175680468159     
          20  -1.5747358852306840E-003
Sym=    20a
Ene=   0.50068537002161795     
Spin= Alpha
Occup=     0.00000000
           1  0.66919693362132304     
           2  0.49864091754772222     
           3  0.33638838924013220     
           4  0.19209790497676996     
           5  -7.4123302356123884E-005
           6  0.67131110502581526     
           7   1.7209599167275713E-002
           8   3.9310127137727538E-003
           9  0.44086971790790636     
          10   7.6744324726783275E-002
          11 -0.56940302199443238     
          12   2.8787850451759949E-002
          13 -0.66936044015447027     
          14  0.51753725106097870     
          15 -0.31056134341922176     
          16 -0.18609016952541779     
          17 -0.44058874496352568     
          18   4.7624558129447776E-002
          19  0.57240930983838412     
          20  -2.7961194693603395E-002
