$hessian                                                                        
        0.2910659147   0.1594764113   0.0711263074  -0.1399594185   0.0698568653
       -0.0979552124  -0.0496402209   0.0006829643   0.0049133192  -0.0355888556
       -0.0383721467   0.0100644177  -0.0658774197  -0.1916440941   0.0118511681
        0.1594764113   0.2820047037  -0.0071728992   0.0008198668   0.0067833432
       -0.0169492092  -0.0861106321  -0.0343359860  -0.0172659588   0.0376679456
       -0.0273435735   0.0191125353  -0.1118535915  -0.2271084873   0.0222755319
        0.0711263074  -0.0071728992   0.0526625548  -0.0778895954   0.0148172515
       -0.0577637443   0.0237891379  -0.0045902398   0.0024529090  -0.0114839919
        0.0180239846   0.0096646624  -0.0055418579  -0.0210780971  -0.0070163819
       -0.1399594185   0.0008198668  -0.0778895954   0.3044719527   0.0048590285
        0.0032691827  -0.0109093318  -0.0824937805  -0.0080243992  -0.1378327692
       -0.0079175536   0.0759010409  -0.0157704332   0.0847324389   0.0067437710
        0.0698568653   0.0067833432   0.0148172515   0.0048590285   0.1306915293
       -0.0801398685  -0.0007237923  -0.0723003403   0.0235500635  -0.0773828445
        0.0027850471   0.0178581892   0.0033907431  -0.0679595794   0.0239143643
       -0.0979552124  -0.0169492092  -0.0577637443   0.0032691827  -0.0801398685
        0.1253549686  -0.0252385775   0.0532194226  -0.0062086107   0.0975842963
       -0.0118623758  -0.0556114002   0.0223403109   0.0557320310  -0.0057712134
       -0.0496402209  -0.0861106321   0.0237891379  -0.0109093318  -0.0007237923
       -0.0252385775   0.5616299076  -0.0623242012   0.0088670191  -0.0818954452
        0.1191443601   0.0057492698  -0.4191849096   0.0300142655  -0.0131668493
        0.0006829643  -0.0343359860  -0.0045902398  -0.0824937805  -0.0723003403
        0.0532194226  -0.0623242012   0.2457522815  -0.0361561475   0.1994307879
       -0.2112012545  -0.0182955659  -0.0552957705   0.0720852992   0.0058225306
        0.0049133192  -0.0172659588   0.0024529090  -0.0080243992   0.0235500635
       -0.0062086107   0.0088670191  -0.0361561475   0.0105166747  -0.0138341142
        0.0230318919  -0.0070648486   0.0080781751   0.0068401509   0.0003038755
       -0.0355888556   0.0376679456  -0.0114839919  -0.1378327692  -0.0773828445
        0.0975842963  -0.0818954452   0.1994307879  -0.0138341142   0.3088777119
       -0.1581550982  -0.0675898724  -0.0535606419  -0.0015607908  -0.0046763178
       -0.0383721467  -0.0273435735   0.0180239846  -0.0079175536   0.0027850471
       -0.0118623758   0.1191443601  -0.2112012545   0.0230318919  -0.1581550982
        0.2657568158  -0.0126661752   0.0853004384  -0.0299970350  -0.0165273255
        0.0100644177   0.0191125353   0.0096646624   0.0759010409   0.0178581892
       -0.0556114002   0.0057492698  -0.0182955659  -0.0070648486  -0.0675898724
       -0.0126661752   0.0509209051  -0.0241248560  -0.0060089835   0.0020906813
       -0.0658774197  -0.1118535915  -0.0055418579  -0.0157704332   0.0033907431
        0.0223403109  -0.4191849096  -0.0552957705   0.0080781751  -0.0535606419
        0.0853004384  -0.0241248560   0.5543934043   0.0784581805  -0.0007517720
       -0.1916440941  -0.2271084873  -0.0210780971   0.0847324389  -0.0679595794
        0.0557320310   0.0300142655   0.0720852992   0.0068401509  -0.0015607908
       -0.0299970350  -0.0060089835   0.0784581805   0.2529798024  -0.0354851013
        0.0118511681   0.0222755319  -0.0070163819   0.0067437710   0.0239143643
       -0.0057712134  -0.0131668493   0.0058225306   0.0003038755  -0.0046763178
       -0.0165273255   0.0020906813  -0.0007517720  -0.0354851013   0.0103930386
