      -----------------------------------------------------------      
     |                   =====================                   |     
     |                           x T B                           |     
     |                   =====================                   |     
     |                         S. Grimme                         |     
     |          Mulliken Center for Theoretical Chemistry        |     
     |                    University of Bonn                     |     
      -----------------------------------------------------------      

   * xtb version 6.2.2 (9d81278992624c895f80dd42a50cac0aa55982e2) compiled by '@Darwin' on 04/03/2020

   xtb is free software: you can redistribute it and/or modify it under
   the terms of the GNU Lesser General Public License as published by
   the Free Software Foundation, either version 3 of the License, or
   (at your option) any later version.
   
   xtb is distributed in the hope that it will be useful,
   but WITHOUT ANY WARRANTY; without even the implied warranty of
   MERCHANTABILITY or FITNESS FOR A PARTICULAR PURPOSE.  See the
   GNU Lesser General Public License for more details.
   
   Cite this work as:
   * S. Grimme, C. Bannwarth, P. Shushkov, J. Chem. Theory Comput., 2017,
     13, 1989-2009. DOI: 10.1021/acs.jctc.7b00118
   * C. Bannwarth, S. Ehlert and S. Grimme., J. Chem. Theory Comput., 2019,
     15, 1652-1671. DOI: 10.1021/acs.jctc.8b01176
   * P. Pracht, E. Caldeweyher, S. Ehlert, S. Grimme, ChemRxiv, 2019, preprint.
     DOI: 10.26434/chemrxiv.8326202.v1
   
   for DFT-D4:
   * E. Caldeweyher, C. Bannwarth and S. Grimme, J. Chem. Phys., 2017,
     147, 034112. DOI: 10.1063/1.4993215
   * E. Caldeweyher, S. Ehlert, A. Hansen, H. Neugebauer, S. Spicher,
     C. Bannwarth and S. Grimme, J. Chem. Phys., 2019, 150, 154122.
     DOI: 10.1063/1.5090222
   
   for sTDA-xTB:
   * S. Grimme and C. Bannwarth, J. Chem. Phys., 2016, 145, 054103.
     DOI: 10.1063/1.4959605
   
   in the mass-spec context:
   * V. Asgeirsson, C. Bauer and S. Grimme, Chem. Sci., 2017, 8, 4879.
     DOI: 10.1039/c7sc00601b
   
   for metadynamics refer to:
   * S. Grimme, J. Chem. Theory Comput., 2019, 155, 2847-2862
     DOI: 10.1021/acs.jctc.9b00143
   
   with help from (in alphabetical order)
   C. Bannwarth, F. Bohle, G. Brandenburg, E. Caldeweyher, M. Checinski,
   S. Dohm, S. Ehlert, S. Ehrlich, F. März, H. Neugebauer, J. Pisarek,
   P. Pracht, P. Shushkov, and S. Spicher.
   
 * started run on 2020/05/12 at 11:44:37.141     

           -------------------------------------------------
          |                Calculation Setup                |
           -------------------------------------------------

          program call               : xtb --input C5_13_S_2.input C5_13_S_2.xyz --ohess --molden --namespace C5_13_S_2 output.out
          calculation namespace      : C5_13_S_2
          coordinate file            : C5_13_S_2.xyz
          number of atoms            :                     5
          number of electrons        :                    20
          charge                     :                     0
          spin                       :                   1.0
          first test random number   :      0.38274286695575

   ID    Z sym.   atoms
    1    6 C      1-5

           -------------------------------------------------
          |                 G F N 2 - x T B                 |
           -------------------------------------------------

        Reference                      10.1021/acs.jctc.8b01176
      * Hamiltonian:
        H0-scaling (s, p, d)           1.850000    2.230000    2.230000
        zeta-weighting                 0.500000
      * Dispersion:
        s8                             2.700000
        a1                             0.520000
        a2                             5.000000
        s9                             5.000000
      * Repulsion:
        kExp                           1.500000    1.000000
        rExp                           1.000000
      * Coulomb:
        alpha                          2.000000
        third order                    shell-resolved
        anisotropic                    true
        a3                             3.000000
        a5                             4.000000
        cn-shift                       1.200000
        cn-exp                         4.000000
        max-rad                        5.000000


          ...................................................
          :                      SETUP                      :
          :.................................................:
          :  # basis functions                  20          :
          :  # atomic orbitals                  20          :
          :  # shells                           10          :
          :  # electrons                        20          :
          :  max. iterations                   250          :
          :  Hamiltonian                  GFN2-xTB          :
          :  restarted?                      false          :
          :  GBSA solvation                  false          :
          :  PC potential                    false          :
          :  electronic temp.          300.0000000     K    :
          :  accuracy                    1.0000000          :
          :  -> integral cutoff          0.2500000E+02      :
          :  -> integral neglect         0.1000000E-07      :
          :  -> SCF convergence          0.1000000E-05 Eh   :
          :  -> wf. convergence          0.1000000E-03 e    :
          :  Broyden damping             0.4000000          :
          ...................................................

 iter      E             dE          RMSdq      gap      omega  full diag
   1    -10.2146310 -0.102146E+02  0.975E+00    0.73       0.0  T
   2    -10.1909549  0.236761E-01  0.560E+00    0.22       1.0  T
   3     -9.7724328  0.418522E+00  0.748E+00    1.49       1.0  T
   4    -10.2293731 -0.456940E+00  0.112E+00    0.51       1.0  T
   5    -10.2326513 -0.327826E-02  0.568E-01    0.48       1.0  T
   6    -10.2331751 -0.523788E-03  0.392E-01    0.50       1.0  T
   7    -10.2331363  0.387792E-04  0.126E-01    0.52       1.0  T
   8    -10.2331977 -0.613792E-04  0.886E-02    0.51       1.0  T
   9    -10.2332393 -0.416221E-04  0.240E-02    0.51       1.9  T
  10    -10.2332399 -0.509969E-06  0.464E-03    0.51       9.6  T
  11    -10.2332399 -0.528963E-07  0.250E-03    0.51      17.9  T
  12    -10.2332399 -0.121713E-07  0.128E-03    0.51      35.0  T
  13    -10.2332399 -0.110634E-07  0.424E-04    0.51     105.4  T
  14    -10.2332399 -0.141028E-08  0.354E-05    0.51    1264.2  T

   *** convergence criteria satisfied after 14 iterations ***

         #    Occupation            Energy/Eh            Energy/eV
      -------------------------------------------------------------
         1        2.0000           -0.7502251             -20.4147
       ...           ...                  ...                  ...
         5        2.0000           -0.5447963             -14.8247
         6        2.0000           -0.5295558             -14.4099
         7        2.0000           -0.5007905             -13.6272
         8        2.0000           -0.4915126             -13.3747
         9        2.0000           -0.4596545             -12.5078
        10        1.0000           -0.4219452             -11.4817
        11        0.9999           -0.3938734             -10.7178 (HOMO)
        12        0.0001           -0.3752722             -10.2117 (LUMO)
        13                         -0.3567963              -9.7089
        14                         -0.2777254              -7.5573
        15                         -0.1239674              -3.3733
        16                          0.0114893               0.3126
       ...                                ...                  ...
        20                          0.1931209               5.2551
      -------------------------------------------------------------
                  HL-Gap            0.0186012 Eh            0.5062 eV
             Fermi-level           -0.4126863 Eh          -11.2298 eV

 transition dipole moment (au) for excitation:          10          11
     X       Y       Z   
  -0.2057  -0.0051  -0.0011  total (au/Debye):    0.206   0.523
 dE (eV)             :    0.764
 oscillator strength :  0.11211E-02

 SCC (total)                   0 d,  0 h,  0 min,  0.007 sec
 SCC setup                      ...        0 min,  0.000 sec (  1.192%)
 Dispersion                     ...        0 min,  0.000 sec (  0.271%)
 integral evaluation            ...        0 min,  0.001 sec ( 19.623%)
 zeroth order Hamiltonian       ...        0 min,  0.000 sec (  0.300%)
 iterations                     ...        0 min,  0.003 sec ( 40.340%)
 molecular gradient             ...        0 min,  0.002 sec ( 23.143%)
 printout                       ...        0 min,  0.001 sec ( 14.915%)

         :::::::::::::::::::::::::::::::::::::::::::::::::::::
         ::                     SUMMARY                     ::
         :::::::::::::::::::::::::::::::::::::::::::::::::::::
         :: total energy             -10.128653250993 Eh    ::
         :: gradient norm              0.166108401953 Eh/a0 ::
         :: HOMO-LUMO gap              0.506163468413 eV    ::
         ::.................................................::
         :: SCC energy               -10.233239931590 Eh    ::
         :: -> isotropic ES           -0.018588417499 Eh    ::
         :: -> anisotropic ES          0.001733521851 Eh    ::
         :: -> anisotropic XC          0.005790866835 Eh    ::
         :: -> dispersion             -0.002779975681 Eh    ::
         :: repulsion energy           0.104586643504 Eh    ::
         :: add. restraining           0.000000000000 Eh    ::
         :::::::::::::::::::::::::::::::::::::::::::::::::::::

      ----------------------------------------------------------- 
     |                   =====================                   |
     |                        A N C O P T                        |
     |                   =====================                   |
     |               Approximate Normal Coordinate               |
     |                Rational Function Optimizer                |
      ----------------------------------------------------------- 

          ...................................................
          :                      SETUP                      :
          :.................................................:
          :   optimization level            normal          :
          :   max. optcycles                   200          :
          :   ANC micro-cycles                  20          :
          :   degrees of freedom                 9          :
          :.................................................:
          :   RF solver                   davidson          :
          :   write xtbopt.log                true          :
          :   linear?                        false          :
          :   energy convergence         0.5000000E-05 Eh   :
          :   grad. convergence          0.1000000E-02 Eh/α :
          :   maximium RF displ.         1.0000000          :
          :   Hlow (freq-cutoff)         0.1000000E-01      :
          :   Hmax (freq-cutoff)         5.0000000          :
          :   S6 in model hess.         20.0000000          :
          ...................................................

generating ANC from model Hessian ...
Using Lindh-Hessian (1995)
 Shifting diagonal of input Hessian by    0.0000000000000000     
 Lowest  eigenvalues of input Hessian
   -0.000000   -0.000000   -0.000000    0.000000    0.000000    0.000000
    0.082500    0.106681    0.547619    0.565642    0.716672    0.802925
    1.134068    1.336044    1.366531
 Highest eigenvalues
    0.565642    0.716672    0.802925    1.134068    1.336044    1.366531


........................................................................
.............................. CYCLE    1 ..............................
........................................................................
   1    -10.2332399 -0.102332E+02  0.276E-06    0.51       0.0  T
   2    -10.2332399  0.870415E-13  0.397E-06    0.51   11270.5  T
   3    -10.2332399 -0.115463E-12  0.136E-06    0.51   32854.0  T
     SCC iter.                  ...        0 min,  0.001 sec
     gradient                   ...        0 min,  0.001 sec
 * total energy  :   -10.1286533 Eh     change        0.3881695E-10 Eh
   gradient norm :     0.1661085 Eh/α   predicted     0.0000000E+00 (-100.00%)
   displ. norm   :     0.2641946 α      lambda       -0.4082201E-01
   maximum displ.:     0.1716394 α      in ANC's #4, #5, #2, ...

........................................................................
.............................. CYCLE    2 ..............................
........................................................................
   1    -10.2842461 -0.102842E+02  0.178E+00    0.85       0.0  T
   2    -10.2657591  0.184870E-01  0.182E+00    1.03       1.0  T
   3    -10.2848293 -0.190702E-01  0.114E+00    0.85       1.0  T
   4    -10.2904295 -0.560024E-02  0.915E-02    0.89       1.0  T
   5    -10.2904342 -0.467498E-05  0.723E-02    0.90       1.0  T
   6    -10.2904505 -0.162753E-04  0.225E-02    0.90       2.0  T
   7    -10.2904516 -0.116406E-05  0.583E-03    0.90       7.7  T
   8    -10.2904517 -0.942143E-07  0.459E-03    0.90       9.7  T
   9    -10.2904519 -0.129691E-06  0.223E-04    0.90     200.3  T
  10    -10.2904519  0.499636E-10  0.158E-04    0.90     282.7  T
     SCC iter.                  ...        0 min,  0.001 sec
     gradient                   ...        0 min,  0.001 sec
 * total energy  :   -10.1636805 Eh     change       -0.3502727E-01 Eh
   gradient norm :     0.1145141 Eh/α   predicted    -0.2183567E-01 ( -37.66%)
   displ. norm   :     0.5159466 α      lambda       -0.5392765E-01
   maximum displ.:     0.3239287 α      in ANC's #4, #5, #2, ...

........................................................................
.............................. CYCLE    3 ..............................
........................................................................
   1    -10.3652863 -0.103653E+02  0.320E+00    1.56       0.0  T
   2    -10.3424945  0.227918E-01  0.277E+00    1.39       1.0  T
   3    -10.3651725 -0.226779E-01  0.183E+00    1.55       1.0  T
   4    -10.3786225 -0.134501E-01  0.141E-01    1.48       1.0  T
   5    -10.3785995  0.230018E-04  0.984E-02    1.49       1.0  T
   6    -10.3786433 -0.437967E-04  0.411E-02    1.48       1.1  T
   7    -10.3786486 -0.524255E-05  0.978E-03    1.48       4.6  T
   8    -10.3786493 -0.750683E-06  0.468E-03    1.48       9.6  T
   9    -10.3786494 -0.826803E-07  0.262E-04    1.48     171.0  T
  10    -10.3786494 -0.503775E-11  0.191E-04    1.48     233.7  T
     SCC iter.                  ...        0 min,  0.001 sec
     gradient                   ...        0 min,  0.002 sec
 * total energy  :   -10.1926162 Eh     change       -0.2893569E-01 Eh
   gradient norm :     0.0933512 Eh/α   predicted    -0.3414161E-01 (  17.99%)
   displ. norm   :     0.1549377 α      lambda       -0.8258862E-02
   maximum displ.:     0.1306482 α      in ANC's #2, #8, #7, ...

........................................................................
.............................. CYCLE    4 ..............................
........................................................................
   1    -10.3698007 -0.103698E+02  0.603E-01    1.32       0.0  T
   2    -10.3698024 -0.165259E-05  0.358E-01    1.32       1.0  T
   3    -10.3696684  0.133961E-03  0.161E-01    1.30       1.0  T
   4    -10.3698115 -0.143134E-03  0.283E-02    1.31       1.6  T
   5    -10.3698118 -0.285655E-06  0.955E-03    1.31       4.7  T
   6    -10.3698124 -0.619431E-06  0.361E-03    1.31      12.4  T
   7    -10.3698124 -0.152575E-09  0.311E-03    1.31      14.4  T
   8    -10.3698125 -0.835490E-07  0.108E-03    1.31      41.3  T
   9    -10.3698125 -0.373672E-08  0.841E-05    1.31     531.8  T
  10    -10.3698125 -0.192006E-10  0.500E-05    1.31     894.2  T
     SCC iter.                  ...        0 min,  0.001 sec
     gradient                   ...        0 min,  0.001 sec
 * total energy  :   -10.1979985 Eh     change       -0.5382320E-02 Eh
   gradient norm :     0.0348021 Eh/α   predicted    -0.4228560E-02 ( -21.44%)
   displ. norm   :     0.1201875 α      lambda       -0.3192087E-02
   maximum displ.:     0.0874852 α      in ANC's #5, #2, #8, ...

........................................................................
.............................. CYCLE    5 ..............................
........................................................................
   1    -10.3734590 -0.103735E+02  0.828E-01    1.23       0.0  T
   2    -10.3733825  0.765398E-04  0.513E-01    1.24       1.0  T
   3    -10.3721711  0.121142E-02  0.501E-01    1.18       1.0  T
   4    -10.3735578 -0.138668E-02  0.517E-02    1.22       1.0  T
   5    -10.3735674 -0.962991E-05  0.317E-02    1.22       1.4  T
   6    -10.3735699 -0.253827E-05  0.381E-03    1.22      11.7  T
   7    -10.3735699  0.408282E-07  0.271E-03    1.22      16.5  T
   8    -10.3735699 -0.363584E-07  0.182E-03    1.22      24.5  T
   9    -10.3735699 -0.219677E-07  0.102E-04    1.22     438.2  T
  10    -10.3735699 -0.441407E-10  0.486E-05    1.22     920.0  T
     SCC iter.                  ...        0 min,  0.001 sec
     gradient                   ...        0 min,  0.001 sec
 * total energy  :   -10.2002053 Eh     change       -0.2206752E-02 Eh
   gradient norm :     0.0201492 Eh/α   predicted    -0.1619098E-02 ( -26.63%)
   displ. norm   :     0.0923098 α      lambda       -0.1625334E-02
   maximum displ.:     0.0800750 α      in ANC's #5, #8, #7, ...

........................................................................
.............................. CYCLE    6 ..............................
........................................................................
   1    -10.3769029 -0.103769E+02  0.815E-01    1.12       0.0  T
   2    -10.3764682  0.434734E-03  0.547E-01    1.16       1.0  T
   3    -10.3749180  0.155015E-02  0.591E-01    1.07       1.0  T
   4    -10.3770852 -0.216714E-02  0.114E-01    1.12       1.0  T
   5    -10.3771669 -0.817697E-04  0.226E-02    1.12       2.0  T
   6    -10.3771670 -0.121856E-06  0.722E-03    1.12       6.2  T
   7    -10.3771661  0.934123E-06  0.105E-02    1.12       4.3  T
   8    -10.3771672 -0.113893E-05  0.815E-04    1.12      54.9  T
   9    -10.3771672 -0.139712E-09  0.586E-05    1.12     762.9  T
  10    -10.3771672 -0.214584E-11  0.386E-05    1.12    1157.5  T
     SCC iter.                  ...        0 min,  0.001 sec
     gradient                   ...        0 min,  0.001 sec
 * total energy  :   -10.2012337 Eh     change       -0.1028421E-02 Eh
   gradient norm :     0.0141820 Eh/α   predicted    -0.8195915E-03 ( -20.31%)
   displ. norm   :     0.0423899 α      lambda       -0.3523780E-03
   maximum displ.:     0.0386473 α      in ANC's #5, #8, #2, ...

........................................................................
.............................. CYCLE    7 ..............................
........................................................................
   1    -10.3782195 -0.103782E+02  0.402E-01    1.11       0.0  T
   2    -10.3781418  0.777189E-04  0.255E-01    1.12       1.0  T
   3    -10.3777294  0.412411E-03  0.292E-01    1.08       1.0  T
   4    -10.3782480 -0.518593E-03  0.573E-02    1.11       1.0  T
   5    -10.3782709 -0.229241E-04  0.811E-03    1.11       5.5  T
   6    -10.3782709 -0.113632E-07  0.338E-03    1.11      13.2  T
   7    -10.3782708  0.694814E-07  0.380E-03    1.11      11.8  T
   8    -10.3782710 -0.140986E-06  0.375E-04    1.11     119.2  T
   9    -10.3782710 -0.317684E-10  0.695E-05    1.11     643.4  T
     SCC iter.                  ...        0 min,  0.001 sec
     gradient                   ...        0 min,  0.002 sec
 * total energy  :   -10.2014333 Eh     change       -0.1996132E-03 Eh
   gradient norm :     0.0042512 Eh/α   predicted    -0.1765041E-03 ( -11.58%)
   displ. norm   :     0.0142875 α      lambda       -0.3467063E-04
   maximum displ.:     0.0133700 α      in ANC's #2, #7, #4, ...

........................................................................
.............................. CYCLE    8 ..............................
........................................................................
   1    -10.3785958 -0.103786E+02  0.705E-02    1.11       0.0  T
   2    -10.3785849  0.109362E-04  0.544E-02    1.11       1.0  T
   3    -10.3785863 -0.140282E-05  0.506E-02    1.10       1.0  T
   4    -10.3786006 -0.142454E-04  0.204E-03    1.11      21.9  T
   5    -10.3786005  0.194365E-07  0.245E-03    1.11      18.3  T
   6    -10.3786005 -0.106640E-07  0.151E-03    1.11      29.7  T
   7    -10.3786006 -0.202345E-07  0.251E-04    1.11     178.5  T
   8    -10.3786006 -0.512927E-09  0.639E-05    1.11     700.0  T
     SCC iter.                  ...        0 min,  0.001 sec
     gradient                   ...        0 min,  0.001 sec
 * total energy  :   -10.2014538 Eh     change       -0.2052155E-04 Eh
   gradient norm :     0.0021172 Eh/α   predicted    -0.1733754E-04 ( -15.52%)
   displ. norm   :     0.0050156 α      lambda       -0.7271270E-05
   maximum displ.:     0.0029703 α      in ANC's #7, #2, #5, ...

........................................................................
.............................. CYCLE    9 ..............................
........................................................................
   1    -10.3782254 -0.103782E+02  0.287E-02    1.11       0.0  T
   2    -10.3782253  0.167496E-06  0.195E-02    1.11       2.3  T
   3    -10.3782241  0.112927E-05  0.175E-02    1.11       2.5  T
   4    -10.3782257 -0.150931E-05  0.228E-03    1.11      19.6  T
   5    -10.3782257 -0.215591E-07  0.135E-03    1.11      33.1  T
   6    -10.3782257  0.127010E-07  0.133E-03    1.11      33.6  T
   7    -10.3782257 -0.185076E-07  0.715E-05    1.11     625.2  T
   8    -10.3782257  0.611955E-11  0.451E-05    1.11     991.4  T
     SCC iter.                  ...        0 min,  0.001 sec
     gradient                   ...        0 min,  0.002 sec
 * total energy  :   -10.2014581 Eh     change       -0.4232004E-05 Eh
   gradient norm :     0.0011977 Eh/α   predicted    -0.3636769E-05 ( -14.07%)
   displ. norm   :     0.0051790 α      lambda       -0.1998420E-05
   maximum displ.:     0.0041391 α      in ANC's #2, #5, #4, ...

........................................................................
.............................. CYCLE   10 ..............................
........................................................................
   1    -10.3779774 -0.103780E+02  0.294E-02    1.11       0.0  T
   2    -10.3779770  0.430278E-06  0.206E-02    1.11       2.2  T
   3    -10.3779769  0.138944E-06  0.171E-02    1.11       2.6  T
   4    -10.3779779 -0.101744E-05  0.283E-03    1.11      15.8  T
   5    -10.3779779 -0.637222E-07  0.919E-04    1.11      48.6  T
   6    -10.3779779  0.123512E-07  0.124E-03    1.11      36.1  T
   7    -10.3779779 -0.151335E-07  0.642E-05    1.11     696.3  T
     SCC iter.                  ...        0 min,  0.001 sec
     gradient                   ...        0 min,  0.002 sec
 * total energy  :   -10.2014600 Eh     change       -0.1969853E-05 Eh
   gradient norm :     0.0008051 Eh/α   predicted    -0.9998143E-06 ( -49.24%)
   displ. norm   :     0.0036229 α      lambda       -0.1355332E-05
   maximum displ.:     0.0022970 α      in ANC's #8, #4, #2, ...

   *** GEOMETRY OPTIMIZATION CONVERGED AFTER 10 ITERATIONS ***

------------------------------------------------------------------------
 total energy gain   :        -0.0728068 Eh      -45.6869 kcal/mol
 total RMSD          :         0.4624589 a0        0.2447 Å
 total power (kW/mol):       -19.1154185 (step)-4671.0562 (real)
------------------------------------------------------------------------

 ANCopt (total)                0 d,  0 h,  0 min,  0.041 sec
 optimizer setup                ...        0 min,  0.000 sec (  0.159%)
 model hessian                  ...        0 min,  0.000 sec (  0.425%)
 ANC generation                 ...        0 min,  0.000 sec (  0.158%)
 coordinate transformation      ...        0 min,  0.000 sec (  0.063%)
 single point calculation       ...        0 min,  0.040 sec ( 96.985%)
 optimization log               ...        0 min,  0.000 sec (  0.662%)
 hessian update                 ...        0 min,  0.000 sec (  0.063%)
 rational function              ...        0 min,  0.000 sec (  0.583%)

================
 final structure:
================
5
 xtb: 6.2.2 (9d81278992624c895f80dd42a50cac0aa55982e2)
C        -1.24404165778762   -0.47453372624285   -0.11352741418894
C         0.01601893086502   -0.73544613631255    0.49292670491122
C         0.64672016270248    0.82706740752759   -0.13645677990071
C         1.26802726440224   -0.41002389222907   -0.09898643078251
C        -0.68672370018212    0.79293634725688   -0.14395508003906

 Bond Distances (Angstroems)
 ---------------------------
C1-C2=1.4225         C1-C5=1.3849         C2-C1=1.4225         C2-C3=1.7987         C2-C4=1.4226         C2-C5=1.7987         
C3-C2=1.7987         C3-C4=1.3849         C3-C5=1.3339         C4-C2=1.4226         C4-C3=1.3849         C5-C1=1.3849         
C5-C2=1.7987         C5-C3=1.3339         
 C  C  Rav=1.5066 sigma=0.1868  Rmin=1.3339  Rmax=1.7987     7

 selected bond angles (degree)
 --------------------
C5-C1-C2= 79.68                C3-C2-C1= 90.12                C4-C2-C1=124.07                C4-C2-C3= 49.24                
C5-C2-C1= 49.24                C5-C2-C3= 43.53                C5-C2-C4= 90.12                C4-C3-C2= 51.09                
C5-C3-C2= 68.24                C5-C3-C4=115.20                C3-C4-C2= 79.67                C2-C5-C1= 51.08                
C3-C5-C1=115.19                C3-C5-C2= 68.23                

 selected dihedral angles (degree)
 ---------------------------------
C3-C2-C1-C5=343.53            C4-C2-C1-C5=305.42            C4-C3-C2-C1=222.45            C4-C3-C2-C5=204.28            
C5-C3-C2-C1= 18.17            C5-C3-C2-C4=155.72            C3-C4-C2-C1= 54.57            C3-C4-C2-C5= 16.45            
C2-C4-C3-C5=335.03            C3-C5-C1-C2= 24.99            C1-C5-C2-C3=155.69            C1-C5-C2-C4=137.54            
C3-C5-C2-C1=204.31            C3-C5-C2-C4=341.85            C1-C5-C3-C2=339.27            C1-C5-C3-C4=  0.00            
C2-C5-C3-C4= 20.71            
           -------------------------------------------------
          |                Final Singlepoint                |
           -------------------------------------------------

          ...................................................
          :                      SETUP                      :
          :.................................................:
          :  # basis functions                  20          :
          :  # atomic orbitals                  20          :
          :  # shells                           10          :
          :  # electrons                        20          :
          :  max. iterations                   250          :
          :  Hamiltonian                  GFN2-xTB          :
          :  restarted?                      false          :
          :  GBSA solvation                  false          :
          :  PC potential                    false          :
          :  electronic temp.          300.0000000     K    :
          :  accuracy                    1.0000000          :
          :  -> integral cutoff          0.2500000E+02      :
          :  -> integral neglect         0.1000000E-07      :
          :  -> SCF convergence          0.1000000E-05 Eh   :
          :  -> wf. convergence          0.1000000E-03 e    :
          :  Broyden damping             0.4000000          :
          ...................................................

 iter      E             dE          RMSdq      gap      omega  full diag
   1    -10.3779779 -0.103780E+02  0.403E-05    1.11       0.0  T
   2    -10.3779779  0.156817E-10  0.497E-05    1.11     900.4  T
   3    -10.3779779 -0.182681E-10  0.269E-05    1.11    1662.1  T

   *** convergence criteria satisfied after 3 iterations ***

         #    Occupation            Energy/Eh            Energy/eV
      -------------------------------------------------------------
         1        2.0000           -0.7340749             -19.9752
       ...           ...                  ...                  ...
         5        2.0000           -0.5521232             -15.0240
         6        2.0000           -0.5494489             -14.9513
         7        2.0000           -0.4902580             -13.3406
         8        2.0000           -0.4520276             -12.3003
         9        2.0000           -0.4359148             -11.8618
        10        1.0000           -0.4042157             -10.9993
        11        1.0000           -0.3971641             -10.8074 (HOMO)
        12                         -0.3562805              -9.6949 (LUMO)
        13                         -0.2801191              -7.6224
        14                         -0.2414970              -6.5715
        15                         -0.2123821              -5.7792
        16                          0.1017015               2.7674
       ...                                ...                  ...
        20                          0.5006854              13.6243
      -------------------------------------------------------------
                  HL-Gap            0.0408835 Eh            1.1125 eV
             Fermi-level           -0.3983938 Eh          -10.8408 eV

 transition dipole moment (au) for excitation:          10          11
     X       Y       Z   
   1.0236   0.0270   0.0063  total (au/Debye):    1.024   2.603
 dE (eV)             :    0.192
 oscillator strength :  0.69703E-02

 SCC (total)                   0 d,  0 h,  0 min,  0.004 sec
 SCC setup                      ...        0 min,  0.000 sec (  1.047%)
 Dispersion                     ...        0 min,  0.000 sec (  0.318%)
 integral evaluation            ...        0 min,  0.001 sec ( 31.576%)
 zeroth order Hamiltonian       ...        0 min,  0.000 sec (  0.340%)
 iterations                     ...        0 min,  0.000 sec (  8.262%)
 molecular gradient             ...        0 min,  0.001 sec ( 33.319%)
 printout                       ...        0 min,  0.001 sec ( 24.938%)

         :::::::::::::::::::::::::::::::::::::::::::::::::::::
         ::                     SUMMARY                     ::
         :::::::::::::::::::::::::::::::::::::::::::::::::::::
         :: total energy             -10.201460034713 Eh    ::
         :: gradient norm              0.000817238236 Eh/a0 ::
         :: HOMO-LUMO gap              1.112497302196 eV    ::
         ::.................................................::
         :: SCC energy               -10.377977949730 Eh    ::
         :: -> isotropic ES           -0.006678349348 Eh    ::
         :: -> anisotropic ES          0.000339779826 Eh    ::
         :: -> anisotropic XC          0.007463524601 Eh    ::
         :: -> dispersion             -0.002787756142 Eh    ::
         :: repulsion energy           0.176517886268 Eh    ::
         :: add. restraining           0.000000000000 Eh    ::
         :::::::::::::::::::::::::::::::::::::::::::::::::::::

           ------------------------------------------------- 
          |                Numerical Hessian                |
           ------------------------------------------------- 
step length          :   0.00500
SCC accuracy         :   0.30000
Hessian scale factor :   1.00000
frozen atoms in %    :   0.00000    0
RMS gradient         :   0.00082
estimated CPU  time      0.00 min
estimated wall time      0.00 min

writing file <hessian>.

 projected vibrational frequencies (cm-1)
eigval :       -0.00    -0.00    -0.00     0.00     0.00     0.00
eigval :     -201.58   306.30   385.93   498.58   792.00   949.84
eigval :     1286.21  1329.70  1477.21
           -------------------------------------------------
          |                Property Printout                |
           -------------------------------------------------

    * Orbital Energies and Occupations

         #    Occupation            Energy/Eh            Energy/eV
      -------------------------------------------------------------
         1        2.0000           -0.7340750             -19.9752
         2        2.0000           -0.6682849             -18.1850
         3        2.0000           -0.6386196             -17.3777
         4        2.0000           -0.5750210             -15.6471
         5        2.0000           -0.5521233             -15.0240
         6        2.0000           -0.5494490             -14.9513
         7        2.0000           -0.4902581             -13.3406
         8        2.0000           -0.4520277             -12.3003
         9        2.0000           -0.4359149             -11.8618
        10        1.0000           -0.4042157             -10.9993
        11        1.0000           -0.3971641             -10.8074 (HOMO)
        12                         -0.3562806              -9.6949 (LUMO)
        13                         -0.2801191              -7.6224
        14                         -0.2414970              -6.5715
        15                         -0.2123821              -5.7792
        16                          0.1017014               2.7674
        17                          0.2123127               5.7773
        18                          0.3385249               9.2117
        19                          0.4803367              13.0706
        20                          0.5006854              13.6243
      -------------------------------------------------------------
                  HL-Gap            0.0408835 Eh            1.1125 eV
             Fermi-level           -0.3983938 Eh          -10.8408 eV

     #   Z        covCN         q      C6AA      α(0)
     1   6 C      2.021    -0.061    32.661     9.230
     2   6 C      3.641     0.032    20.386     6.492
     3   6 C      2.859     0.045    26.988     8.515
     4   6 C      2.021    -0.061    32.661     9.230
     5   6 C      2.859     0.045    26.989     8.515

 Mol. C6AA /au·bohr⁶  :        692.521740
 Mol. C8AA /au·bohr⁸  :      20028.932175
 Mol. α(0) /au        :         41.982413


Wiberg/Mayer (AO) data.
largest (>0.10) Wiberg bond orders for each atom
          total WBO             WBO to atom ...
     1  C   2.781        C    5 1.314    C    2 1.196    C    4 0.144    C    3 0.127
     2  C   3.227        C    1 1.196    C    4 1.196    C    3 0.418    C    5 0.418
     3  C   3.439        C    5 1.581    C    4 1.314    C    2 0.418    C    1 0.127
     4  C   2.781        C    3 1.314    C    2 1.196    C    1 0.144    C    5 0.127
     5  C   3.439        C    3 1.581    C    1 1.314    C    2 0.418    C    4 0.127

MOs/occ written to file <molden.input>


molecular dipole:
                 x           y           z       tot (Debye)
 q only:       -0.005       0.195       0.031
   full:       -0.018       0.691       0.102       1.776
molecular quadrupole (traceless):
                xx          xy          yy          xz          yz          zz
 q only:       -0.651      -0.027       0.444      -0.001      -0.148       0.208
  q+dip:       -1.164      -0.050       0.838      -0.005      -0.139       0.327
   full:       -2.714      -0.098       1.166      -0.020      -0.161       1.548

           -------------------------------------------------
          |                Geometry Summary                 |
           -------------------------------------------------

      molecular mass/u    :       60.0536795
   center of mass at/Å    :        0.0000002      -0.0000000       0.0000002
  moments of inertia/u·Å² :        0.3063369E+02   0.5083715E+02   0.7701333E+02
rotational constants/cm⁻¹ :        0.5502971E+00   0.3316007E+00   0.2188924E+00

 * 1 selected distances

     #   Z        #   Z                                     value/Å
     3   6 C      5   6 C                                 1.3339017 (max)

 * 1 distinct bonds (by element types)

   Z      Z             #   av. dist./Å        max./Å        min./Å
   6 C    6 C           1     1.3339017     1.3339017     1.3339017

           -------------------------------------------------
          |               Frequency Printout                |
           -------------------------------------------------
 projected vibrational frequencies (cm-1)
eigval :       -0.00    -0.00    -0.00     0.00     0.00     0.00
eigval :     -201.58   306.30   385.93   498.58   792.00   949.84
eigval :     1286.21  1329.70  1477.21
Molecule has the following symmetry elements: (sigma) 
It seems to be the Cs point group
 reduced masses (amu)
   1: 12.01   2: 12.01   3: 12.01   4: 12.01   5: 12.01   6: 12.01   7: 12.01   8: 12.01
   9: 12.01  10: 12.01  11: 12.01  12: 12.01  13: 12.01  14: 12.01  15: 12.01
 IR intensities (amu)
   1:  0.08   2:  0.13   3:  0.13   4:  0.12   5:  0.05   6:  0.17   7:  0.26   8:  0.31
   9:  0.18  10:  0.49  11:  1.01  12:  0.86  13:  0.13  14:  1.32  15:  0.50
 Raman intensities (amu)
   1:  0.00   2:  0.00   3:  0.00   4:  0.00   5:  0.00   6:  0.00   7:  0.00   8:  0.00
   9:  0.00  10:  0.00  11:  0.00  12:  0.00  13:  0.00  14:  0.00  15:  0.00
 output can be read by thermo (or use thermo option).
 writing <g98.out> molden fake output.
 recommended (thermochemical) frequency scaling factor: 1.0
           -------------------------------------------------
          |             Thermodynamic Functions             |
           -------------------------------------------------

cs  symmetry found (for desy threshold:  0.10E+00) used in thermo

          ...................................................
          :                      SETUP                      :
          :.................................................:
          :  # frequencies                           8      :
          :  # imaginary freq.                       1      :
          :  linear?                             false      :
          :  only rotor calc.                    false      :
          :  symmetry                               cs      :
          :  rotational number                       1      :
          :  scaling factor                  1.0000000      :
          :  rotor cutoff                   50.0000000 cm⁻¹ :
          :  imag. cutoff                  -20.0000000 cm⁻¹ :
          :.................................................:

    mode    ω/cm⁻¹     T·S(HO)/kcal·mol⁻¹    T·S(FR)/kcal·mol⁻¹   T·S(vib)
   ------------------------------------------------------------------------
   ------------------------------------------------------------------------

   temp. (K)  partition function   enthalpy   heat capacity  entropy
                                   cal/mol     cal/K/mol   cal/K/mol   J/K/mol
 298.15  VIB   1.75                  698.674      5.885      3.455
         ROT  0.265E+05              888.752      2.981     23.218
         INT  0.463E+05             1587.427      8.866     26.672
         TR   0.450E+27             1481.254      4.968     38.181
         TOT                        3068.6805    13.8340    64.8530   271.3449

   temp. (K)  partition function   enthalpy   heat capacity  entropy
                                   cal/mol     cal/K/mol   cal/K/mol   J/K/mol
 120.00  VIB   1.04                   37.563      1.339      0.390
         ROT  0.676E+04              357.707      2.981     20.505
         INT  0.702E+04              395.270      4.320     20.894
         TR   0.115E+27              596.178      4.968     33.661
         TOT                         991.4476     9.2881    54.5555   228.2604

   temp. (K)  partition function   enthalpy   heat capacity  entropy
                                   cal/mol     cal/K/mol   cal/K/mol   J/K/mol
 100.00  VIB   1.02                   16.227      0.804      0.196
         ROT  0.514E+04              298.089      2.981     19.961
         INT  0.523E+04              314.316      3.784     20.158
         TR   0.875E+26              496.815      4.968     32.756
         TOT                         811.1313     8.7526    52.9136   221.3904

   temp. (K)  partition function   enthalpy   heat capacity  entropy
                                   cal/mol     cal/K/mol   cal/K/mol   J/K/mol
  80.00  VIB   1.01                    4.815      0.360      0.071
         ROT  0.368E+04              238.471      2.981     19.296
         INT  0.370E+04              243.286      3.341     19.367
         TR   0.626E+26              397.452      4.968     31.648
         TOT                         640.7380     8.3088    51.0147   213.4454

   temp. (K)  partition function   enthalpy   heat capacity  entropy
                                   cal/mol     cal/K/mol   cal/K/mol   J/K/mol
  60.00  VIB   1.00                    0.681      0.087      0.013
         ROT  0.239E+04              178.853      2.981     18.438
         INT  0.239E+04              179.534      3.068     18.451
         TR   0.406E+26              298.089      4.968     30.219
         TOT                         477.6232     8.0365    48.6707   203.6382

   temp. (K)  partition function   enthalpy   heat capacity  entropy
                                   cal/mol     cal/K/mol   cal/K/mol   J/K/mol
  40.00  VIB   1.00                    0.015      0.004     -0.000
         ROT  0.130E+04              119.236      2.981     17.230
         INT  0.130E+04              119.251      2.985     17.230
         TR   0.221E+26              198.726      4.968     28.206
         TOT                         317.9770     7.9534    45.4358   190.1032

   temp. (K)  partition function   enthalpy   heat capacity  entropy
                                   cal/mol     cal/K/mol   cal/K/mol   J/K/mol
  20.00  VIB   1.00                    0.000      0.000     -0.001
         ROT   460.                   59.618      2.981     15.164
         INT   460.                   59.618      2.981     15.162
         TR   0.782E+25               99.363      4.968     24.764
         TOT                         158.9808     7.9490    39.9264   167.0520

   temp. (K)  partition function   enthalpy   heat capacity  entropy
                                   cal/mol     cal/K/mol   cal/K/mol   J/K/mol
  10.00  VIB   1.00                    0.000      0.000     -0.002
         ROT   163.                   29.809      2.981     13.097
         INT   163.                   29.809      2.981     13.095
         TR   0.277E+25               49.681      4.968     21.322
         TOT                          79.4904     7.9490    34.4174   144.0026

       T/K    H(0)-H(T)+PV         H(T)/Eh          T*S/Eh         G(T)/Eh
   ------------------------------------------------------------------------
    298.15    0.489025E-02    0.208961E-01    0.308137E-01   -0.991767E-02
    120.00    0.157997E-02    0.175858E-01    0.104328E-01    0.715303E-02
    100.00    0.129262E-02    0.172984E-01    0.843232E-02    0.886613E-02
     80.00    0.102108E-02    0.170269E-01    0.650376E-02    0.105231E-01
     60.00    0.761141E-03    0.167670E-01    0.465370E-02    0.121133E-01
     40.00    0.506729E-03    0.165126E-01    0.289626E-02    0.136163E-01
     20.00    0.253352E-03    0.162592E-01    0.127254E-02    0.149866E-01
     10.00    0.126676E-03    0.161325E-01    0.548477E-03    0.155840E-01 (used)
   ------------------------------------------------------------------------

         :::::::::::::::::::::::::::::::::::::::::::::::::::::
         ::                  THERMODYNAMIC                  ::
         :::::::::::::::::::::::::::::::::::::::::::::::::::::
         :: total free energy         -10.185876005987 Eh   ::
         ::.................................................::
         :: total energy              -10.201460034746 Eh   ::
         :: zero point energy           0.016005829671 Eh   ::
         :: G(RRHO) w/o ZPVE           -0.000421800912 Eh   ::
         :: G(RRHO) contrib.            0.015584028759 Eh   ::
         :::::::::::::::::::::::::::::::::::::::::::::::::::::
imag cut-off (cm-1) :    5.00
 found            1  significant imaginary frequency
 writing imag mode distorted coords to xtbhess.xyz
 for further optimization.

optimized geometry written to: xtbopt.xyz


           -------------------------------------------------
          | TOTAL ENERGY              -10.201460034746 Eh   |
          | TOTAL ENTHALPY            -10.185327529060 Eh   |
          | TOTAL FREE ENERGY         -10.185876005987 Eh   |
          | GRADIENT NORM               0.000817248108 Eh/α |
          | HOMO-LUMO GAP               1.112497960740 eV   |
           -------------------------------------------------

------------------------------------------------------------------------
 * finished run on 2020/05/12 at 11:44:37.323     
------------------------------------------------------------------------
 total:
 * wall-time:     0 d,  0 h,  0 min,  0.181 sec
 *  cpu-time:     0 d,  0 h,  0 min,  0.180 sec
 * ratio c/w:     0.995 speedup
 SCF:
 * wall-time:     0 d,  0 h,  0 min,  0.007 sec
 *  cpu-time:     0 d,  0 h,  0 min,  0.007 sec
 * ratio c/w:     0.917 speedup
 ANC optimizer:
 * wall-time:     0 d,  0 h,  0 min,  0.046 sec
 *  cpu-time:     0 d,  0 h,  0 min,  0.046 sec
 * ratio c/w:     0.999 speedup
 numerical hessian:
 * wall-time:     0 d,  0 h,  0 min,  0.111 sec
 *  cpu-time:     0 d,  0 h,  0 min,  0.111 sec
 * ratio c/w:     0.999 speedup

