 Entering Gaussian System
 *********************************************
 Gaussian 98:
 frequency output generated by the xtb code
 *********************************************
                         Standard orientation:
 --------------------------------------------------------------------
  Center     Atomic     Atomic              Coordinates (Angstroms)
  Number     Number      Type              X           Y           Z
 --------------------------------------------------------------------
    1          6             0       -1.244045   -0.474527   -0.113522
    2          6             0        0.016017   -0.735445    0.492928
    3          6             0        0.646724    0.827064   -0.136460
    4          6             0        1.268025   -0.410031   -0.098990
    5          6             0       -0.686720    0.792940   -0.143954
 --------------------------------------------------------------------
     1 basis functions        1 primitive gaussians
     1 alpha electrons        1 beta electrons

 Harmonic frequencies (cm**-1), IR intensities (KM/Mole),
 Raman scattering activities (A**4/amu), Raman depolarization ratios,
 reduced masses (AMU), force constants (mDyne/A) and normal coordinates:
                      1                      2                      3
                        a                      a                      a 
 Frequencies --  -201.5781               306.2962               385.9253
 Red. masses --    12.0107                12.0107                12.0107
 Frc consts  --     0.0000                 0.0000                 0.0000
 IR Inten    --     0.2611                 0.3097                 0.1751
 Raman Activ --     0.0000                 0.0000                 0.0000
 Depolar     --     0.0000                 0.0000                 0.0000
 Atom AN      X      Y      Z        X      Y      Z        X      Y      Z
   1   6    -0.21   0.07   0.22     0.22   0.03   0.19     0.39  -0.11  -0.38
   2   6     0.15   0.00   0.00     0.06   0.00  -0.00    -0.01   0.12   0.58
   3   6     0.12   0.37   0.49    -0.24  -0.44   0.39     0.02   0.06   0.10
   4   6    -0.21  -0.08  -0.23     0.23  -0.02  -0.19    -0.38  -0.13  -0.39
   5   6     0.15  -0.36  -0.48    -0.26   0.43  -0.40    -0.03   0.06   0.10
                      4                      5                      6
                        a                      a                      a 
 Frequencies --   498.5766               791.9959               949.8400
 Red. masses --    12.0107                12.0107                12.0107
 Frc consts  --     0.0000                 0.0000                 0.0000
 IR Inten    --     0.4905                 1.0077                 0.8623
 Raman Activ --     0.0000                 0.0000                 0.0000
 Depolar     --     0.0000                 0.0000                 0.0000
 Atom AN      X      Y      Z        X      Y      Z        X      Y      Z
   1   6     0.32   0.16   0.16     0.31  -0.40   0.20     0.14  -0.32   0.21
   2   6     0.02  -0.73   0.03    -0.00   0.31  -0.43    -0.73  -0.02  -0.00
   3   6    -0.02   0.22  -0.18    -0.01   0.25   0.02     0.24   0.00   0.06
   4   6    -0.33   0.14   0.16    -0.30  -0.41   0.20     0.12   0.33  -0.21
   5   6     0.01   0.22  -0.18    -0.00   0.25   0.02     0.24   0.01  -0.06
                      7                      8                      9
                        a                      a                      a 
 Frequencies --  1286.2055              1329.7023              1477.2054
 Red. masses --    12.0107                12.0107                12.0107
 Frc consts  --     0.0000                 0.0000                 0.0000
 IR Inten    --     0.1322                 1.3206                 0.5031
 Raman Activ --     0.0000                 0.0000                 0.0000
 Depolar     --     0.0000                 0.0000                 0.0000
 Atom AN      X      Y      Z        X      Y      Z        X      Y      Z
   1   6     0.38   0.31   0.08     0.38   0.37   0.05    -0.08  -0.08  -0.04
   2   6    -0.00   0.23  -0.24    -0.32  -0.01  -0.00     0.00  -0.04   0.08
   3   6    -0.15  -0.42   0.04    -0.24   0.31  -0.04    -0.69   0.08  -0.01
   4   6    -0.39   0.29   0.08     0.40  -0.35  -0.05     0.09  -0.07  -0.04
   5   6     0.17  -0.41   0.04    -0.22  -0.33   0.04     0.68   0.11   0.00
