5
 energy: -10.128653250954 gnorm: 0.166108526429 xtb: 6.2.2 (9d81278992624c895f80dd42a50cac0aa55982e2)
C        -1.22009900000000   -0.65297700000000   -0.25999600000000
C         0.00571800000000   -0.35310300000000    0.58173900000000
C         0.73673100000000    0.81719000000000   -0.03367700000000
C         1.25491900000000   -0.58944800000000   -0.24572600000000
C        -0.77726800000000    0.77833800000000   -0.04233900000000
5
 energy: -10.163680517558 gnorm: 0.114515348962 xtb: 6.2.2 (9d81278992624c895f80dd42a50cac0aa55982e2)
C        -1.22285965283866   -0.60045226059535   -0.22951282314173
C         0.00798935856161   -0.43978993379802    0.57285237714939
C         0.69822720531063    0.80697281111400   -0.05995519106838
C         1.25463165705495   -0.53685363638095   -0.21522415433164
C        -0.73798756808853    0.77012301966031   -0.06815920860764
5
 energy: -10.192616204633 gnorm: 0.093415554884 xtb: 6.2.2 (9d81278992624c895f80dd42a50cac0aa55982e2)
C        -1.25087668130126   -0.49966204435859   -0.16839735332639
C         0.01245386705404   -0.60909568058913    0.55084924805801
C         0.62686187591922    0.78833228191740   -0.11061697986350
C         1.27673428229467   -0.43476444760868   -0.15382989534131
C        -0.66517234396667    0.75518989063900   -0.11800401952681
5
 energy: -10.197998524651 gnorm: 0.034962907687 xtb: 6.2.2 (9d81278992624c895f80dd42a50cac0aa55982e2)
C        -1.27870584096458   -0.48452498690844   -0.14464978247896
C         0.01372118032076   -0.65173128540291    0.52076840294290
C         0.64472347202320    0.79427331727025   -0.11938551805984
C         1.30348156492228   -0.41823086981062   -0.12976351734198
C        -0.68321937630166    0.76021382485171   -0.12696858506212
5
 energy: -10.200205276933 gnorm: 0.020419827078 xtb: 6.2.2 (9d81278992624c895f80dd42a50cac0aa55982e2)
C        -1.27568489332136   -0.47123042112999   -0.12466402843585
C         0.01499935417613   -0.69710555000628    0.50088721931994
C         0.64885516464857    0.80386311806030   -0.12939999357357
C         1.29956304026797   -0.40511896982293   -0.10980874877014
C        -0.68773166577131    0.76959182289889   -0.13701344854038
5
 energy: -10.201233698281 gnorm: 0.014228724924 xtb: 6.2.2 (9d81278992624c895f80dd42a50cac0aa55982e2)
C        -1.25582408958016   -0.47067447453442   -0.11399461878753
C         0.01578131095221   -0.72525033652211    0.49002635027353
C         0.65098770442764    0.81794355875883   -0.13452067137656
C         1.27958320639313   -0.40557927328274   -0.09936255242056
C        -0.69052713219282    0.78356052558043   -0.14214750768889
5
 energy: -10.201433311487 gnorm: 0.004251282814 xtb: 6.2.2 (9d81278992624c895f80dd42a50cac0aa55982e2)
C        -1.24822326272371   -0.47150428725412   -0.10970891772565
C         0.01614997443056   -0.73884522151175    0.48648241399875
C         0.64786151647210    0.82568401211014   -0.13703233149551
C         1.27199555693700   -0.40680031112694   -0.09514680037687
C        -0.68778278511595    0.79146580778268   -0.14459336440073
5
 energy: -10.201453833034 gnorm: 0.002144374231 xtb: 6.2.2 (9d81278992624c895f80dd42a50cac0aa55982e2)
C        -1.24464374251956   -0.47365420189029   -0.11151593293360
C         0.01608596298397   -0.73704122259600    0.48918115785823
C         0.64704213577186    0.82699352993197   -0.13656053520170
C         1.26854891900109   -0.40912083117015   -0.09699344737271
C        -0.68703227523736    0.79282272572447   -0.14411024235023
5
 energy: -10.201458065038 gnorm: 0.001224601783 xtb: 6.2.2 (9d81278992624c895f80dd42a50cac0aa55982e2)
C        -1.24467197720241   -0.47422422162126   -0.11251926530148
C         0.01605206403418   -0.73612549604791    0.49092714768957
C         0.64655310043212    0.82708946883445   -0.13645727915485
C         1.26862778545571   -0.40969301272808   -0.09797908913190
C        -0.68655997271959    0.79295326156280   -0.14397051410134
5
 energy: -10.201460034891 gnorm: 0.000817375413 xtb: 6.2.2 (9d81278992624c895f80dd42a50cac0aa55982e2)
C        -1.24404165778762   -0.47453372624285   -0.11352741418894
C         0.01601893086502   -0.73544613631255    0.49292670491122
C         0.64672016270248    0.82706740752759   -0.13645677990071
C         1.26802726440224   -0.41002389222907   -0.09898643078251
C        -0.68672370018212    0.79293634725688   -0.14395508003906
