$hessian                                                                        
        0.7201038700   0.0021016835  -0.0027573953  -0.6246135816  -0.0048651471
        0.0117786466  -0.0107074721   0.0070115241  -0.0208189428  -0.0423488453
       -0.0056379937   0.0047188322  -0.0424339710   0.0013899331   0.0070788592
        0.0021016835   0.0102012456  -0.0007020253  -0.0027506103  -0.0078210876
        0.0047108799  -0.0005338790   0.0113332391   0.0016724942  -0.0039761988
       -0.0052637703  -0.0062017763   0.0051590046  -0.0084496268   0.0005204275
       -0.0027573953  -0.0007020253   0.0119473724   0.0048754397   0.0046488293
       -0.0200624653   0.0011607682   0.0016101034   0.0071717597  -0.0031249945
       -0.0038866770  -0.0012268989  -0.0001538182  -0.0016702304   0.0021702321
       -0.6246135816  -0.0027506103   0.0048754397   0.8124482207  -0.0011564630
        0.0073303939  -0.1029479127  -0.0234527999   0.0678640249  -0.0418735222
       -0.0587762863  -0.0641445920  -0.0430132041   0.0861361595  -0.0159252665
       -0.0048651471  -0.0078210876   0.0046488293  -0.0011564630   0.0929167320
        0.0100162507  -0.0057088235   0.0354308071   0.0100335196  -0.0257452631
       -0.0502419170  -0.0307509249   0.0374756967  -0.0702845344   0.0060523252
        0.0117786466   0.0047108799  -0.0200624653   0.0073303939   0.0100162507
        0.0662076429   0.0154824595   0.0099403576   0.0091750287  -0.0278660473
       -0.0210138910  -0.0377965961  -0.0067254527  -0.0036535973  -0.0175236102
       -0.0107074721  -0.0005338790   0.0011607682  -0.1029479127  -0.0057088235
        0.0154824595   0.2411726239   0.0560106564  -0.1708617925  -0.0646923436
        0.1411288128   0.1333462650  -0.0628248955  -0.1908967667   0.0208722998
        0.0070115241   0.0113332391   0.0016101034  -0.0234527999   0.0354308071
        0.0099403576   0.0560106564   0.4920265912   0.0912163351   0.0770246490
       -0.1637281634  -0.1737322162  -0.1165940297  -0.3750624740   0.0709654201
       -0.0208189428   0.0016724942   0.0071717597   0.0678640249   0.0100335196
        0.0091750287  -0.1708617925   0.0912163351   0.2492008047   0.0950144688
       -0.2072766123  -0.2378951783   0.0288022417   0.1043542633  -0.0276524148
       -0.0423488453  -0.0039761988  -0.0031249945  -0.0418735222  -0.0257452631
       -0.0278660473  -0.0646923436   0.0770246490   0.0950144688   0.1241056535
       -0.0613789947  -0.0717222650   0.0248090576   0.0140758077   0.0076988380
       -0.0056379937  -0.0052637703  -0.0038866770  -0.0587762863  -0.0502419170
       -0.0210138910   0.1411288128  -0.1637281634  -0.2072766123  -0.0613789947
        0.2727633594   0.2460437285  -0.0153355380  -0.0535295087  -0.0138665483
        0.0047188322  -0.0062017763  -0.0012268989  -0.0641445920  -0.0307509249
       -0.0377965961   0.1333462650  -0.1737322162  -0.2378951783  -0.0717222650
        0.2460437285   0.2651656797  -0.0021982402  -0.0353588111   0.0117529937
       -0.0424339710   0.0051590046  -0.0001538182  -0.0430132041   0.0374756967
       -0.0067254527  -0.0628248955  -0.1165940297   0.0288022417   0.0248090576
       -0.0153355380  -0.0021982402   0.1234630129   0.0892948663  -0.0197247305
        0.0013899331  -0.0084496268  -0.0016702304   0.0861361595  -0.0702845344
       -0.0036535973  -0.1908967667  -0.3750624740   0.1043542633   0.0140758077
       -0.0535295087  -0.0353588111   0.0892948663   0.5073261439  -0.0636716244
        0.0070788592   0.0005204275   0.0021702321  -0.0159252665   0.0060523252
       -0.0175236102   0.0208722998   0.0709654201  -0.0276524148   0.0076988380
       -0.0138665483   0.0117529937  -0.0197247305  -0.0636716244   0.0312527992
