[Molden Format]
[Title]
[Atoms] AU
C      1     6  0.33872086496611E+01 -0.78560941654072E-02  0.49919510923156E-01
C      2     6  0.98920526857719E+00 -0.98407646660237E-02  0.45130610572117E-01
C      3     6 -0.21544242759538E+01 -0.24315559534486E+00  0.70409022765025E+00
C      4     6 -0.11043487666311E+01 -0.17701899830461E+01 -0.10359956791805E+01
C      5     6 -0.11176408756500E+01  0.20310443269450E+01  0.23685344030571E+00
[GTO]
           1 0
 s           4   1.0000000000000000     
   51.049363095579913      -0.16312063210127389     
   8.7911227406887544      -0.19911024581000730     
  0.70640422258929825       0.31882047753655751     
  0.26922813413411617       0.12706504184240380     
 p           4   1.0000000000000000     
   5.8263656140800002       0.73716451545209605     
   1.5106896018720002       0.68216371614850257     
  0.53256483288000001       0.35783053929253711     
  0.21202323690600003        5.3983030275847881E-002

           2 0
 s           4   1.0000000000000000     
   51.049363095579913      -0.16312063210127389     
   8.7911227406887544      -0.19911024581000730     
  0.70640422258929825       0.31882047753655751     
  0.26922813413411617       0.12706504184240380     
 p           4   1.0000000000000000     
   5.8263656140800002       0.73716451545209605     
   1.5106896018720002       0.68216371614850257     
  0.53256483288000001       0.35783053929253711     
  0.21202323690600003        5.3983030275847881E-002

           3 0
 s           4   1.0000000000000000     
   51.049363095579913      -0.16312063210127389     
   8.7911227406887544      -0.19911024581000730     
  0.70640422258929825       0.31882047753655751     
  0.26922813413411617       0.12706504184240380     
 p           4   1.0000000000000000     
   5.8263656140800002       0.73716451545209605     
   1.5106896018720002       0.68216371614850257     
  0.53256483288000001       0.35783053929253711     
  0.21202323690600003        5.3983030275847881E-002

           4 0
 s           4   1.0000000000000000     
   51.049363095579913      -0.16312063210127389     
   8.7911227406887544      -0.19911024581000730     
  0.70640422258929825       0.31882047753655751     
  0.26922813413411617       0.12706504184240380     
 p           4   1.0000000000000000     
   5.8263656140800002       0.73716451545209605     
   1.5106896018720002       0.68216371614850257     
  0.53256483288000001       0.35783053929253711     
  0.21202323690600003        5.3983030275847881E-002

           5 0
 s           4   1.0000000000000000     
   51.049363095579913      -0.16312063210127389     
   8.7911227406887544      -0.19911024581000730     
  0.70640422258929825       0.31882047753655751     
  0.26922813413411617       0.12706504184240380     
 p           4   1.0000000000000000     
   5.8263656140800002       0.73716451545209605     
   1.5106896018720002       0.68216371614850257     
  0.53256483288000001       0.35783053929253711     
  0.21202323690600003        5.3983030275847881E-002

[MO]
Sym=     1a
Ene=  -0.75193217114923894     
Spin= Alpha
Occup=     2.00000000
           1   6.4095383216009411E-002
           2  -4.7522825540262256E-002
           3   1.6103494316674561E-004
           4  -8.4770114238122635E-004
           5  0.29000414779686706     
           6 -0.13073738726632400     
           7   1.0827010803077493E-003
           8  -4.9120994074079265E-003
           9  0.35840990221792401     
          10  0.14219484924072684     
          11   3.0641724470515854E-002
          12  -9.0031453414020093E-002
          13  0.30254485287255234     
          14   1.1988795588618329E-002
          15  0.11362222763956029     
          16   8.1092041923455427E-002
          17  0.30246253856793670     
          18   1.2928298644432644E-002
          19 -0.13945523247500657     
          20  -3.6647640627339344E-003
Sym=     2a
Ene=  -0.69122232082305513     
Spin= Alpha
Occup=     2.00000000
           1  0.53554162162792318     
           2 -0.16252202987518136     
           3   1.3588950549342694E-004
           4  -1.1471469615625643E-003
           5  0.39688713606414111     
           6  0.28524903210485536     
           7   2.2517863475695564E-003
           8  -5.4832774648629658E-003
           9 -0.17091462188458234     
          10   2.2942989502833327E-002
          11  -1.2406844061879613E-002
          12   3.6638596699065294E-002
          13  -6.7069524345971604E-002
          14   9.3384907817876173E-002
          15  -1.6385683658684275E-002
          16  -1.9091161758595619E-002
          17  -6.7687287887494091E-002
          18   9.3113948675766181E-002
          19   2.5211939396225749E-002
          20  -5.2442680082048342E-003
Sym=     3a
Ene=  -0.66438981829777777     
Spin= Alpha
Occup=     2.00000000
           1   1.3633128337856191E-004
           2  -2.1517153197900450E-004
           3   5.4731580806548739E-002
           4   1.8318208829861665E-002
           5   7.9832348771244766E-004
           6  -8.5581059304940389E-004
           7  0.24367690858839930     
           8   8.1547689374061622E-002
           9  -4.5895069311192074E-004
          10  -1.1366182715742486E-003
          11  0.35724110735766512     
          12  0.11974213601997197     
          13 -0.47359515931509794     
          14   4.7356366500703575E-003
          15   1.5458133707997392E-002
          16  -7.0232553952730203E-002
          17  0.47341056901216633     
          18  -4.0921250229243849E-003
          19  -2.9939196036755308E-002
          20   6.5307199739928420E-002
Sym=     4a
Ene=  -0.59285371268745291     
Spin= Alpha
Occup=     2.00000000
           1  0.34437132862848802     
           2   6.1946396793586260E-002
           3  -1.4681042126390015E-002
           4   4.4702724352430723E-002
           5 -0.21333298655192481     
           6  0.25178182575038088     
           7  -3.7853228518063040E-002
           8  0.11498613908264660     
           9  0.47932933732780858     
          10 -0.28020027452356966     
          11  -2.0369602040728749E-003
          12   5.1010353769330545E-003
          13  -2.6167320054173823E-002
          14 -0.30158632355197479     
          15  -2.0895809553466163E-002
          16   9.4101588236299522E-002
          17  -2.5245101687491910E-002
          18 -0.30209822537781122     
          19  -4.1869136135236559E-002
          20   8.7320270629022381E-002
Sym=     5a
Ene=  -0.57299339983953201     
Spin= Alpha
Occup=     2.00000000
           1  0.10418183680576173     
           2   3.3661358461771519E-002
           3   5.2342764287129043E-002
           4 -0.15578517983282564     
           5  -9.7110672815676882E-002
           6   8.4681796182922306E-002
           7  0.12512659777677743     
           8 -0.37250892120639661     
           9 -0.14894050368388131     
          10 -0.19294317497733135     
          11  0.12879053676565297     
          12 -0.38650580043326421     
          13  0.19823998411394059     
          14  -9.2832895808283689E-002
          15  0.11031001963293646     
          16 -0.28206059281109092     
          17  0.19843331824781812     
          18  -9.2676114287359834E-002
          19   8.1217759278020607E-002
          20 -0.29180658844416646     
Sym=     6a
Ene=  -0.54512720296790662     
Spin= Alpha
Occup=     2.00000000
           1  -6.6330955994935934E-005
           2  -5.8481363252994563E-004
           3  0.27088665263127792     
           4   9.0783918861679025E-002
           5   5.2423831932166037E-004
           6  -9.4500551078634113E-004
           7  0.45985647263668439     
           8  0.15406232419304486     
           9   4.4143913576129848E-004
          10   5.5376996510664799E-004
          11 -0.30841447667575600     
          12 -0.10307679093279377     
          13   8.2881398887202796E-003
          14 -0.37098488054635698     
          15  -1.5575741386998790E-002
          16   8.4295255776559358E-002
          17  -7.7977574617472565E-003
          18  0.37052813564064263     
          19   4.1182827687855653E-002
          20  -7.5293885815011674E-002
Sym=     7a
Ene=  -0.49696787664839215     
Spin= Alpha
Occup=     2.00000000
           1  0.11674557799793568     
           2   9.9818073869662197E-002
           3  -5.3150787446956713E-002
           4  0.15845111614749469     
           5 -0.10820579720527136     
           6   2.5213056249204790E-002
           7  -6.3157256729287459E-002
           8  0.18890458318260653     
           9 -0.16364617473777687     
          10   6.0506753142594502E-002
          11  -1.3812243817083394E-002
          12   4.2524418124304166E-002
          13  0.48917041279202711     
          14   4.4147515328873564E-003
          15 -0.41706105665199894     
          16 -0.11096919229472152     
          17  0.48899186808798034     
          18   9.7406319015268120E-004
          19  0.39947974708683975     
          20  0.16290009079656087     
Sym=     8a
Ene=  -0.47243870605634214     
Spin= Alpha
Occup=     2.00000000
           1  0.44725033190645958     
           2  0.48570950457815348     
           3  -9.3407727352691275E-002
           4  0.28164963852897867     
           5 -0.15816198417367736     
           6 -0.14622121471877680     
           7  -8.1274026247374662E-002
           8  0.24216708534642711     
           9 -0.23106476984645366     
          10  0.29119655772756231     
          11   8.7925160505266248E-002
          12 -0.26067194297396240     
          13  -9.2732419923316295E-002
          14   1.0702334342842037E-003
          15  0.19798643763204274     
          16  -1.4192481097840435E-002
          17  -9.2363825361231375E-002
          18   3.2149337312129180E-003
          19 -0.14907630702733957     
          20 -0.13063382199315840     
Sym=     9a
Ene=  -0.46780532235746652     
Spin= Alpha
Occup=     2.00000000
           1  0.36899084655069408     
           2  0.42173085762550705     
           3  0.14270748390404744     
           4 -0.42660929059991287     
           5 -0.14717299523878799     
           6 -0.12294529938948341     
           7  0.11960717171481261     
           8 -0.35925704296580685     
           9  0.13437156566553449     
          10   7.8949037183443468E-002
          11 -0.10982032095726621     
          12  0.32663694102410273     
          13   1.9875346698726769E-002
          14  0.13699705733596770     
          15  -9.0482512337085777E-002
          16  0.11237458529925905     
          17   2.1676191569580013E-002
          18  0.13692099873128544     
          19   7.3204706262588850E-003
          20  0.14281887938012131     
Sym=    10a
Ene=  -0.45356668166740660     
Spin= Alpha
Occup=     2.00000000
           1   9.7807125988508487E-004
           2   9.1407804567963686E-004
           3  0.23654296667872160     
           4   7.7856829683602718E-002
           5  -2.3527348404539023E-004
           6  -7.7952412978662033E-004
           7  0.16296925264270082     
           8   5.3786276471741855E-002
           9   2.9019849497883779E-004
          10  -5.8903765480217986E-004
          11  0.24588789140710268     
          12   8.3032201297076502E-002
          13  0.36670513184766262     
          14  -3.1753587218509467E-003
          15 -0.17722689555778146     
          16 -0.49743968105077724     
          17 -0.36690816619937222     
          18   6.1032441925198298E-003
          19 -0.44139583836588209     
          20  0.29093096749464931     
Sym=    11a
Ene=  -0.38017695978379407     
Spin= Alpha
Occup=     0.00000000
           1  -2.9950394855049565E-004
           2  -1.4088605263064186E-003
           3  0.70456731090921143     
           4  0.23493774491936165     
           5  -6.8105225826867091E-004
           6   6.7987755034783410E-004
           7  -1.4463756990173651E-002
           8  -4.8497538135729192E-003
           9  -7.5754267879479451E-004
          10   1.8914177945336236E-003
          11   4.6632577611563510E-002
          12   1.4984573544048094E-002
          13   2.9030457171143078E-002
          14  0.34370125792020290     
          15 -0.21401709531922436     
          16  0.29298657989300747     
          17  -2.8715346507953540E-002
          18 -0.34394766799386556     
          19   2.8891646433449390E-003
          20 -0.36237132488425722     
Sym=    12a
Ene=  -0.35772171737830583     
Spin= Alpha
Occup=     0.00000000
           1  -4.9710831516782496E-002
           2 -0.15939396652622728     
           3  0.16589374109948732     
           4 -0.46586285782186881     
           5 -0.11160090899791839     
           6  0.15449665012038558     
           7  -3.4820169600194954E-002
           8   9.4901423191522366E-002
           9 -0.30087597615064271     
          10  0.49779550463569811     
          11  0.12294326756316827     
          12 -0.37269771603736990     
          13  -1.8959580792483884E-002
          14 -0.25548597086775165     
          15 -0.12031243002381085     
          16  0.28350321853775773     
          17  -1.8283225558021417E-002
          18 -0.25786521443349725     
          19  -5.4442607097462639E-002
          20  0.32815016248740314     
Sym=    13a
Ene=  -0.35511823624015343     
Spin= Alpha
Occup=     0.00000000
           1  -1.1604135714190899E-003
           2  -3.6312831717152001E-003
           3 -0.40407593055730834     
           4 -0.14891270804857562     
           5  -2.6387685448460495E-003
           6   3.6056898345380372E-003
           7  0.12375396882133666     
           8   4.4360629980074347E-002
           9  -8.1626515729991533E-003
          10   1.2450337064800202E-002
          11  0.12030244282723038     
          12   2.8763303561437484E-002
          13   2.3579983851267764E-003
          14  -8.1749314483597429E-002
          15 -0.64938136000065660     
          16  0.18356000857269172     
          17  -3.6711611334552842E-003
          18   7.1314006104057012E-002
          19 -0.41088893003939037     
          20 -0.52026654222673718     
Sym=    14a
Ene=  -0.26083113669735103     
Spin= Alpha
Occup=     0.00000000
           1  -7.9014871559474151E-003
           2  0.12521037817746705     
           3  -5.0704589788817429E-002
           4  0.15351646959306930     
           5  0.11152662386576036     
           6  -9.8326584048531826E-002
           7   4.9594680387913280E-002
           8 -0.14887352313734190     
           9  -9.2363064040044143E-002
          10 -0.56034897982946119     
          11  0.18197759908271280     
          12 -0.54967614035161838     
          13  -4.4189180514973343E-002
          14  0.27189473382044432     
          15 -0.21055699506411255     
          16  0.43580031402662323     
          17  -4.4523682571740303E-002
          18  0.27023693230809848     
          19  -9.1998022800113113E-002
          20  0.47547148147715579     
Sym=    15a
Ene=  -0.21634586283453389     
Spin= Alpha
Occup=     0.00000000
           1  -5.8804181753946009E-003
           2 -0.14568951294731808     
           3 -0.20990921231891901     
           4  0.62513470055355136     
           5 -0.25287768807970828     
           6  0.19666390628672792     
           7  0.24910842439246866     
           8 -0.74217985348994320     
           9  -2.8460193275908843E-002
          10  0.41029826020758198     
          11  -3.6221589687121900E-002
          12  0.11312584410201527     
          13   1.6751143131729103E-002
          14 -0.11191884892225276     
          15  -3.6003018608519198E-002
          16  0.18918801513494529     
          17   1.6851346115385409E-002
          18 -0.11087402257712835     
          19  -8.6289585698888463E-002
          20  0.17317025403339026     
Sym=    16a
Ene=   -1.0580072894591810E-002
Spin= Alpha
Occup=     0.00000000
           1  -4.6696071224413299E-002
           2  0.28945704301304875     
           3  -1.5715340921698427E-002
           4   9.4086082207015587E-002
           5  0.90015256363915241     
           6 -0.50076441099399605     
           7   3.6141620163302253E-002
           8 -0.21523299727247761     
           9 -0.33075517426267786     
          10 -0.14396261743793601     
          11  -4.4732198704204459E-002
          12  0.15663174222251436     
          13 -0.15712958154140894     
          14 -0.56536411873296599     
          15 -0.18659401899211212     
          16  -1.9281605984274169E-002
          17 -0.14362786265911415     
          18 -0.53063917962779328     
          19  0.14679187082043485     
          20   9.1849223331902055E-002
Sym=    17a
Ene=   -3.9835337798826455E-003
Spin= Alpha
Occup=     0.00000000
           1  -2.1146671345485257E-003
           2   1.1199768657231384E-002
           3 -0.40054485878642604     
           4 -0.13071368579866494     
           5   3.0881151338100345E-002
           6  -1.8093828225591028E-002
           7  0.91627117924278989     
           8  0.29906971482405387     
           9  -1.0946037487509063E-002
          10  -3.3690292223333440E-003
          11 -0.24474581240392765     
          12  -7.5890558843755715E-002
          13  0.19827491372282438     
          14  0.53780253063404981     
          15  0.15843388124185798     
          16   3.9749096607753366E-002
          17 -0.20819504712283735     
          18 -0.57588489140804577     
          19  0.15617850730086683     
          20   6.8189274272379238E-002
Sym=    18a
Ene=   0.35417263669415222     
Spin= Alpha
Occup=     0.00000000
           1   1.0599120656430670E-003
           2  -1.6291491629865564E-003
           3   7.4884524399202845E-002
           4   2.4936257611978697E-002
           5  -1.9846090843312738E-003
           6  -2.2035518522560310E-004
           7 -0.19184754676968890     
           8  -6.3801234319237135E-002
           9  -2.2348449821804487E-003
          10   2.2857092474942789E-003
          11  -1.0455428522762860     
          12 -0.34871272003614495     
          13 -0.59211103807337795     
          14  0.26064917561988377     
          15 -0.31609756076085488     
          16 -0.51045871612597193     
          17  0.59465849895160594     
          18 -0.25766674149838981     
          19 -0.56475498617999276     
          20  0.21665944684482738     
Sym=    19a
Ene=   0.48105640419883361     
Spin= Alpha
Occup=     0.00000000
           1  -8.6771511856442884E-002
           2  0.12807967657133829     
           3  -1.3669076440037746E-002
           4   4.1981172943124125E-002
           5  0.26245056173551762     
           6  -1.2647235332657913E-002
           7   3.9707430393974293E-002
           8 -0.12034680880758637     
           9  0.99975220404913778     
          10  0.53037638314730395     
          11  0.18573990634846271     
          12 -0.55864261713165941     
          13 -0.54222171875757186     
          14  0.15046407475251899     
          15 -0.51624019502869856     
          16 -0.43049960446812197     
          17 -0.53892708865431482     
          18  0.14456541087310162     
          19  0.66921804968412235     
          20  -3.1264997859300460E-002
Sym=    20a
Ene=   0.73440493390119199     
Spin= Alpha
Occup=     0.00000000
           1 -0.87768561492192487     
           2  0.98113901192201303     
           3   2.9107271639633127E-003
           4  -3.6706892832971101E-003
           5  0.62352492250491931     
           6   1.2074551866541616     
           7  -7.7530700827220800E-003
           8   2.6236029208050318E-002
           9   1.9551224248289808E-002
          10  0.10679174419273209     
          11  -1.5856359730920852E-002
          12   4.6093465370502539E-002
          13  0.16409191252891675     
          14   5.8299390366973208E-002
          15  0.15151909334444799     
          16   7.7308447668548330E-002
          17  0.16664236701848109     
          18   6.0692494922933833E-002
          19 -0.16914910676953818     
          20  -2.9076630751321435E-002
