 Entering Gaussian System
 *********************************************
 Gaussian 98:
 frequency output generated by the xtb code
 *********************************************
                         Standard orientation:
 --------------------------------------------------------------------
  Center     Atomic     Atomic              Coordinates (Angstroms)
  Number     Number      Type              X           Y           Z
 --------------------------------------------------------------------
    1          7             0       -1.045317    0.791903    0.038082
    2          6             0        0.260787    0.808574    0.055335
    3          6             0        0.426052   -1.022606   -0.060675
    4          6             0        1.335310   -0.045605    0.015066
    5          6             0       -0.976832   -0.532267   -0.047808
 --------------------------------------------------------------------
     1 basis functions        1 primitive gaussians
     1 alpha electrons        1 beta electrons

 Harmonic frequencies (cm**-1), IR intensities (KM/Mole),
 Raman scattering activities (A**4/amu), Raman depolarization ratios,
 reduced masses (AMU), force constants (mDyne/A) and normal coordinates:
                      1                      2                      3
                        a                      a                      a 
 Frequencies --   301.4538               360.2622               546.2267
 Red. masses --    12.1333                12.1422                12.5479
 Frc consts  --     0.0000                 0.0000                 0.0000
 IR Inten    --     0.2509                 0.3117                 0.2761
 Raman Activ --     0.0000                 0.0000                 0.0000
 Depolar     --     0.0000                 0.0000                 0.0000
 Atom AN      X      Y      Z        X      Y      Z        X      Y      Z
   1   7    -0.12   0.22   0.01     0.00   0.02  -0.26    -0.01  -0.04   0.52
   2   6    -0.21   0.25   0.01    -0.01  -0.04   0.63     0.01   0.02  -0.34
   3   6     0.19  -0.58  -0.04    -0.01  -0.03   0.40    -0.01  -0.03   0.48
   4   6    -0.38  -0.09  -0.01     0.01   0.04  -0.59     0.00   0.01  -0.09
   5   6     0.52   0.18   0.02     0.00   0.01  -0.17     0.01   0.04  -0.61
                      4                      5                      6
                        a                      a                      a 
 Frequencies --   567.1107               923.4838               945.9480
 Red. masses --    12.3683                12.9724                12.0582
 Frc consts  --     0.0000                 0.0000                 0.0000
 IR Inten    --     0.3344                 0.8574                 0.4084
 Raman Activ --     0.0000                 0.0000                 0.0000
 Depolar     --     0.0000                 0.0000                 0.0000
 Atom AN      X      Y      Z        X      Y      Z        X      Y      Z
   1   7     0.20  -0.37  -0.02     0.54   0.43   0.04    -0.15  -0.00  -0.00
   2   6     0.29   0.76   0.05    -0.35  -0.01  -0.01    -0.11   0.08   0.00
   3   6    -0.11  -0.01  -0.00    -0.01   0.05   0.00    -0.47   0.43   0.02
   4   6    -0.24  -0.14  -0.01    -0.19   0.09   0.00     0.13  -0.34  -0.02
   5   6    -0.16  -0.20  -0.01    -0.04  -0.59  -0.04     0.63  -0.17  -0.00
                      7                      8                      9
                        a                      a                      a 
 Frequencies --  1097.3672              1440.8518              1618.9338
 Red. masses --    12.2813                12.5073                12.3074
 Frc consts  --     0.0000                 0.0000                 0.0000
 IR Inten    --     0.3751                 0.5312                 1.3438
 Raman Activ --     0.0000                 0.0000                 0.0000
 Depolar     --     0.0000                 0.0000                 0.0000
 Atom AN      X      Y      Z        X      Y      Z        X      Y      Z
   1   7     0.28  -0.24  -0.01     0.37  -0.34  -0.02     0.30  -0.24  -0.01
   2   6     0.26  -0.29  -0.02    -0.35  -0.13  -0.01    -0.52   0.20   0.01
   3   6    -0.45  -0.08  -0.01     0.29   0.38   0.03    -0.31  -0.31  -0.02
   4   6    -0.37   0.53   0.03    -0.36  -0.29  -0.02     0.53   0.14   0.02
   5   6     0.26   0.10   0.01     0.02   0.40   0.03    -0.03   0.23   0.01
