[Molden Format]
[Title]
[Atoms] AU
N      1     7 -0.19753627292959E+01  0.14964801447855E+01  0.71964501448966E-01
C      2     6  0.49281621780765E+00  0.15279825102544E+01  0.10456758841448E+00
C      3     6  0.80512077695906E+00 -0.19324449891746E+01 -0.11465917931913E+00
C      4     6  0.25233704565045E+01 -0.86181282287429E-01  0.28471529902882E-01
C      5     6 -0.18459447219852E+01 -0.10058382733038E+01 -0.90344440443900E-01
[GTO]
           1 0
 s           4   1.0000000000000000     
   63.594024466941008      -0.19234388414721629     
   10.951417231523665      -0.23478107924953728     
  0.87999310257376984       0.37593753901700888     
  0.33538715296521110       0.14982889271862770     
 p           4   1.0000000000000000     
   7.2965040481495080       0.97658666315667420     
   1.8918745450712575       0.90372226730345739     
  0.66694432110824120       0.47404958461536373     
  0.26552202674130870        7.1516067715011844E-002

           2 0
 s           4   1.0000000000000000     
   51.049363095579913      -0.16312063210127389     
   8.7911227406887544      -0.19911024581000730     
  0.70640422258929825       0.31882047753655751     
  0.26922813413411617       0.12706504184240380     
 p           4   1.0000000000000000     
   5.8263656140800002       0.73716451545209605     
   1.5106896018720002       0.68216371614850257     
  0.53256483288000001       0.35783053929253711     
  0.21202323690600003        5.3983030275847881E-002

           3 0
 s           4   1.0000000000000000     
   51.049363095579913      -0.16312063210127389     
   8.7911227406887544      -0.19911024581000730     
  0.70640422258929825       0.31882047753655751     
  0.26922813413411617       0.12706504184240380     
 p           4   1.0000000000000000     
   5.8263656140800002       0.73716451545209605     
   1.5106896018720002       0.68216371614850257     
  0.53256483288000001       0.35783053929253711     
  0.21202323690600003        5.3983030275847881E-002

           4 0
 s           4   1.0000000000000000     
   51.049363095579913      -0.16312063210127389     
   8.7911227406887544      -0.19911024581000730     
  0.70640422258929825       0.31882047753655751     
  0.26922813413411617       0.12706504184240380     
 p           4   1.0000000000000000     
   5.8263656140800002       0.73716451545209605     
   1.5106896018720002       0.68216371614850257     
  0.53256483288000001       0.35783053929253711     
  0.21202323690600003        5.3983030275847881E-002

           5 0
 s           4   1.0000000000000000     
   51.049363095579913      -0.16312063210127389     
   8.7911227406887544      -0.19911024581000730     
  0.70640422258929825       0.31882047753655751     
  0.26922813413411617       0.12706504184240380     
 p           4   1.0000000000000000     
   5.8263656140800002       0.73716451545209605     
   1.5106896018720002       0.68216371614850257     
  0.53256483288000001       0.35783053929253711     
  0.21202323690600003        5.3983030275847881E-002

[MO]
Sym=     1a
Ene=  -0.74534889782110292     
Spin= Alpha
Occup=     2.00000000
           1 -0.30371798931689648     
           2 -0.16144848662070452     
           3  0.12641718935536805     
           4   6.2276715190423479E-003
           5 -0.34983388377613789     
           6   9.9523768978507413E-002
           7  0.12614247598864009     
           8   9.3623355785223579E-003
           9 -0.21120223550712244     
          10   4.0577283264403630E-002
          11 -0.11359899913545478     
          12  -6.8152282216087821E-003
          13 -0.17398643350997409     
          14  0.10890661870112896     
          15  -4.3110258540130578E-003
          16   1.2103708422280671E-003
          17 -0.27413998932109435     
          18 -0.10043576425783036     
          19 -0.11099509260961905     
          20  -8.5843465798886905E-003
Sym=     2a
Ene=  -0.68781342691262415     
Spin= Alpha
Occup=     2.00000000
           1 -0.37941785759980101     
           2  -6.1609055898200753E-002
           3   6.6675420986126097E-002
           4   3.7140904925434290E-003
           5   5.2199387401846799E-002
           6  0.28933611618697641     
           7 -0.13061552155972767     
           8  -4.6393802643164683E-003
           9  0.29539412707148699     
          10  0.10300828401978465     
          11  0.10560096599390016     
          12   8.2062645340558529E-003
          13  0.38723729581624922     
          14 -0.11592271211057957     
          15  -2.9458450935197406E-002
          16  -3.5535973783904873E-003
          17 -0.12892746811797687     
          18   8.7109162826871228E-002
          19 -0.14621218559855684     
          20  -8.3712524100149569E-003
Sym=     3a
Ene=  -0.64390465481493941     
Spin= Alpha
Occup=     2.00000000
           1 -0.10606916201430787     
           2 -0.22186404357856518     
           3 -0.26677387130617208     
           4  -2.0204452177113096E-002
           5 -0.45368129615407565     
           6  -6.1203315049022274E-003
           7 -0.16557208216368052     
           8  -1.1049469544550687E-002
           9  0.27384028097318708     
          10 -0.15656046825528572     
          11  -3.5105105176827411E-002
          12  -4.3801786006057043E-003
          13 -0.12444736998800150     
          14   2.0919291109735390E-002
          15 -0.15615239771242978     
          16  -9.8328099379439045E-003
          17  0.44838017640374539     
          18   2.8269536755751751E-002
          19  -6.0371761363299081E-002
          20  -3.4363686992921411E-003
Sym=     4a
Ene=  -0.59440448523926692     
Spin= Alpha
Occup=     2.00000000
           1 -0.15823910322185389     
           2  0.30441404585355558     
           3  0.28422123638314228     
           4   2.2287446379293620E-002
           5   6.3281994758494900E-002
           6 -0.23938989473671241     
           7  0.11196900389348906     
           8   4.0199195067766339E-003
           9  0.30738264662022885     
          10 -0.20345099612782602     
          11 -0.10759476953344439     
          12  -9.8078909995841703E-003
          13 -0.27220545795996737     
          14  -4.7472908987395319E-002
          15 -0.10976274924324375     
          16  -7.7325176377355991E-003
          17  -6.3175843679883617E-002
          18  0.30356357230575376     
          19 -0.29257736378604859     
          20  -1.5230686594699366E-002
Sym=     5a
Ene=  -0.57989193134744643     
Spin= Alpha
Occup=     2.00000000
           1  0.28989574857360462     
           2  -4.2241364453309983E-002
           3  0.12877963914752186     
           4   8.9989444472134191E-003
           5 -0.24145603620225919     
           6 -0.24667836377509436     
           7   7.0817549606361505E-003
           8  -1.5454238523712215E-003
           9  0.27696001218560962     
          10  0.37076622784491309     
          11  -2.9601028304674176E-002
          12   3.8229745216710347E-003
          13  0.13791661698765093     
          14   5.5637383148570391E-002
          15 -0.42159532228617530     
          16  -2.5823245397082639E-002
          17 -0.24956590419182950     
          18  -3.8201418748978894E-002
          19  0.12907331708035774     
          20   8.7817960023761025E-003
Sym=     6a
Ene=  -0.57560737614930846     
Spin= Alpha
Occup=     2.00000000
           1   4.4824884039268491E-004
           2   6.0678434080538432E-003
           3   3.2156898640119766E-002
           4 -0.48999902603759915     
           5  -3.0535233862344639E-004
           6   5.4007842618530666E-003
           7   2.9937911355259056E-002
           8 -0.46331585529658154     
           9   6.1183340241703296E-004
          10   4.5531184162481021E-003
          11   1.6305860818520004E-002
          12 -0.25137073855764086     
          13   3.6158494723826387E-004
          14   3.4432067017342808E-003
          15   1.4466041410404959E-002
          16 -0.24194317531628656     
          17  -5.8316173871095754E-004
          18   4.3439983791754193E-003
          19   2.2967815046044934E-002
          20 -0.34425950859188209     
Sym=     7a
Ene=  -0.50428562233653618     
Spin= Alpha
Occup=     2.00000000
           1 -0.38004288628143762     
           2  0.29629918180422704     
           3 -0.29701138720269843     
           4  -1.5420897961813198E-002
           5 -0.14599481775155237     
           6 -0.18158192444104654     
           7 -0.36626290549338231     
           8  -2.6048599916667525E-002
           9 -0.25829788259497183     
          10   5.3443782078425206E-002
          11  0.24734491297149683     
          12   1.6901547926047158E-002
          13 -0.20722306075843791     
          14 -0.12425179314177609     
          15  -8.6595879196770156E-002
          16  -7.0810459998217595E-003
          17 -0.30256326193646582     
          18  0.20855631383211276     
          19  0.27383570798436735     
          20   2.0564169341854975E-002
Sym=     8a
Ene=  -0.46425127672230188     
Spin= Alpha
Occup=     2.00000000
           1   1.7350571635947084E-003
           2  -8.5032421355565203E-003
           3  -3.4944333111541014E-002
           4  0.55139674261165661     
           5  -4.5351504819058974E-004
           6   1.1577901105336835E-003
           7   2.8350074913546302E-003
           8  -5.8142228027693928E-002
           9   1.4677654022692330E-004
          10   6.1427084614815242E-003
          11   3.2625503323048290E-002
          12 -0.49654106616466392     
          13  -1.2313249334575420E-003
          14   6.1941624702686543E-003
          15   3.5725484647384002E-002
          16 -0.54704200422634641     
          17  -1.2827029892214564E-003
          18  -1.5642922778022340E-003
          19  -1.1857369675142830E-002
          20  0.18782084271173477     
Sym=     9a
Ene=  -0.45034019989643870     
Spin= Alpha
Occup=     1.99999999
           1 -0.40089980413788284     
           2  0.46103658849699414     
           3 -0.33004106792240523     
           4  -1.3536489357704634E-002
           5  0.12974318618493660     
           6 -0.10386805723245651     
           7  0.23324628801307595     
           8   1.3697790998106673E-002
           9  -1.6948636891087009E-002
          10  0.18491707142204197     
          11 -0.19364747508324434     
          12  -1.1809610540945719E-002
          13  0.28581493044965395     
          14  0.40064994945217480     
          15 -0.10874648011106526     
          16  -3.5743242438919798E-003
          17  0.27976785405112442     
          18 -0.20115589792184019     
          19  -6.5165100589109529E-002
          20  -6.1167925855375510E-003
Sym=    10a
Ene=  -0.41569297706134678     
Spin= Alpha
Occup=     1.00000001
           1 -0.17142437840144406     
           2  -3.9020891931033251E-003
           3 -0.22309739781197299     
           4  -1.8381387565637824E-002
           5  0.29077791590224195     
           6  0.14319485638591342     
           7  0.19523006600493248     
           8  -1.8202361356454169E-002
           9  0.24989634791254992     
          10  0.25316706712802772     
          11 -0.26589813422134867     
          12   1.1406802998335731E-002
          13 -0.48501204391064440     
          14 -0.55756296837026731     
          15  -9.0956115101245461E-002
          16  -2.4310958313880936E-002
          17   8.6993582246718826E-003
          18 -0.31582236628916877     
          19   8.4895377874040168E-002
          20   3.6781481827079514E-002
Sym=    11a
Ene=  -0.41480807288673466     
Spin= Alpha
Occup=     1.00000000
           1  -9.5683223730540848E-003
           2  -8.1795249066024056E-004
           3  -1.6336789967858055E-002
           4   6.8921039946250831E-002
           5   1.5580388269284576E-002
           6  -1.9603951439094118E-004
           7  -2.8015045613365038E-002
           8  0.59071133076649274     
           9   1.3225801408116387E-002
          10   2.0477826867744998E-002
          11   1.5360104114079622E-002
          12 -0.45244727253656575     
          13  -2.6937626158394276E-002
          14  -3.4229695294125277E-002
          15  -1.7997685346237344E-002
          16  0.19539615203991664     
          17   1.5015781749282990E-003
          18  -1.0242080831275627E-002
          19   4.5248563304765559E-002
          20 -0.63429651281832400     
Sym=    12a
Ene=  -0.39538129636998559     
Spin= Alpha
Occup=     1.00000000
           1  -7.4630589220718219E-002
           2   7.5216146092167230E-002
           3  0.26201300049144649     
           4   1.8287577027043093E-002
           5  -6.8838847725682783E-003
           6 -0.16651346300936529     
           7  -2.5184255873956698E-002
           8  -5.0821737514835574E-003
           9 -0.34411382820772440     
          10   8.2470220195570668E-002
          11  0.54289397660337158     
          12   3.7179460523509331E-002
          13  -3.4742676061941424E-002
          14 -0.21930131254198743     
          15 -0.24370154608335365     
          16  -1.9484644902082415E-002
          17  0.36275743480893857     
          18 -0.40805870185459964     
          19 -0.39724588427231994     
          20  -2.9865242538518553E-002
Sym=    13a
Ene=  -0.29357151510523610     
Spin= Alpha
Occup=     0.00000000
           1 -0.11454166432935689     
           2 -0.20305267018465126     
           3 -0.16141911744853596     
           4  -1.2453371256671125E-002
           5   9.4490734456411082E-002
           6  0.19822694149853284     
           7  0.77270420638166193     
           8   5.2576158857405228E-002
           9  -1.6242132776383790E-002
          10 -0.10511776670555703     
          11  0.49844466367098933     
          12   3.0275573844637613E-002
          13  -7.7511920931570000E-002
          14   6.5341877210846694E-002
          15 -0.30425245827465186     
          16  -1.8030142244434864E-002
          17   4.2326926161268298E-002
          18  0.36214152940545513     
          19  0.25341121312246268     
          20   2.0639350949382941E-002
Sym=    14a
Ene=  -0.25051544299478423     
Spin= Alpha
Occup=     0.00000000
           1   2.6009556303672364E-004
           2  -9.1861753025664593E-003
           3  -4.6468647872630886E-002
           4  0.71483285828821541     
           5   5.0160382096243973E-004
           6   7.2164083663228788E-003
           7   3.5131511281411724E-002
           8 -0.55224264567815029     
           9  -1.0157940674796028E-004
          10  -4.7098406402692836E-003
          11  -2.4286123418088154E-002
          12  0.36578494479068541     
          13  -2.4632577430681355E-005
          14  -2.1662311303230503E-003
          15  -1.1269032288529485E-002
          16  0.17397226757036108     
          17   1.7205873681726025E-004
          18   8.1583631627905051E-003
          19   4.0400523493632934E-002
          20 -0.62223349075693701     
Sym=    15a
Ene=  -0.21586066357792230     
Spin= Alpha
Occup=     0.00000000
           1   1.3606976042756361E-005
           2  -1.2787513515434121E-003
           3  -5.8891324444042487E-003
           4   9.0787400596124404E-002
           5   4.5708197585309600E-004
           6   5.6032686788558498E-003
           7   2.8925777923738401E-002
           8 -0.45618931455629214     
           9  -4.9726396334696756E-005
          10   8.8500094270012788E-003
          11   4.1839547377488531E-002
          12 -0.64967705371250406     
          13   1.8842155114676235E-004
          14  -1.0972304664912920E-002
          15  -5.2276610561687163E-002
          16  0.80968597523494479     
          17  -2.0048495420854666E-004
          18  -4.8614628999880984E-003
          19  -2.2407695594441914E-002
          20  0.33813271816300333     
Sym=    16a
Ene=   0.11478725570786741     
Spin= Alpha
Occup=     0.00000000
           1  -7.4277194040870784E-002
           2 -0.57393247384422930     
           3 -0.21503340087969761     
           4  -2.1696296398161067E-002
           5  0.88986911328482721     
           6  -5.1956330767635291E-002
           7 -0.39664505452790061     
           8  -2.5281656577112503E-002
           9 -0.45515498674851168     
          10  -4.0624568974277636E-004
          11 -0.28329744038807964     
          12  -1.8314276141767023E-002
          13 -0.14753994509277060     
          14  0.27649611081139486     
          15 -0.62622154997852852     
          16  -3.6976062754202572E-002
          17  -8.9606172166438847E-002
          18  0.25553884257671278     
          19 -0.36297006839748164     
          20  -2.0219702518174395E-002
Sym=    17a
Ene=   0.14623481916930764     
Spin= Alpha
Occup=     0.00000000
           1 -0.14514191219372746     
           2 -0.16076632591896814     
           3 -0.22292065150186283     
           4  -1.6323006057973214E-002
           5  0.26120173407945158     
           6 -0.32344668232769219     
           7  -1.2774073267197424E-002
           8  -4.8543971382669386E-003
           9  0.52860170190184463     
          10 -0.78485502113772909     
          11  0.29222614254181556     
          12   8.4570352624860727E-003
          13   9.3975364506375225E-002
          14  0.19130870309010856     
          15  -7.1348654862971747E-002
          16  -2.2352304929571950E-003
          17 -0.69128050410992692     
          18 -0.76377713905012734     
          19   7.2881177035765257E-002
          20  -5.7696573142892640E-003
Sym=    18a
Ene=   0.28010240568161432     
Spin= Alpha
Occup=     0.00000000
           1  0.68956608423907395     
           2  0.13425170525719118     
           3 -0.85252946517869488     
           4  -5.4055623063661462E-002
           5 -0.31951371529888445     
           6  -2.9512156024721389E-002
           7  0.26403047768969529     
           8   1.6363504104856562E-002
           9 -0.13409677858415450     
          10   7.7828052986456883E-002
          11   7.0371549260126079E-002
          12   5.7229063987235644E-003
          13  0.20495493629521608     
          14 -0.28789898604900310     
          15  0.12922445425759921     
          16   4.4152158499036268E-003
          17 -0.52769010089712343     
          18  0.16895480117832595     
          19 -0.88702459083337315     
          20  -5.5934930254120364E-002
Sym=    19a
Ene=   0.40689590004131598     
Spin= Alpha
Occup=     0.00000000
           1  0.35547061539918928     
           2  0.55922564328612234     
           3  0.12204518888432525     
           4   1.4893057005423718E-002
           5 -0.23288230767390394     
           6  0.74105183264261776     
           7  -5.8300028875135884E-002
           8   5.6536439451494083E-003
           9 -0.44224433621091030     
          10 -0.70610593927928555     
          11 -0.40657519391592822     
          12  -3.6037812307934555E-002
          13  0.33042229847685656     
          14 -0.30100991180562725     
          15 -0.81097982372528621     
          16  -5.6356337053016105E-002
          17  -7.7331575428966931E-002
          18 -0.15508228785982503     
          19  0.21321257773214705     
          20   1.1820267097259153E-002
Sym=    20a
Ene=   0.62184701767803796     
Spin= Alpha
Occup=     0.00000000
           1 -0.50286731613255164     
           2 -0.44444392235198260     
           3   2.6671706167245800E-002
           4  -3.5178848477898919E-003
           5 -0.14270101376590602     
           6 -0.88469966783576603     
           7  0.37818470948733651     
           8   1.2798358390799215E-002
           9 -0.47277279562156782     
          10 -0.27689350858116990     
          11 -0.48980485205033747     
          12  -3.5515322068024775E-002
          13  0.92392585247671788     
          14 -0.77960741872911665     
          15   5.1219407926695146E-002
          16  -7.6609967386234348E-003
          17  0.11804604869945239     
          18  0.14516937727715104     
          19  0.19292637823156000     
          20   1.4492493675517923E-002
