5
 energy: -10.971686164357 gnorm: 0.216272750336 xtb: 6.2.2 (9d81278992624c895f80dd42a50cac0aa55982e2)
N         1.43759900000000   -0.01498100000000    0.00387600000000
C         0.16745800000000   -0.66939200000000   -0.32828800000000
C        -0.89766700000000   -0.32697400000000    0.68057800000000
C        -0.88699900000000    0.34556500000000   -0.68537100000000
C         0.17960800000000    0.66578300000000    0.32920400000000
5
 energy: -11.012164399155 gnorm: 0.120691039731 xtb: 6.2.2 (9d81278992624c895f80dd42a50cac0aa55982e2)
N         1.33716388129732   -0.01394307248786    0.00361675203506
C         0.18145099836478   -0.71139902305373   -0.34889270856609
C        -0.86170228335632   -0.32010761129194    0.66600457425387
C        -0.85127833777190    0.33794477208580   -0.67060084047475
C         0.19436474146611    0.70750593474772    0.34987122275191
5
 energy: -11.027118453617 gnorm: 0.058961213740 xtb: 6.2.2 (9d81278992624c895f80dd42a50cac0aa55982e2)
N         1.22271156242765   -0.01275162469592    0.00330490771356
C         0.19558058187267   -0.76408443552051   -0.37488251169238
C        -0.81888817569275   -0.30805297446823    0.64105061195433
C        -0.80885311705187    0.32499958434924   -0.64541714426166
C         0.20944814844432    0.75989045033541    0.37594313628615
5
 energy: -11.028649492349 gnorm: 0.018106810523 xtb: 6.2.2 (9d81278992624c895f80dd42a50cac0aa55982e2)
N         1.24419397288162   -0.01297428562325    0.00336410376427
C         0.19425489131286   -0.76788098538953   -0.37683574375223
C        -0.82833947544053   -0.30808823797881    0.64144525137189
C        -0.81830067595600    0.32523426451998   -0.64586159352645
C         0.20819028720205    0.76371024447161    0.37788698214252
5
 energy: -11.028899136390 gnorm: 0.004499138019 xtb: 6.2.2 (9d81278992624c895f80dd42a50cac0aa55982e2)
N         1.24763569762740   -0.01300786434562    0.00337072892239
C         0.19614367386968   -0.77414847084856   -0.38015274130830
C        -0.83197840422921   -0.30621748074328    0.63820945569898
C        -0.82199141189118    0.32344263336142   -0.64264567323450
C         0.21018944462331    0.76993218257603    0.38121722992143
5
 energy: -11.028918479420 gnorm: 0.002506107019 xtb: 6.2.2 (9d81278992624c895f80dd42a50cac0aa55982e2)
N         1.24730519712063   -0.01300203353534    0.00336575998657
C         0.19743421827097   -0.77569087188041   -0.38138543212141
C        -0.83310635885853   -0.30530698846635    0.63734994201791
C        -0.82313775597916    0.32255802414797   -0.64179349211709
C         0.21150369944610    0.77144286973413    0.38246222223402
5
 energy: -11.028929899290 gnorm: 0.003586856696 xtb: 6.2.2 (9d81278992624c895f80dd42a50cac0aa55982e2)
N         1.24704168453446   -0.01300618927178    0.00336574294105
C         0.19835801291611   -0.77568958669557   -0.38253616514907
C        -0.83387716544895   -0.30421334080421    0.63743747694400
C        -0.82393990128279    0.32147847924598   -0.64188881760684
C         0.21241636928117    0.77143163752558    0.38362076287086
5
 energy: -11.028959997927 gnorm: 0.006619623456 xtb: 6.2.2 (9d81278992624c895f80dd42a50cac0aa55982e2)
N         1.24707610614374   -0.01300063065494    0.00336035287651
C         0.19884647200363   -0.77511506193480   -0.38413580838488
C        -0.83436237970552   -0.30261758421392    0.63796458171561
C        -0.82444572069187    0.31989671816496   -0.64241902749419
C         0.21288452225001    0.77083755863870    0.38522890128695
5
 energy: -11.029066125019 gnorm: 0.012369214197 xtb: 6.2.2 (9d81278992624c895f80dd42a50cac0aa55982e2)
N         1.24723828422456   -0.01299913798447    0.00335633940291
C         0.19959612208345   -0.77417117649958   -0.38723964451583
C        -0.83514790788480   -0.29956406240012    0.63888450611628
C        -0.82528428843372    0.31686268858006   -0.64334483667289
C         0.21359679001050    0.76987268830411    0.38834263566953
5
 energy: -11.029432088452 gnorm: 0.022034084485 xtb: 6.2.2 (9d81278992624c895f80dd42a50cac0aa55982e2)
N         1.24784956920129   -0.01300081391337    0.00335526456476
C         0.20107795294776   -0.77236765916163   -0.39305803584575
C        -0.83684583835073   -0.29376694286563    0.64049295690990
C        -0.82709144544920    0.31110725549529   -0.64496411177859
C         0.21500876165088    0.76802916044534    0.39417292614968
5
 energy: -11.030481213070 gnorm: 0.032656078266 xtb: 6.2.2 (9d81278992624c895f80dd42a50cac0aa55982e2)
N         1.24975460026904   -0.01301557810262    0.00334808857691
C         0.20405313239726   -0.76876466263290   -0.40314397976406
C        -0.84061323756278   -0.28341044228158    0.64314390650883
C        -0.83104581308431    0.30083518843089   -0.64764045331539
C         0.21785031798078    0.76435649458620    0.40429143799372
5
 energy: -11.032296778094 gnorm: 0.035777566306 xtb: 6.2.2 (9d81278992624c895f80dd42a50cac0aa55982e2)
N         1.25316937043143   -0.01304344969719    0.00334305506208
C         0.20830437861222   -0.76237523851641   -0.41676519206069
C        -0.84633692479427   -0.26901433444532    0.64739533373696
C        -0.83702826660022    0.28656716807063   -0.65192807080619
C         0.22189044235085    0.75786685458829    0.41795387406784
5
 energy: -11.034059901518 gnorm: 0.031640676722 xtb: 6.2.2 (9d81278992624c895f80dd42a50cac0aa55982e2)
N         1.25650432955124   -0.01306502650837    0.00333984654399
C         0.21181745911474   -0.75391711853636   -0.42919198028846
C        -0.85128220188839   -0.25551975128234    0.65310429050839
C        -0.84220150727362    0.27318603281386   -0.65766531814482
C         0.22516092049604    0.74931686351322    0.43041216138090
5
 energy: -11.035551683449 gnorm: 0.028089657977 xtb: 6.2.2 (9d81278992624c895f80dd42a50cac0aa55982e2)
N         1.27499886659478   -0.01319064808611    0.00336533746867
C         0.22902998109491   -0.70036264913885   -0.49062405598596
C        -0.87643470587454   -0.18631025619212    0.68770775957733
C        -0.86853424556568    0.20456021882605   -0.69239573041067
C         0.24093910375053    0.69530433459103    0.49194568935063
5
 energy: -11.036949824241 gnorm: 0.003736746719 xtb: 6.2.2 (9d81278992624c895f80dd42a50cac0aa55982e2)
N         1.26771794590930   -0.01313971231274    0.00333965652457
C         0.22420189568432   -0.72167235992478   -0.46392745577091
C        -0.86851009601709   -0.21542754513740    0.67276439442108
C        -0.86010132540275    0.23348837539020   -0.67742333962171
C         0.23669057982623    0.71675224198472    0.46524574444696
5
 energy: -11.036962351218 gnorm: 0.001319984299 xtb: 6.2.2 (9d81278992624c895f80dd42a50cac0aa55982e2)
N         1.26829801197553   -0.01314460413379    0.00333877931477
C         0.22462622046435   -0.71942287597645   -0.46425982112095
C        -0.86919452431044   -0.21447938098804    0.67372039654208
C        -0.86079860524239    0.23255435261325   -0.67838544935155
C         0.23706789711295    0.71449350848504    0.46558509461566
5
 energy: -11.036963744093 gnorm: 0.000389306957 xtb: 6.2.2 (9d81278992624c895f80dd42a50cac0aa55982e2)
N         1.26868849052886   -0.01315402677912    0.00333654652536
C         0.22519279636432   -0.71844000873174   -0.46401248758294
C        -0.86994258342187   -0.21427363899756    0.67379146323890
C        -0.86155553170570    0.23235919467670   -0.67846788807842
C         0.23761582823439    0.71350947983172    0.46535136589710
