 Entering Gaussian System
 *********************************************
 Gaussian 98:
 frequency output generated by the xtb code
 *********************************************
                         Standard orientation:
 --------------------------------------------------------------------
  Center     Atomic     Atomic              Coordinates (Angstroms)
  Number     Number      Type              X           Y           Z
 --------------------------------------------------------------------
    1          7             0        1.268688   -0.013161    0.003332
    2          6             0        0.225187   -0.718442   -0.464012
    3          6             0       -0.869941   -0.214268    0.673795
    4          6             0       -0.861557    0.232363   -0.678465
    5          6             0        0.237621    0.713509    0.465349
 --------------------------------------------------------------------
     1 basis functions        1 primitive gaussians
     1 alpha electrons        1 beta electrons

 Harmonic frequencies (cm**-1), IR intensities (KM/Mole),
 Raman scattering activities (A**4/amu), Raman depolarization ratios,
 reduced masses (AMU), force constants (mDyne/A) and normal coordinates:
                      1                      2                      3
                        a                      a                      a 
 Frequencies --  -187.5880               272.4829               564.6540
 Red. masses --    12.4741                12.2821                12.0596
 Frc consts  --     0.0000                 0.0000                 0.0000
 IR Inten    --     0.4987                 0.8123                 0.1470
 Raman Activ --     0.0000                 0.0000                 0.0000
 Depolar     --     0.0000                 0.0000                 0.0000
 Atom AN      X      Y      Z        X      Y      Z        X      Y      Z
   1   7    -0.00  -0.35   0.33    -0.00  -0.20   0.31     0.16  -0.00   0.00
   2   6     0.21   0.24  -0.45    -0.23   0.26   0.06     0.21   0.22  -0.31
   3   6    -0.03  -0.05   0.27     0.48  -0.16  -0.23    -0.29   0.45   0.12
   4   6     0.03  -0.05   0.27    -0.48  -0.15  -0.23    -0.30  -0.44  -0.12
   5   6    -0.21   0.24  -0.45     0.24   0.26   0.06     0.21  -0.22   0.31
                      4                      5                      6
                        a                      a                      a 
 Frequencies --   821.6370               838.1424               940.8497
 Red. masses --    12.5163                12.8336                12.0440
 Frc consts  --     0.0000                 0.0000                 0.0000
 IR Inten    --     0.2157                 1.5065                 1.2622
 Raman Activ --     0.0000                 0.0000                 0.0000
 Depolar     --     0.0000                 0.0000                 0.0000
 Atom AN      X      Y      Z        X      Y      Z        X      Y      Z
   1   7     0.50  -0.01   0.00    -0.00  -0.46  -0.45     0.00   0.13  -0.00
   2   6     0.05   0.29   0.38     0.25   0.34   0.30    -0.44   0.24  -0.05
   3   6    -0.32  -0.17  -0.10    -0.12  -0.10  -0.05    -0.39  -0.30   0.05
   4   6    -0.32   0.17   0.10     0.12  -0.10  -0.05     0.38  -0.30   0.05
   5   6     0.05  -0.29  -0.38    -0.24   0.35   0.30     0.44   0.23  -0.05
                      7                      8                      9
                        a                      a                      a 
 Frequencies --   972.2971              1402.0103              1459.0429
 Red. masses --    12.0251                12.0169                12.9812
 Frc consts  --     0.0000                 0.0000                 0.0000
 IR Inten    --     0.4867                 0.9203                 0.7748
 Raman Activ --     0.0000                 0.0000                 0.0000
 Depolar     --     0.0000                 0.0000                 0.0000
 Atom AN      X      Y      Z        X      Y      Z        X      Y      Z
   1   7    -0.08   0.00  -0.00    -0.06   0.00  -0.00     0.70  -0.01   0.00
   2   6     0.29  -0.36  -0.05     0.26  -0.22  -0.02    -0.33  -0.32  -0.21
   3   6    -0.25  -0.03  -0.46    -0.23  -0.29   0.49    -0.05  -0.00   0.03
   4   6    -0.25   0.04   0.46    -0.22   0.30  -0.50    -0.05   0.01  -0.03
   5   6     0.30   0.35   0.06     0.26   0.22   0.02    -0.32   0.32   0.21
