[Molden Format]
[Title]
[Atoms] AU
C      1     6 -0.25048778413739E+01 -0.11991894287063E+01 -0.96424208145382E-02
C      2     6  0.31055941336619E-01 -0.73764548310048E-03  0.32966877646788E-01
N      3     7  0.23539091398769E+01 -0.49582751173578E-01  0.12107800777400E+01
C      4     6 -0.24587978960723E+01  0.12910689724600E+01  0.27527988355783E-02
C      5     6  0.25787106562293E+01 -0.41561036819683E-01 -0.12368554436785E+01
[GTO]
           1 0
 s           4   1.0000000000000000     
   51.049363095579913      -0.16312063210127389     
   8.7911227406887544      -0.19911024581000730     
  0.70640422258929825       0.31882047753655751     
  0.26922813413411617       0.12706504184240380     
 p           4   1.0000000000000000     
   5.8263656140800002       0.73716451545209605     
   1.5106896018720002       0.68216371614850257     
  0.53256483288000001       0.35783053929253711     
  0.21202323690600003        5.3983030275847881E-002

           2 0
 s           4   1.0000000000000000     
   51.049363095579913      -0.16312063210127389     
   8.7911227406887544      -0.19911024581000730     
  0.70640422258929825       0.31882047753655751     
  0.26922813413411617       0.12706504184240380     
 p           4   1.0000000000000000     
   5.8263656140800002       0.73716451545209605     
   1.5106896018720002       0.68216371614850257     
  0.53256483288000001       0.35783053929253711     
  0.21202323690600003        5.3983030275847881E-002

           3 0
 s           4   1.0000000000000000     
   63.594024466941008      -0.19234388414721629     
   10.951417231523665      -0.23478107924953728     
  0.87999310257376984       0.37593753901700888     
  0.33538715296521110       0.14982889271862770     
 p           4   1.0000000000000000     
   7.2965040481495080       0.97658666315667420     
   1.8918745450712575       0.90372226730345739     
  0.66694432110824120       0.47404958461536373     
  0.26552202674130870        7.1516067715011844E-002

           4 0
 s           4   1.0000000000000000     
   51.049363095579913      -0.16312063210127389     
   8.7911227406887544      -0.19911024581000730     
  0.70640422258929825       0.31882047753655751     
  0.26922813413411617       0.12706504184240380     
 p           4   1.0000000000000000     
   5.8263656140800002       0.73716451545209605     
   1.5106896018720002       0.68216371614850257     
  0.53256483288000001       0.35783053929253711     
  0.21202323690600003        5.3983030275847881E-002

           5 0
 s           4   1.0000000000000000     
   51.049363095579913      -0.16312063210127389     
   8.7911227406887544      -0.19911024581000730     
  0.70640422258929825       0.31882047753655751     
  0.26922813413411617       0.12706504184240380     
 p           4   1.0000000000000000     
   5.8263656140800002       0.73716451545209605     
   1.5106896018720002       0.68216371614850257     
  0.53256483288000001       0.35783053929253711     
  0.21202323690600003        5.3983030275847881E-002

[MO]
Sym=     1a
Ene=  -0.74831629353433016     
Spin= Alpha
Occup=     2.00000000
           1 -0.17285594759056078     
           2  -7.6139106434953349E-002
           3  -6.9869420537627805E-002
           4  -2.1599666034275537E-003
           5 -0.43196831677486064     
           6  -8.2081005804679960E-002
           7   1.5747993080304549E-003
           8  -1.1230676162654140E-002
           9 -0.31455918128576238     
          10  0.13640922589273802     
          11  -3.3489693418241860E-003
          12  0.16572641612318925     
          13 -0.17285619784018347     
          14  -7.3502021655750843E-002
          15   7.2656304591323995E-002
          16  -1.4505519277229933E-003
          17 -0.27256224975883048     
          18   9.2931061519020336E-002
          19  -1.1813272170205760E-003
          20 -0.10816275850192728     
Sym=     2a
Ene=  -0.72702317260921545     
Spin= Alpha
Occup=     2.00000000
           1 -0.34415035562777468     
           2  -5.6178477597725728E-002
           3 -0.13686530101453614     
           4  -1.6185102182616987E-003
           5 -0.10329575916773207     
           6  0.31080230204768700     
           7  -5.7839795997942185E-003
           8   6.6025749107495955E-003
           9  0.23877317027871353     
          10  -1.9900565357356813E-002
          11   9.6426082911876842E-004
          12 -0.11975563119803413     
          13 -0.34415082185836765     
          14  -5.1076636470114914E-002
          15  0.13885915172949026     
          16  -2.4609575268635069E-004
          17  0.20727419612743020     
          18  -1.7052419308544658E-002
          19  -9.5466450852284770E-005
          20   8.2586010527521209E-002
Sym=     3a
Ene=  -0.61502438029331974     
Spin= Alpha
Occup=     2.00000000
           1  0.13867605378459866     
           2 -0.12475702669544217     
           3   6.6371602263178800E-002
           4 -0.12601879062175422     
           5 -0.22014074961541877     
           6  -2.7583290014674876E-002
           7   2.3655131787487585E-003
           8 -0.37323111104063805     
           9 -0.12582808186967370     
          10  0.37215096919289836     
          11  -5.6127850689597645E-003
          12 -0.25624427108027087     
          13  0.13867269431915494     
          14 -0.12710529955550867     
          15  -6.0455248332445061E-002
          16 -0.12665038005396828     
          17  0.45191505822768380     
          18   8.2121868889281788E-002
          19  -1.5099840649130587E-003
          20  -2.1313523435687316E-003
Sym=     4a
Ene=  -0.60470972424324987     
Spin= Alpha
Occup=     2.00000000
           1 -0.33942336136534834     
           2 -0.10962493851618235     
           3  0.18207551122481672     
           4  -1.2531319396970619E-003
           5   1.9277752243494400E-006
           6   9.1597477689122977E-003
           7  0.49504242312494329     
           8   2.4590249850458125E-003
           9  -5.2221096885073617E-006
          10   6.1494846032192239E-003
          11  0.33229093857175623     
          12   1.6516527149445601E-003
          13  0.33942095440754155     
          14  0.11628868863118663     
          15  0.17787604979673502     
          16   3.0410287323399217E-003
          17   3.2509091382886057E-006
          18   3.8584055635052252E-003
          19  0.20859752940336918     
          20   1.0363504401644196E-003
Sym=     5a
Ene=  -0.59965509331904898     
Spin= Alpha
Occup=     2.00000000
           1 -0.19011315428835376     
           2  0.21877772708700446     
           3  -9.3504269943162743E-002
           4 -0.11623325538413246     
           5  0.28756583284839887     
           6  -8.9192069829742739E-003
           7   1.6519463831772923E-003
           8 -0.29973342957074450     
           9 -0.49030392767439590     
          10 -0.16283735529618548     
          11   3.4362889833590531E-003
          12  -8.5691631221910716E-002
          13 -0.19011997017169882     
          14  0.22210662758838215     
          15   8.6495160093119278E-002
          16 -0.11533760383537195     
          17   8.9101369983845394E-002
          18 -0.22959464040544089     
          19   5.2301412267517769E-003
          20 -0.19766458922562233     
Sym=     6a
Ene=  -0.54023110803497820     
Spin= Alpha
Occup=     2.00000000
           1 -0.15632662631355798     
           2  0.37904997606169638     
           3  -9.2588176791275068E-002
           4   1.3110478119192330E-002
           5   4.4230978798268268E-002
           6 -0.31513706284178683     
           7   5.8058729314403052E-003
           8   4.9831513930912608E-003
           9  0.24799400058579898     
          10  0.41547224038770803     
          11  -7.8190541367538380E-003
          12   2.5762197152075745E-002
          13 -0.15632394805544225     
          14  0.38221365270835839     
          15   7.8368586171992313E-002
          16   1.3961409485766067E-002
          17   3.7592447804659944E-002
          18  0.26497385987541144     
          19  -5.6185932951199674E-003
          20  0.14339386789534678     
Sym=     7a
Ene=  -0.52726277127053900     
Spin= Alpha
Occup=     2.00000000
           1 -0.41279503698683512     
           2   5.5687469199121133E-002
           3  0.25565659118887352     
           4   2.9618634205655996E-003
           5  -1.9082579232897029E-007
           6  -1.6662808308463466E-003
           7  -9.0107755754070692E-002
           8  -4.4807218111316796E-004
           9  -1.5674080907118585E-006
          10  -1.0109570636752377E-002
          11 -0.54623459794906304     
          12  -2.7192047757404491E-003
          13  0.41279628212856767     
          14  -4.6194501658675099E-002
          15  0.25755872635330257     
          16  -4.0622181935063981E-004
          17   4.2386086015144619E-007
          18  -6.4653002091279348E-003
          19 -0.34934359776094187     
          20  -1.7393784166001146E-003
Sym=     8a
Ene=  -0.51628565848928010     
Spin= Alpha
Occup=     2.00000000
           1   1.0594565711249898E-002
           2  -2.6517712121172762E-002
           3   9.5619898192184759E-003
           4 -0.47435349479905653     
           5   1.2383736859299038E-002
           6   4.0136763024413429E-002
           7   2.8295133039284398E-004
           8 -0.20609940199870067     
           9  0.36818946668570790     
          10   3.9377071416839098E-002
          11  -2.0539728047931772E-003
          12  0.26611448130205512     
          13   1.0595635559152683E-002
          14  -2.6766210996525867E-002
          15  -3.8528102807143427E-003
          16 -0.47442096363003561     
          17 -0.35850146634448526     
          18 -0.14538305716700167     
          19   2.0307043253152998E-003
          20  0.13240327816728847     
Sym=     9a
Ene=  -0.44708060060368948     
Spin= Alpha
Occup=     1.99983072
           1   9.6900211934198115E-003
           2  -7.2112504453978304E-003
           3  -2.5063444979753022E-002
           4   1.7594573262154762E-002
           5  -2.9766093755631585E-003
           6  -1.3616902750968066E-002
           7   3.3181506179405843E-004
           8  -1.6018467071922761E-002
           9 -0.29534573847975959     
          10   3.3226099750924429E-002
          11   2.1674202789175017E-003
          12 -0.55904758753190631     
          13   9.6898075419936287E-003
          14  -6.2821838835966414E-003
          15   2.5136584732684084E-002
          16   1.7844414892721001E-002
          17 -0.50791485922771895     
          18  -9.1944250611052256E-002
          19  -1.2735517106919868E-003
          20  0.59775753581655433     
Sym=    10a
Ene=  -0.43058062868685354     
Spin= Alpha
Occup=     1.00016928
           1  0.39254839279093434     
           2  -3.3384759481828535E-002
           3 -0.60091716686088659     
           4   1.2350826363518562E-003
           5   4.5108941076853343E-003
           6  -1.1042050299120519E-002
           7   2.3000383647866151E-004
           8  -4.8647126953886627E-003
           9   1.9845018697423167E-002
          10  -1.2802166696905060E-003
          11  -9.5270394473436325E-005
          12   2.3624709286151277E-002
          13  0.39254581842066766     
          14  -1.1129435707431789E-002
          15  0.60169719941757904     
          16   7.2210463840156128E-003
          17   2.1407203865131209E-002
          18  -1.2017978566393559E-002
          19   3.2507021040355531E-004
          20  -2.0814786091283382E-002
Sym=    11a
Ene=  -0.41338482976608337     
Spin= Alpha
Occup=     1.00000000
           1   6.5622722700928449E-003
           2   3.2510049563985129E-002
           3  -9.6822919055933945E-003
           4 -0.37591459178626263     
           5  -3.9153723599602168E-002
           6  -4.5361139031601397E-002
           7  -1.5214464758408703E-003
           8  0.47509250201972719     
           9 -0.21432863896438106     
          10 -0.35029163756764647     
          11   7.7037243159040350E-003
          12 -0.24609050508956243     
          13   6.5588915680972852E-003
          14   3.2921763886531827E-002
          15   1.2210447886002562E-002
          16 -0.37580530471689333     
          17  0.19490972347654664     
          18  0.50874488502440929     
          19  -9.2191099083130373E-003
          20  -3.9575933838266297E-002
Sym=    12a
Ene=  -0.40939115111082086     
Spin= Alpha
Occup=     1.00000000
           1  0.21084511428759445     
           2 -0.44754858367478262     
           3 -0.16708536880645578     
           4  -4.3641693278739981E-003
           5   4.8626788867594816E-007
           6   9.6068514463189501E-003
           7  0.51915147187981237     
           8   2.5803514217371797E-003
           9   1.5164481826607766E-006
          10  -7.8938204855337011E-003
          11 -0.42673003712490332     
          12  -2.1219866682052968E-003
          13 -0.21084758060358144     
          14  0.44105857299006473     
          15 -0.18356726102931956     
          16   2.6244031840907166E-003
          17  -1.3410551026654773E-006
          18  -4.8082468487777160E-003
          19 -0.25963974791269334     
          20  -1.2920155334741378E-003
Sym=    13a
Ene=  -0.30878073489217789     
Spin= Alpha
Occup=     0.00000000
           1   2.9943797877495914E-004
           2  -1.5453384008195176E-002
           3  -6.1535601973108282E-004
           4 -0.15600523347387935     
           5  -6.4283027733775910E-009
           6   2.2971001984947769E-004
           7   1.2414314324128508E-002
           8   6.1682895892693415E-005
           9   2.8969280178189778E-008
          10   1.1895782928894859E-002
          11  0.64285071439608577     
          12   3.1993780514025646E-003
          13  -2.9948187201729143E-004
          14   1.5391254543038243E-002
          15  -2.7391117601132482E-003
          16  0.15598854637558751     
          17  -3.5391995319911445E-008
          18  -1.6204987025179435E-002
          19 -0.87572159942593653     
          20  -4.3583300009473035E-003
Sym=    14a
Ene=  -0.28808996762695038     
Spin= Alpha
Occup=     0.00000000
           1  -4.2649195883152078E-004
           2  -1.3455550392353008E-002
           3  -3.4765043754920407E-003
           4  0.78554199156074689     
           5   5.8321880824178353E-009
           6   1.7183965321331863E-005
           7   9.2794412977809950E-004
           8   4.5736802265974225E-006
           9   1.2816165436862661E-008
          10   2.4992755222237048E-003
          11  0.13509133836042972     
          12   6.7230655547046434E-004
          13   4.2647561943285397E-004
          14   1.3462374923814188E-002
          15   3.8453972066627611E-003
          16 -0.78553957929242424     
          17  -1.0861598834101812E-008
          18  -3.2888415327813406E-003
          19 -0.17776810546774163     
          20  -8.8467155139971101E-004
Sym=    15a
Ene=   -8.1294860614759434E-002
Spin= Alpha
Occup=     0.00000000
           1   5.8222310860229706E-002
           2  0.14288177501686408     
           3   2.4280690126989180E-002
           4 -0.15758004529141434     
           5 -0.41332872579489638     
           6  -7.0426809134506399E-002
           7  -2.3456985041660433E-003
           8  0.73314212376071852     
           9   3.3578843084370882E-002
          10  0.40546053596020248     
          11  -6.2226655252449366E-003
          12 -0.25721055634387602     
          13   5.8222368734497862E-002
          14  0.14191535561997268     
          15  -2.7980433620617664E-002
          16 -0.15784136172151422     
          17  0.14001403685854794     
          18 -0.80367420143354185     
          19   1.6095542560435702E-002
          20 -0.24592140492865233     
Sym=    16a
Ene=   -6.4088087011858863E-002
Spin= Alpha
Occup=     0.00000000
           1  -7.0393708388693688E-002
           2 -0.69454152828353555     
           3  0.24388242046834996     
           4  -9.0018807963833988E-003
           5   6.3404566028341839E-006
           6  -1.4822642018150364E-002
           7 -0.80094601107099272     
           8  -3.9845335411758239E-003
           9  -1.2536170605859583E-006
          10   3.6297957342892729E-003
          11  0.19597358035763487     
          12   9.7561301619782971E-004
          13   7.0390505306945378E-002
          14  0.70307980081175614     
          15  0.21792201755177074     
          16   1.1299447180433950E-002
          17  -2.8674629269861127E-007
          18   2.8784885387200029E-003
          19  0.15554606264512733     
          20   7.7364165942269813E-004
Sym=    17a
Ene=   -1.8678853497638048E-002
Spin= Alpha
Occup=     0.00000000
           1 -0.20974535575788003     
           2 -0.41556841052617149     
           3  -7.7094024210649079E-002
           4  -7.7801266999907137E-002
           5   1.0269527074680092     
           6  -8.0975553332362213E-002
           7  -2.0103172197914729E-004
           8  0.34239917613717169     
           9 -0.25791110830990865     
          10  0.62487384823953585     
          11  -1.1811335539502888E-002
          12   4.9691325798295341E-002
          13 -0.20974611287215175     
          14 -0.41242789586904349     
          15   9.3181361281306968E-002
          16  -7.6954330624318903E-002
          17  -9.0327767765817746E-002
          18   6.4604391908670275E-002
          19  -6.3015863164669363E-004
          20 -0.11376405810845226     
Sym=    18a
Ene=   0.34376203823567153     
Spin= Alpha
Occup=     0.00000000
           1   5.2740961829705883E-002
           2   6.9696067016036048E-002
           3   2.2688581540258712E-002
           4  -4.3434472700324779E-002
           5  -7.2891531046750127E-002
           6  0.17526493374496066     
           7  -4.5140671489675927E-003
           8  0.25537490239935862     
           9 -0.78511182448796357     
          10   6.3523486813392191E-002
          11  -5.5201757912270947E-003
          12  0.87297229837767987     
          13   5.2740118088699578E-002
          14   6.8817319384866446E-002
          15  -2.4816796698044361E-002
          16  -4.3671149498394457E-002
          17  0.68925261328307930     
          18 -0.17508500400964111     
          19  -1.2953451181583065E-003
          20  0.91124876410031386     
Sym=    19a
Ene=   0.38642656270492481     
Spin= Alpha
Occup=     0.00000000
           1 -0.30962513691748289     
           2 -0.37467520228108075     
           3 -0.12306196402607937     
           4   1.6215210818631648E-003
           5  -6.3540613635184054E-002
           6  -1.2834696840767932     
           7   2.4074204799498695E-002
           8  -6.5337723288586905E-002
           9  0.28019596920285650     
          10 -0.48735707036242809     
          11   9.1776330774716031E-003
          12  -3.1974277038603956E-002
          13 -0.30961575563188531     
          14 -0.36986843963665256     
          15  0.13680335152599032     
          16   2.9149909338099392E-003
          17  0.41317539162068623     
          18 -0.35930726990774248     
          19   5.2923091334423234E-003
          20  0.27259350736326066     
Sym=    20a
Ene=   0.49650787416571368     
Spin= Alpha
Occup=     0.00000000
           1 -0.83097772439939255     
           2 -0.11754544361143866     
           3 -0.93916345275888025     
           4  -6.1021639894910662E-003
           5  -4.7890642390873537E-007
           6  -4.4165397376552023E-003
           7 -0.23916682900042696     
           8  -1.1899871859181329E-003
           9  -2.2395213275028727E-006
          10   8.3993385053450444E-004
          11   4.5232671253007756E-002
          12   2.2588621732187988E-004
          13  0.83098231803843736     
          14   8.2725373697604548E-002
          15 -0.94288498559471690     
          16  -3.2657367251289746E-003
          17  -2.2879660834845061E-006
          18   6.9770826660938833E-004
          19   3.7584824327794607E-002
          20   1.8587206452396173E-004
