5
 energy: -11.003502385842 gnorm: 0.000548380922 xtb: 6.2.2 (9d81278992624c895f80dd42a50cac0aa55982e2)
C        -1.32552439273295   -0.63458377610378   -0.00510254982640
C         0.01643409794323   -0.00039034521560    0.01744532198388
N         1.24563518892904   -0.02623806440930    0.64071728400102
C        -1.30113993353730    0.68320434131742    0.00145671854514
C         1.36459503939622   -0.02199315558700   -0.65451577470190
