$hessian                                                                        
        0.2033058610   0.1042058277   0.0046059477  -0.2042016275  -0.0508233796
       -0.0060888162  -0.0148573505  -0.0083588014  -0.0037057188   0.0296332045
       -0.0385707519   0.0004689835  -0.0138800876  -0.0064528949   0.0047196039
        0.1042058277   0.6377060282   0.0041369974  -0.1028874194  -0.0333338630
       -0.0010328643  -0.0102273470   0.0012092709   0.0093423041   0.0150113901
       -0.6059421046  -0.0022449604  -0.0061024514   0.0003606685  -0.0102014769
        0.0046059477   0.0041369974   0.0181285910  -0.0023398698   0.0021250596
       -0.0083748979  -0.0104475830  -0.0153454759   0.0017836566   0.0007352762
       -0.0036984922  -0.0097754189   0.0074462290   0.0127819110  -0.0017619308
       -0.2042016275  -0.1028874194  -0.0023398698   0.8576703415  -0.0149920361
        0.0698902918  -0.2916151880   0.0062776062  -0.1755680136  -0.1981531385
        0.1092094561  -0.0011480936  -0.1637003875   0.0023923931   0.1091656852
       -0.0508233796  -0.0333338630   0.0021250596  -0.0149920361   0.0922861070
       -0.0012093350   0.0056481053  -0.0136791005   0.0036272751   0.0571553986
       -0.0390920753  -0.0023431918   0.0030119118  -0.0061810682  -0.0021998080
       -0.0060888162  -0.0010328643  -0.0083748979   0.0698902918  -0.0012093350
        0.0383505176  -0.0323587911   0.0009398413  -0.0424777128  -0.0055239384
        0.0010561560  -0.0081004766  -0.0259187461   0.0002462019   0.0206025696
       -0.0148573505  -0.0102273470  -0.0104475830  -0.2916151880   0.0056481053
       -0.0323587911   0.2351941938  -0.0045779130   0.0747217868  -0.0141688324
        0.0107404732  -0.0100884363   0.0854471772  -0.0015833185  -0.0218269764
       -0.0083588014   0.0012092709  -0.0153454759   0.0062776062  -0.0136791005
        0.0009398413  -0.0045779130   0.0221408864  -0.0046881116   0.0088802687
        0.0003814167   0.0157127638  -0.0022211605  -0.0100524736   0.0033809825
       -0.0037057188   0.0093423041   0.0017836566  -0.1755680136   0.0036272751
       -0.0424777128   0.0747217868  -0.0046881116   0.6293852447  -0.0038916029
       -0.0093333201   0.0014063826   0.1084435485   0.0010518524  -0.5900975711
        0.0296332045   0.0150113901   0.0007352762  -0.1981531385   0.0571553986
       -0.0055239384  -0.0141688324   0.0088802687  -0.0038916029   0.1961492673
       -0.0879472025   0.0035722019  -0.0134605008   0.0069001451   0.0051080633
       -0.0385707519  -0.6059421046  -0.0036984922   0.1092094561  -0.0390920753
        0.0010561560   0.0107404732   0.0003814167  -0.0093333201  -0.0879472025
        0.6447723089   0.0019053612   0.0065680251  -0.0001195457   0.0100702951
        0.0004689835  -0.0022449604  -0.0097754189  -0.0011480936  -0.0023431918
       -0.0081004766  -0.0100884363   0.0157127638   0.0014063826   0.0035722019
        0.0019053612   0.0180967006   0.0071953445  -0.0130299728  -0.0016271876
       -0.0138800876  -0.0061024514   0.0074462290  -0.1637003875   0.0030119118
       -0.0259187461   0.0854471772  -0.0022211605   0.1084435485  -0.0134605008
        0.0065680251   0.0071953445   0.1055937988  -0.0012563249  -0.0971663759
       -0.0064528949   0.0003606685   0.0127819110   0.0023923931  -0.0061810682
        0.0002462019  -0.0015833185  -0.0100524736   0.0010518524   0.0069001451
       -0.0001195457  -0.0130299728  -0.0012563249   0.0159924190  -0.0010499926
        0.0047196039  -0.0102014769  -0.0017619308   0.1091656852  -0.0021998080
        0.0206025696  -0.0218269764   0.0033809825  -0.5900975711   0.0051080633
        0.0100702951  -0.0016271876  -0.0971663759  -0.0010499926   0.5728841199
