      -----------------------------------------------------------      
     |                   =====================                   |     
     |                           x T B                           |     
     |                   =====================                   |     
     |                         S. Grimme                         |     
     |          Mulliken Center for Theoretical Chemistry        |     
     |                    University of Bonn                     |     
      -----------------------------------------------------------      

   * xtb version 6.2.2 (9d81278992624c895f80dd42a50cac0aa55982e2) compiled by '@Darwin' on 04/03/2020

   xtb is free software: you can redistribute it and/or modify it under
   the terms of the GNU Lesser General Public License as published by
   the Free Software Foundation, either version 3 of the License, or
   (at your option) any later version.
   
   xtb is distributed in the hope that it will be useful,
   but WITHOUT ANY WARRANTY; without even the implied warranty of
   MERCHANTABILITY or FITNESS FOR A PARTICULAR PURPOSE.  See the
   GNU Lesser General Public License for more details.
   
   Cite this work as:
   * S. Grimme, C. Bannwarth, P. Shushkov, J. Chem. Theory Comput., 2017,
     13, 1989-2009. DOI: 10.1021/acs.jctc.7b00118
   * C. Bannwarth, S. Ehlert and S. Grimme., J. Chem. Theory Comput., 2019,
     15, 1652-1671. DOI: 10.1021/acs.jctc.8b01176
   * P. Pracht, E. Caldeweyher, S. Ehlert, S. Grimme, ChemRxiv, 2019, preprint.
     DOI: 10.26434/chemrxiv.8326202.v1
   
   for DFT-D4:
   * E. Caldeweyher, C. Bannwarth and S. Grimme, J. Chem. Phys., 2017,
     147, 034112. DOI: 10.1063/1.4993215
   * E. Caldeweyher, S. Ehlert, A. Hansen, H. Neugebauer, S. Spicher,
     C. Bannwarth and S. Grimme, J. Chem. Phys., 2019, 150, 154122.
     DOI: 10.1063/1.5090222
   
   for sTDA-xTB:
   * S. Grimme and C. Bannwarth, J. Chem. Phys., 2016, 145, 054103.
     DOI: 10.1063/1.4959605
   
   in the mass-spec context:
   * V. Asgeirsson, C. Bauer and S. Grimme, Chem. Sci., 2017, 8, 4879.
     DOI: 10.1039/c7sc00601b
   
   for metadynamics refer to:
   * S. Grimme, J. Chem. Theory Comput., 2019, 155, 2847-2862
     DOI: 10.1021/acs.jctc.9b00143
   
   with help from (in alphabetical order)
   C. Bannwarth, F. Bohle, G. Brandenburg, E. Caldeweyher, M. Checinski,
   S. Dohm, S. Ehlert, S. Ehrlich, F. März, H. Neugebauer, J. Pisarek,
   P. Pracht, P. Shushkov, and S. Spicher.
   
 * started run on 2020/05/12 at 11:44:34.406     

           -------------------------------------------------
          |                Calculation Setup                |
           -------------------------------------------------

          program call               : xtb --input C5_7_S_2.input C5_7_S_2.xyz --ohess --molden --namespace C5_7_S_2 output.out
          calculation namespace      : C5_7_S_2
          coordinate file            : C5_7_S_2.xyz
          number of atoms            :                     5
          number of electrons        :                    20
          charge                     :                     0
          spin                       :                   1.0
          first test random number   :      0.93492819411460

   ID    Z sym.   atoms
    1    6 C      1-5

           -------------------------------------------------
          |                 G F N 2 - x T B                 |
           -------------------------------------------------

        Reference                      10.1021/acs.jctc.8b01176
      * Hamiltonian:
        H0-scaling (s, p, d)           1.850000    2.230000    2.230000
        zeta-weighting                 0.500000
      * Dispersion:
        s8                             2.700000
        a1                             0.520000
        a2                             5.000000
        s9                             5.000000
      * Repulsion:
        kExp                           1.500000    1.000000
        rExp                           1.000000
      * Coulomb:
        alpha                          2.000000
        third order                    shell-resolved
        anisotropic                    true
        a3                             3.000000
        a5                             4.000000
        cn-shift                       1.200000
        cn-exp                         4.000000
        max-rad                        5.000000


          ...................................................
          :                      SETUP                      :
          :.................................................:
          :  # basis functions                  20          :
          :  # atomic orbitals                  20          :
          :  # shells                           10          :
          :  # electrons                        20          :
          :  max. iterations                   250          :
          :  Hamiltonian                  GFN2-xTB          :
          :  restarted?                      false          :
          :  GBSA solvation                  false          :
          :  PC potential                    false          :
          :  electronic temp.          300.0000000     K    :
          :  accuracy                    1.0000000          :
          :  -> integral cutoff          0.2500000E+02      :
          :  -> integral neglect         0.1000000E-07      :
          :  -> SCF convergence          0.1000000E-05 Eh   :
          :  -> wf. convergence          0.1000000E-03 e    :
          :  Broyden damping             0.4000000          :
          ...................................................

 iter      E             dE          RMSdq      gap      omega  full diag
   1    -10.1665154 -0.101665E+02  0.100E+01    0.32       0.0  T
   2     -9.6450777  0.521438E+00  0.950E+00    0.16       1.0  T
   3     -8.6631375  0.981940E+00  0.126E+01    1.29       1.0  T
   4    -10.0301317 -0.136699E+01  0.519E+00    0.40       1.0  T
   5    -10.0984006 -0.682688E-01  0.410E+00    0.36       1.0  T
   6    -10.1574957 -0.590952E-01  0.254E+00    0.36       1.0  T
   7    -10.1648942 -0.739847E-02  0.209E+00    0.35       1.0  T
   8    -10.1677791 -0.288490E-02  0.161E+00    0.33       1.0  T
   9    -10.1849591 -0.171799E-01  0.320E-01    0.29       1.0  T
  10    -10.1850198 -0.607112E-04  0.267E-01    0.29       1.0  T
  11    -10.1846591  0.360629E-03  0.279E-01    0.29       1.0  T
  12    -10.1850724 -0.413265E-03  0.608E-02    0.29       1.0  T
  13    -10.1850528  0.195848E-04  0.868E-02    0.29       1.0  T
  14    -10.1850847 -0.318367E-04  0.599E-03    0.30       7.5  T
  15    -10.1850847 -0.558951E-07  0.528E-03    0.30       8.5  T
  16    -10.1850848 -0.950975E-07  0.784E-04    0.30      57.0  T
  17    -10.1850848 -0.233766E-08  0.178E-04    0.30     251.1  T

   *** convergence criteria satisfied after 17 iterations ***

         #    Occupation            Energy/Eh            Energy/eV
      -------------------------------------------------------------
         1        2.0000           -0.7047725             -19.1778
       ...           ...                  ...                  ...
         5        2.0000           -0.5709889             -15.5374
         6        2.0000           -0.5196741             -14.1411
         7        2.0000           -0.4868760             -13.2486
         8        2.0000           -0.4496769             -12.2363
         9        2.0000           -0.4484959             -12.2042
        10        0.9978           -0.4147584             -11.2862
        11        0.9967           -0.4143965             -11.2763 (HOMO)
        12        0.0031           -0.4034868             -10.9794 (LUMO)
        13        0.0024           -0.4032426             -10.9728
        14                         -0.2844137              -7.7393
        15                         -0.2732155              -7.4346
        16                          0.0377490               1.0272
       ...                                ...                  ...
        20                          0.1481173               4.0305
      -------------------------------------------------------------
                  HL-Gap            0.0109097 Eh            0.2969 eV
             Fermi-level           -0.4203603 Eh          -11.4386 eV

 transition dipole moment (au) for excitation:          10          11
     X       Y       Z   
   0.0374  -0.4253   0.1127  total (au/Debye):    0.442   1.122
 dE (eV)             :    0.010
 oscillator strength :  0.66533E-04

 SCC (total)                   0 d,  0 h,  0 min,  0.006 sec
 SCC setup                      ...        0 min,  0.000 sec (  1.363%)
 Dispersion                     ...        0 min,  0.000 sec (  0.342%)
 integral evaluation            ...        0 min,  0.001 sec ( 21.939%)
 zeroth order Hamiltonian       ...        0 min,  0.000 sec (  0.330%)
 iterations                     ...        0 min,  0.002 sec ( 31.060%)
 molecular gradient             ...        0 min,  0.002 sec ( 25.515%)
 printout                       ...        0 min,  0.001 sec ( 19.303%)

         :::::::::::::::::::::::::::::::::::::::::::::::::::::
         ::                     SUMMARY                     ::
         :::::::::::::::::::::::::::::::::::::::::::::::::::::
         :: total energy             -10.110293508225 Eh    ::
         :: gradient norm              0.214131326299 Eh/a0 ::
         :: HOMO-LUMO gap              0.296866799618 eV    ::
         ::.................................................::
         :: SCC energy               -10.185084805280 Eh    ::
         :: -> isotropic ES           -0.013453496559 Eh    ::
         :: -> anisotropic ES         -0.000088032074 Eh    ::
         :: -> anisotropic XC          0.007824141788 Eh    ::
         :: -> dispersion             -0.003118308282 Eh    ::
         :: repulsion energy           0.074791221776 Eh    ::
         :: add. restraining           0.000000000000 Eh    ::
         :::::::::::::::::::::::::::::::::::::::::::::::::::::

      ----------------------------------------------------------- 
     |                   =====================                   |
     |                        A N C O P T                        |
     |                   =====================                   |
     |               Approximate Normal Coordinate               |
     |                Rational Function Optimizer                |
      ----------------------------------------------------------- 

          ...................................................
          :                      SETUP                      :
          :.................................................:
          :   optimization level            normal          :
          :   max. optcycles                   200          :
          :   ANC micro-cycles                  20          :
          :   degrees of freedom                 9          :
          :.................................................:
          :   RF solver                   davidson          :
          :   write xtbopt.log                true          :
          :   linear?                        false          :
          :   energy convergence         0.5000000E-05 Eh   :
          :   grad. convergence          0.1000000E-02 Eh/α :
          :   maximium RF displ.         1.0000000          :
          :   Hlow (freq-cutoff)         0.1000000E-01      :
          :   Hmax (freq-cutoff)         5.0000000          :
          :   S6 in model hess.         20.0000000          :
          ...................................................

generating ANC from model Hessian ...
Using Lindh-Hessian (1995)
 Shifting diagonal of input Hessian by    0.0000000000000000     
 Lowest  eigenvalues of input Hessian
   -0.000000   -0.000000   -0.000000   -0.000000    0.000000    0.000000
    0.022046    0.031588    0.144654    0.148607    0.631184    0.794040
    0.796019    1.025948    1.027461
 Highest eigenvalues
    0.148607    0.631184    0.794040    0.796019    1.025948    1.027461


........................................................................
.............................. CYCLE    1 ..............................
........................................................................
   1    -10.1850848 -0.101851E+02  0.116E-04    0.30       0.0  T
   2    -10.1850848  0.155858E-08  0.420E-04    0.30     106.4  T
   3    -10.1850848 -0.150514E-08  0.124E-04    0.30     359.9  T
     SCC iter.                  ...        0 min,  0.000 sec
     gradient                   ...        0 min,  0.001 sec
 * total energy  :   -10.1102935 Eh     change        0.3412559E-10 Eh
   gradient norm :     0.2141304 Eh/α   predicted     0.0000000E+00 (-100.00%)
   displ. norm   :     0.4939918 α      lambda       -0.7907064E-01
   maximum displ.:     0.3968019 α      in ANC's #2, #5, #7, ...

........................................................................
.............................. CYCLE    2 ..............................
........................................................................
   1    -10.2904420 -0.102904E+02  0.201E+00    0.55       0.0  T
   2    -10.2675122  0.229298E-01  0.196E+00    0.21       1.0  T
   3    -10.2670937  0.418529E-03  0.188E+00    0.65       1.0  T
   4    -10.2925717 -0.254780E-01  0.472E-01    0.46       1.0  T
   5    -10.2935965 -0.102479E-02  0.204E-01    0.45       1.0  T
   6    -10.2936960 -0.994825E-04  0.116E-01    0.45       1.0  T
   7    -10.2937262 -0.302330E-04  0.564E-02    0.44       1.0  T
   8    -10.2937540 -0.277461E-04  0.522E-03    0.44       8.6  T
   9    -10.2937540 -0.738279E-07  0.233E-03    0.44      19.2  T
  10    -10.2937540  0.494261E-09  0.162E-03    0.44      27.7  T
  11    -10.2937541 -0.157033E-07  0.327E-04    0.44     136.7  T
  12    -10.2937541 -0.518648E-09  0.437E-05    0.44    1023.4  T
     SCC iter.                  ...        0 min,  0.001 sec
     gradient                   ...        0 min,  0.002 sec
 * total energy  :   -10.1715507 Eh     change       -0.6125716E-01 Eh
   gradient norm :     0.1169166 Eh/α   predicted    -0.4918303E-01 ( -19.71%)
   displ. norm   :     0.3578771 α      lambda       -0.4149639E-01
   maximum displ.:     0.3384394 α      in ANC's #5, #2, #7, ...

........................................................................
.............................. CYCLE    3 ..............................
........................................................................
   1    -10.4029462 -0.104029E+02  0.136E+00    0.67       0.0  T
   2    -10.3989532  0.399304E-02  0.111E+00    0.48       1.0  T
   3    -10.3963849  0.256832E-02  0.111E+00    0.76       1.0  T
   4    -10.4042337 -0.784880E-02  0.957E-02    0.61       1.0  T
   5    -10.4042341 -0.385729E-06  0.658E-02    0.60       1.0  T
   6    -10.4042417 -0.767567E-05  0.303E-02    0.60       1.5  T
   7    -10.4042341  0.768235E-05  0.422E-02    0.60       1.1  T
   8    -10.4042483 -0.142816E-04  0.290E-03    0.60      15.4  T
   9    -10.4042484 -0.923902E-08  0.171E-03    0.60      26.2  T
  10    -10.4042484 -0.157395E-07  0.112E-04    0.60     400.6  T
  11    -10.4042484 -0.296900E-10  0.511E-05    0.60     875.3  T
     SCC iter.                  ...        0 min,  0.001 sec
     gradient                   ...        0 min,  0.001 sec
 * total energy  :   -10.1773327 Eh     change       -0.5782052E-02 Eh
   gradient norm :     0.1266034 Eh/α   predicted    -0.2340555E-01 ( 304.80%)
   displ. norm   :     0.3970028 α      lambda       -0.2978576E-01
   maximum displ.:     0.3763652 α      in ANC's #2, #5, #3, ...

........................................................................
.............................. CYCLE    4 ..............................
........................................................................
   1    -10.3277781 -0.103278E+02  0.255E+00    1.08       0.0  T
   2    -10.3088456  0.189326E-01  0.205E+00    1.31       1.0  T
   3    -10.2941972  0.146484E-01  0.223E+00    0.90       1.0  T
   4    -10.3322112 -0.380140E-01  0.199E-01    1.19       1.0  T
   5    -10.3323695 -0.158317E-03  0.894E-02    1.15       1.0  T
   6    -10.3323684  0.108725E-05  0.625E-02    1.16       1.0  T
   7    -10.3323712 -0.285954E-05  0.475E-03    1.16       9.4  T
   8    -10.3323711  0.103271E-06  0.393E-03    1.16      11.4  T
   9    -10.3323712 -0.971208E-07  0.145E-03    1.16      30.9  T
  10    -10.3323713 -0.142066E-07  0.540E-04    1.16      82.8  T
  11    -10.3323713 -0.186247E-08  0.146E-04    1.16     305.3  T
     SCC iter.                  ...        0 min,  0.001 sec
     gradient                   ...        0 min,  0.002 sec
 * total energy  :   -10.1862451 Eh     change       -0.8912334E-02 Eh
   gradient norm :     0.0491102 Eh/α   predicted    -0.1724016E-01 (  93.44%)
   displ. norm   :     0.1997435 α      lambda       -0.5223056E-02
   maximum displ.:     0.1974808 α      in ANC's #2, #3, #7, ...

........................................................................
.............................. CYCLE    5 ..............................
........................................................................
   1    -10.3535917 -0.103536E+02  0.120E+00    0.98       0.0  T
   2    -10.3495693  0.402241E-02  0.962E-01    0.79       1.0  T
   3    -10.3472877  0.228159E-02  0.101E+00    1.07       1.0  T
   4    -10.3545230 -0.723527E-02  0.195E-01    0.92       1.0  T
   5    -10.3547322 -0.209248E-03  0.330E-02    0.92       1.4  T
   6    -10.3547333 -0.103644E-05  0.147E-02    0.92       3.0  T
   7    -10.3547280  0.528418E-05  0.253E-02    0.92       1.8  T
   8    -10.3547339 -0.591431E-05  0.953E-04    0.92      46.9  T
   9    -10.3547339  0.128152E-08  0.745E-04    0.92      60.1  T
  10    -10.3547339 -0.257732E-08  0.838E-05    0.92     533.9  T
     SCC iter.                  ...        0 min,  0.001 sec
     gradient                   ...        0 min,  0.001 sec
 * total energy  :   -10.1882883 Eh     change       -0.2043275E-02 Eh
   gradient norm :     0.0077928 Eh/α   predicted    -0.2715720E-02 (  32.91%)
   displ. norm   :     0.0684826 α      lambda       -0.4833731E-03
   maximum displ.:     0.0617316 α      in ANC's #2, #5, #3, ...

........................................................................
.............................. CYCLE    6 ..............................
........................................................................
   1    -10.3565157 -0.103565E+02  0.344E-01    1.04       0.0  T
   2    -10.3564082  0.107498E-03  0.219E-01    1.06       1.0  T
   3    -10.3556961  0.712152E-03  0.322E-01    1.00       1.0  T
   4    -10.3565316 -0.835482E-03  0.580E-02    1.05       1.0  T
   5    -10.3565528 -0.212763E-04  0.665E-03    1.05       6.7  T
   6    -10.3565525  0.366710E-06  0.672E-03    1.05       6.7  T
   7    -10.3565528 -0.354760E-06  0.237E-03    1.05      18.9  T
   8    -10.3565529 -0.477659E-07  0.319E-04    1.05     140.3  T
   9    -10.3565529  0.410818E-10  0.246E-04    1.05     181.7  T
     SCC iter.                  ...        0 min,  0.001 sec
     gradient                   ...        0 min,  0.002 sec
 * total energy  :   -10.1885220 Eh     change       -0.2337129E-03 Eh
   gradient norm :     0.0038238 Eh/α   predicted    -0.2428182E-03 (   3.90%)
   displ. norm   :     0.0068802 α      lambda       -0.1981551E-04
   maximum displ.:     0.0048452 α      in ANC's #2, #5, #3, ...

........................................................................
.............................. CYCLE    7 ..............................
........................................................................
   1    -10.3552452 -0.103552E+02  0.383E-02    1.06       0.0  T
   2    -10.3552452  0.430133E-07  0.222E-02    1.06       2.0  T
   3    -10.3552427  0.248419E-05  0.199E-02    1.06       2.2  T
   4    -10.3552450 -0.223016E-05  0.704E-03    1.06       6.3  T
   5    -10.3552454 -0.418962E-06  0.163E-03    1.06      27.5  T
   6    -10.3552453  0.270958E-07  0.211E-03    1.06      21.2  T
   7    -10.3552454 -0.365135E-07  0.121E-04    1.06     371.0  T
   8    -10.3552454 -0.670095E-10  0.572E-05    1.06     781.6  T
     SCC iter.                  ...        0 min,  0.001 sec
     gradient                   ...        0 min,  0.001 sec
 * total energy  :   -10.1885326 Eh     change       -0.1056140E-04 Eh
   gradient norm :     0.0010052 Eh/α   predicted    -0.9909790E-05 (  -6.17%)
   displ. norm   :     0.0032260 α      lambda       -0.1601761E-05
   maximum displ.:     0.0018519 α      in ANC's #3, #9, #7, ...

........................................................................
.............................. CYCLE    8 ..............................
........................................................................
   1    -10.3552672 -0.103553E+02  0.253E-02    1.06       0.0  T
   2    -10.3552659  0.127765E-05  0.198E-02    1.06       2.3  T
   3    -10.3552638  0.210883E-05  0.213E-02    1.07       2.1  T
   4    -10.3552674 -0.358430E-05  0.407E-03    1.06      11.0  T
   5    -10.3552676 -0.133900E-06  0.143E-03    1.06      31.3  T
   6    -10.3552676 -0.110661E-07  0.691E-04    1.06      64.8  T
   7    -10.3552676 -0.123488E-08  0.587E-05    1.06     761.5  T
     SCC iter.                  ...        0 min,  0.001 sec
     gradient                   ...        0 min,  0.001 sec
 * total energy  :   -10.1885338 Eh     change       -0.1195881E-05 Eh
   gradient norm :     0.0005630 Eh/α   predicted    -0.7995655E-06 ( -33.14%)
   displ. norm   :     0.0024686 α      lambda       -0.5128109E-06
   maximum displ.:     0.0016988 α      in ANC's #4, #1, #9, ...

   *** GEOMETRY OPTIMIZATION CONVERGED AFTER 8 ITERATIONS ***

------------------------------------------------------------------------
 total energy gain   :        -0.0782403 Eh      -49.0965 kcal/mol
 total RMSD          :         0.4065839 a0        0.2152 Å
 total power (kW/mol):       -25.6774807 (step)-6283.3150 (real)
------------------------------------------------------------------------

 ANCopt (total)                0 d,  0 h,  0 min,  0.033 sec
 optimizer setup                ...        0 min,  0.000 sec (  0.195%)
 model hessian                  ...        0 min,  0.000 sec (  0.297%)
 ANC generation                 ...        0 min,  0.000 sec (  0.162%)
 coordinate transformation      ...        0 min,  0.000 sec (  0.054%)
 single point calculation       ...        0 min,  0.032 sec ( 97.163%)
 optimization log               ...        0 min,  0.000 sec (  0.570%)
 hessian update                 ...        0 min,  0.000 sec (  0.061%)
 rational function              ...        0 min,  0.000 sec (  0.605%)

================
 final structure:
================
5
 xtb: 6.2.2 (9d81278992624c895f80dd42a50cac0aa55982e2)
C        -0.92698978977155    0.51302899750796   -0.34745880801375
C         0.20657675375362    1.10095315547128    0.21541048794723
C         1.15378396366319    0.09783422999582   -0.00859282974877
C        -0.81969081555164   -0.66094736468247    0.36254666653491
C         0.38631988790638   -1.05086901829259   -0.22190551671961

 Bond Distances (Angstroems)
 ---------------------------
C1-C2=1.3955         C1-C4=1.3762         C2-C1=1.3955         C2-C3=1.3977         C3-C2=1.3977         C3-C5=1.3979         
C4-C1=1.3762         C4-C5=1.3957         C5-C3=1.3979         C5-C4=1.3957         
 C  C  Rav=1.3926 sigma=0.0083  Rmin=1.3762  Rmax=1.3979     5

 selected bond angles (degree)
 --------------------
C4-C1-C2= 95.05                C3-C2-C1=100.57                C5-C3-C2=104.01                C5-C4-C1= 95.14                
C4-C5-C3=100.42                

 selected dihedral angles (degree)
 ---------------------------------
C3-C2-C1-C4= 52.32            C5-C3-C2-C1=340.34            C5-C4-C1-C2=295.25            C4-C5-C3-C2=340.05            
C3-C5-C4-C1= 52.54            
           -------------------------------------------------
          |                Final Singlepoint                |
           -------------------------------------------------

          ...................................................
          :                      SETUP                      :
          :.................................................:
          :  # basis functions                  20          :
          :  # atomic orbitals                  20          :
          :  # shells                           10          :
          :  # electrons                        20          :
          :  max. iterations                   250          :
          :  Hamiltonian                  GFN2-xTB          :
          :  restarted?                      false          :
          :  GBSA solvation                  false          :
          :  PC potential                    false          :
          :  electronic temp.          300.0000000     K    :
          :  accuracy                    1.0000000          :
          :  -> integral cutoff          0.2500000E+02      :
          :  -> integral neglect         0.1000000E-07      :
          :  -> SCF convergence          0.1000000E-05 Eh   :
          :  -> wf. convergence          0.1000000E-03 e    :
          :  Broyden damping             0.4000000          :
          ...................................................

 iter      E             dE          RMSdq      gap      omega  full diag
   1    -10.3552676 -0.103553E+02  0.331E-05    1.06       0.0  T
   2    -10.3552676  0.134062E-10  0.508E-05    1.06     879.7  T
   3    -10.3552676 -0.187477E-10  0.119E-05    1.06    3753.3  T

   *** convergence criteria satisfied after 3 iterations ***

         #    Occupation            Energy/Eh            Energy/eV
      -------------------------------------------------------------
         1        2.0000           -0.7329551             -19.9447
       ...           ...                  ...                  ...
         5        2.0000           -0.5608439             -15.2613
         6        2.0000           -0.5483790             -14.9222
         7        2.0000           -0.4867393             -13.2449
         8        2.0000           -0.4559962             -12.4083
         9        2.0000           -0.4536507             -12.3445
        10        1.0000           -0.3866378             -10.5209
        11        1.0000           -0.3861785             -10.5085 (HOMO)
        12                         -0.3471249              -9.4457 (LUMO)
        13                         -0.3432113              -9.3393
        14                         -0.2877249              -7.8294
        15                         -0.2295029              -6.2451
        16                          0.2092276               5.6934
       ...                                ...                  ...
        20                          0.4388697              11.9423
      -------------------------------------------------------------
                  HL-Gap            0.0390536 Eh            1.0627 eV
             Fermi-level           -0.3932896 Eh          -10.7020 eV

 transition dipole moment (au) for excitation:          10          11
     X       Y       Z   
   0.0462  -0.1665  -0.0065  total (au/Debye):    0.173   0.439
 dE (eV)             :    0.012
 oscillator strength :  0.12940E-04

 SCC (total)                   0 d,  0 h,  0 min,  0.004 sec
 SCC setup                      ...        0 min,  0.000 sec (  1.544%)
 Dispersion                     ...        0 min,  0.000 sec (  0.212%)
 integral evaluation            ...        0 min,  0.001 sec ( 31.764%)
 zeroth order Hamiltonian       ...        0 min,  0.000 sec (  0.360%)
 iterations                     ...        0 min,  0.000 sec (  7.917%)
 molecular gradient             ...        0 min,  0.001 sec ( 34.882%)
 printout                       ...        0 min,  0.001 sec ( 23.098%)

         :::::::::::::::::::::::::::::::::::::::::::::::::::::
         ::                     SUMMARY                     ::
         :::::::::::::::::::::::::::::::::::::::::::::::::::::
         :: total energy             -10.188533795288 Eh    ::
         :: gradient norm              0.000563861845 Eh/a0 ::
         :: HOMO-LUMO gap              1.062702141924 eV    ::
         ::.................................................::
         :: SCC energy               -10.355267564389 Eh    ::
         :: -> isotropic ES           -0.007504893841 Eh    ::
         :: -> anisotropic ES          0.000256344506 Eh    ::
         :: -> anisotropic XC          0.008086978324 Eh    ::
         :: -> dispersion             -0.002859338687 Eh    ::
         :: repulsion energy           0.166733738547 Eh    ::
         :: add. restraining           0.000000000000 Eh    ::
         :::::::::::::::::::::::::::::::::::::::::::::::::::::

           ------------------------------------------------- 
          |                Numerical Hessian                |
           ------------------------------------------------- 
step length          :   0.00500
SCC accuracy         :   0.30000
Hessian scale factor :   1.00000
frozen atoms in %    :   0.00000    0
RMS gradient         :   0.00056
estimated CPU  time      0.00 min
estimated wall time      0.00 min

writing file <hessian>.

 projected vibrational frequencies (cm-1)
eigval :       -0.00    -0.00    -0.00     0.00     0.00     0.00
eigval :     -319.03   150.83   429.49   603.67  1008.18  1056.59
eigval :     1195.10  1207.34  1307.41
           -------------------------------------------------
          |                Property Printout                |
           -------------------------------------------------

    * Orbital Energies and Occupations

         #    Occupation            Energy/Eh            Energy/eV
      -------------------------------------------------------------
         1        2.0000           -0.7329552             -19.9447
         2        2.0000           -0.6511418             -17.7185
         3        2.0000           -0.6509980             -17.7146
         4        2.0000           -0.5744759             -15.6323
         5        2.0000           -0.5608440             -15.2613
         6        2.0000           -0.5483790             -14.9222
         7        2.0000           -0.4867393             -13.2449
         8        2.0000           -0.4559963             -12.4083
         9        2.0000           -0.4536507             -12.3445
        10        1.0000           -0.3866377             -10.5209
        11        1.0000           -0.3861783             -10.5084 (HOMO)
        12                         -0.3471250              -9.4458 (LUMO)
        13                         -0.3432114              -9.3393
        14                         -0.2877251              -7.8294
        15                         -0.2295027              -6.2451
        16                          0.2092274               5.6934
        17                          0.2129001               5.7933
        18                          0.2762297               7.5166
        19                          0.4368610              11.8876
        20                          0.4388694              11.9422
      -------------------------------------------------------------
                  HL-Gap            0.0390532 Eh            1.0627 eV
             Fermi-level           -0.3932896 Eh          -10.7020 eV

     #   Z        covCN         q      C6AA      α(0)
     1   6 C      2.567     0.007    27.901     8.635
     2   6 C      2.498    -0.004    28.304     8.689
     3   6 C      2.386    -0.005    28.951     8.763
     4   6 C      2.574     0.007    27.888     8.634
     5   6 C      2.494    -0.005    28.322     8.692

 Mol. C6AA /au·bohr⁶  :        706.792395
 Mol. C8AA /au·bohr⁸  :      20441.664295
 Mol. α(0) /au        :         43.413294


Wiberg/Mayer (AO) data.
largest (>0.10) Wiberg bond orders for each atom
          total WBO             WBO to atom ...
     1  C   3.202        C    4 1.344    C    2 1.267    C    5 0.381    C    3 0.211
     2  C   3.040        C    3 1.291    C    1 1.267    C    4 0.381    C    5 0.101
     3  C   3.006        C    2 1.291    C    5 1.291    C    4 0.214    C    1 0.211
     4  C   3.205        C    1 1.344    C    5 1.266    C    2 0.381    C    3 0.214
     5  C   3.038        C    3 1.291    C    4 1.266    C    1 0.381    C    2 0.101

MOs/occ written to file <molden.input>


molecular dipole:
                 x           y           z       tot (Debye)
 q only:       -0.040      -0.003       0.001
   full:       -0.045      -0.002       0.001       0.115
molecular quadrupole (traceless):
                xx          xy          yy          xz          yz          zz
Molecule has the following symmetry elements: (C2) 
It seems to be the C2 point group
 q only:        0.017       0.005      -0.026       0.002      -0.027       0.009
  q+dip:        0.016       0.014      -0.151       0.016      -0.205       0.135
   full:       -0.323       0.025      -0.601       0.038      -0.391       0.923

           -------------------------------------------------
          |                Geometry Summary                 |
           -------------------------------------------------

      molecular mass/u    :       60.0536795
   center of mass at/Å    :        0.0000000      -0.0000000      -0.0000000
  moments of inertia/u·Å² :        0.4052034E+02   0.4085125E+02   0.7304487E+02
rotational constants/cm⁻¹ :        0.4160289E+00   0.4126589E+00   0.2307846E+00

 * 1 selected distances

     #   Z        #   Z                                     value/Å
     1   6 C      4   6 C                                 1.3761691 (max)

 * 1 distinct bonds (by element types)

   Z      Z             #   av. dist./Å        max./Å        min./Å
   6 C    6 C           1     1.3761691     1.3761691     1.3761691

           -------------------------------------------------
          |               Frequency Printout                |
           -------------------------------------------------
 projected vibrational frequencies (cm-1)
eigval :       -0.00    -0.00    -0.00     0.00     0.00     0.00
eigval :     -319.03   150.83   429.49   603.67  1008.18  1056.59
eigval :     1195.10  1207.34  1307.41
 reduced masses (amu)
   1: 12.01   2: 12.01   3: 12.01   4: 12.01   5: 12.01   6: 12.01   7: 12.01   8: 12.01
   9: 12.01  10: 12.01  11: 12.01  12: 12.01  13: 12.01  14: 12.01  15: 12.01
 IR intensities (amu)
   1:  0.02   2:  0.01   3:  0.04   4:  0.05   5:  0.04   6:  0.05   7:  0.59   8:  0.40
   9:  0.40  10:  0.09  11:  0.08  12:  1.67  13:  1.22  14:  0.82  15:  0.34
 Raman intensities (amu)
   1:  0.00   2:  0.00   3:  0.00   4:  0.00   5:  0.00   6:  0.00   7:  0.00   8:  0.00
   9:  0.00  10:  0.00  11:  0.00  12:  0.00  13:  0.00  14:  0.00  15:  0.00
 output can be read by thermo (or use thermo option).
 writing <g98.out> molden fake output.
 recommended (thermochemical) frequency scaling factor: 1.0
           -------------------------------------------------
          |             Thermodynamic Functions             |
           -------------------------------------------------

c2  symmetry found (for desy threshold:  0.10E+00) used in thermo

          ...................................................
          :                      SETUP                      :
          :.................................................:
          :  # frequencies                           8      :
          :  # imaginary freq.                       1      :
          :  linear?                             false      :
          :  only rotor calc.                    false      :
          :  symmetry                               c2      :
          :  rotational number                       2      :
          :  scaling factor                  1.0000000      :
          :  rotor cutoff                   50.0000000 cm⁻¹ :
          :  imag. cutoff                  -20.0000000 cm⁻¹ :
          :.................................................:

    mode    ω/cm⁻¹     T·S(HO)/kcal·mol⁻¹    T·S(FR)/kcal·mol⁻¹   T·S(vib)
   ------------------------------------------------------------------------
       1    150.83    -0.00000 ( 98.81%)     0.00929 (  1.19%)     0.00011
   ------------------------------------------------------------------------

   temp. (K)  partition function   enthalpy   heat capacity  entropy
                                   cal/mol     cal/K/mol   cal/K/mol   J/K/mol
 298.15  VIB   2.39                  747.433      5.572      4.237
         ROT  0.133E+05              888.752      2.981     21.848
         INT  0.318E+05             1636.185      8.553     26.085
         TR   0.450E+27             1481.254      4.968     38.181
         TOT                        3117.4393    13.5212    64.2657   268.8875

   temp. (K)  partition function   enthalpy   heat capacity  entropy
                                   cal/mol     cal/K/mol   cal/K/mol   J/K/mol
 120.00  VIB   1.20                   92.987      1.911      1.149
         ROT  0.339E+04              357.707      2.981     19.135
         INT  0.408E+04              450.693      4.892     20.285
         TR   0.115E+27              596.178      4.968     33.661
         TOT                        1046.8714     9.8604    53.9461   225.7104

   temp. (K)  partition function   enthalpy   heat capacity  entropy
                                   cal/mol     cal/K/mol   cal/K/mol   J/K/mol
 100.00  VIB   1.13                   58.425      1.545      0.836
         ROT  0.258E+04              298.089      2.981     18.592
         INT  0.292E+04              356.514      4.526     19.428
         TR   0.875E+26              496.815      4.968     32.756
         TOT                         853.3287     9.4942    52.1841   218.3384

   temp. (K)  partition function   enthalpy   heat capacity  entropy
                                   cal/mol     cal/K/mol   cal/K/mol   J/K/mol
  80.00  VIB   1.07                   31.230      1.170      0.535
         ROT  0.185E+04              238.471      2.981     17.927
         INT  0.198E+04              269.702      4.151     18.462
         TR   0.626E+26              397.452      4.968     31.648
         TOT                         667.1536     9.1193    50.1097   209.6588

   temp. (K)  partition function   enthalpy   heat capacity  entropy
                                   cal/mol     cal/K/mol   cal/K/mol   J/K/mol
  60.00  VIB   1.03                   11.949      0.745      0.260
         ROT  0.120E+04              178.853      2.981     17.069
         INT  0.123E+04              190.803      3.726     17.329
         TR   0.406E+26              298.089      4.968     30.219
         TOT                         488.8918     8.6939    47.5489   198.9444

   temp. (K)  partition function   enthalpy   heat capacity  entropy
                                   cal/mol     cal/K/mol   cal/K/mol   J/K/mol
  40.00  VIB   1.00                    1.908      0.260      0.061
         ROT   653.                  119.236      2.981     15.860
         INT   656.                  121.144      3.241     15.921
         TR   0.221E+26              198.726      4.968     28.206
         TOT                         319.8696     8.2090    44.1273   184.6288

   temp. (K)  partition function   enthalpy   heat capacity  entropy
                                   cal/mol     cal/K/mol   cal/K/mol   J/K/mol
  20.00  VIB   1.00                    0.008      0.005     -0.003
         ROT   231.                   59.618      2.981     13.794
         INT   231.                   59.626      2.985     13.791
         TR   0.782E+25               99.363      4.968     24.764
         TOT                         158.9892     7.9536    38.5554   161.3159

   temp. (K)  partition function   enthalpy   heat capacity  entropy
                                   cal/mol     cal/K/mol   cal/K/mol   J/K/mol
  10.00  VIB   1.00                    0.000      0.000     -0.012
         ROT   81.6                   29.809      2.981     11.728
         INT   81.6                   29.809      2.981     11.716
         TR   0.277E+25               49.681      4.968     21.322
         TOT                          79.4904     7.9490    33.0384   138.2327

       T/K    H(0)-H(T)+PV         H(T)/Eh          T*S/Eh         G(T)/Eh
   ------------------------------------------------------------------------
    298.15    0.496796E-02    0.208208E-01    0.305347E-01   -0.971386E-02
    120.00    0.166830E-02    0.175212E-01    0.103162E-01    0.720495E-02
    100.00    0.135987E-02    0.172127E-01    0.831607E-02    0.889667E-02
     80.00    0.106318E-02    0.169161E-01    0.638839E-02    0.105277E-01
     60.00    0.779099E-03    0.166320E-01    0.454644E-02    0.120855E-01
     40.00    0.509745E-03    0.163626E-01    0.281286E-02    0.135498E-01
     20.00    0.253365E-03    0.161062E-01    0.122884E-02    0.148774E-01
     10.00    0.126676E-03    0.159796E-01    0.526501E-03    0.154531E-01 (used)
   ------------------------------------------------------------------------

         :::::::::::::::::::::::::::::::::::::::::::::::::::::
         ::                  THERMODYNAMIC                  ::
         :::::::::::::::::::::::::::::::::::::::::::::::::::::
         :: total free energy         -10.173080738831 Eh   ::
         ::.................................................::
         :: total energy              -10.188533795284 Eh   ::
         :: zero point energy           0.015852880961 Eh   ::
         :: G(RRHO) w/o ZPVE           -0.000399824508 Eh   ::
         :: G(RRHO) contrib.            0.015453056453 Eh   ::
         :::::::::::::::::::::::::::::::::::::::::::::::::::::
imag cut-off (cm-1) :    5.00
 found            1  significant imaginary frequency
 writing imag mode distorted coords to xtbhess.xyz
 for further optimization.

optimized geometry written to: xtbopt.xyz


           -------------------------------------------------
          | TOTAL ENERGY              -10.188533795284 Eh   |
          | TOTAL ENTHALPY            -10.172554238307 Eh   |
          | TOTAL FREE ENERGY         -10.173080738831 Eh   |
          | GRADIENT NORM               0.000564318864 Eh/α |
          | HOMO-LUMO GAP               1.062692694922 eV   |
           -------------------------------------------------

------------------------------------------------------------------------
 * finished run on 2020/05/12 at 11:44:34.576     
------------------------------------------------------------------------
 total:
 * wall-time:     0 d,  0 h,  0 min,  0.169 sec
 *  cpu-time:     0 d,  0 h,  0 min,  0.169 sec
 * ratio c/w:     0.999 speedup
 SCF:
 * wall-time:     0 d,  0 h,  0 min,  0.006 sec
 *  cpu-time:     0 d,  0 h,  0 min,  0.006 sec
 * ratio c/w:     1.000 speedup
 ANC optimizer:
 * wall-time:     0 d,  0 h,  0 min,  0.037 sec
 *  cpu-time:     0 d,  0 h,  0 min,  0.037 sec
 * ratio c/w:     0.999 speedup
 numerical hessian:
 * wall-time:     0 d,  0 h,  0 min,  0.110 sec
 *  cpu-time:     0 d,  0 h,  0 min,  0.110 sec
 * ratio c/w:     0.999 speedup

