5
 energy: -10.110293508190 gnorm: 0.214130415539 xtb: 6.2.2 (9d81278992624c895f80dd42a50cac0aa55982e2)
C        -1.08206000000000    0.64203300000000   -0.17715400000000
C         0.27698300000000    1.24345600000000    0.10373400000000
C         1.27861200000000    0.10880300000000   -0.01053200000000
C        -0.95487200000000   -0.81541200000000    0.19425800000000
C         0.48133700000000   -1.17888000000000   -0.11030600000000
5
 energy: -10.171550663842 gnorm: 0.116924928597 xtb: 6.2.2 (9d81278992624c895f80dd42a50cac0aa55982e2)
C        -0.99889298071860    0.58084745868623   -0.27249747740646
C         0.24417375486501    1.16163961045153    0.16446114862918
C         1.20220785027528    0.10227788463820   -0.00981242552934
C        -0.88162887386064   -0.74092953397036    0.28834008516358
C         0.43414024943896   -1.10383541980560   -0.17049133085696
5
 energy: -10.177332715694 gnorm: 0.126603543568 xtb: 6.2.2 (9d81278992624c895f80dd42a50cac0aa55982e2)
C        -0.92748420124447    0.52662660479886   -0.26847856293414
C         0.21791068128842    1.07825879129344    0.16405253608572
C         1.13572625598203    0.09657700661364   -0.00925072916977
C        -0.82037222578472   -0.67534440126736    0.28320129020166
C         0.39421948975874   -1.02611800143859   -0.16952453418346
5
 energy: -10.186245050162 gnorm: 0.049264708064 xtb: 6.2.2 (9d81278992624c895f80dd42a50cac0aa55982e2)
C        -0.92498214630570    0.51183066839856   -0.39113458133636
C         0.20444117268248    1.09640340997747    0.24186522138457
C         1.15606687576037    0.09826889167767   -0.00929169604858
C        -0.81824597544586   -0.66011023143842    0.40588488466926
C         0.38272007330870   -1.04639273861528   -0.24732382866888
5
 energy: -10.188288325104 gnorm: 0.007792778290 xtb: 6.2.2 (9d81278992624c895f80dd42a50cac0aa55982e2)
C        -0.93287723663850    0.52337094563564   -0.33016696879591
C         0.21178459616198    1.11128558217216    0.20453283464486
C         1.15297683190195    0.09799644828962   -0.00925834464244
C        -0.82502030308883   -0.67283205444571    0.34503788765092
C         0.39313611166341   -1.05982092165172   -0.21014540885743
5
 energy: -10.188522037982 gnorm: 0.003848858849 xtb: 6.2.2 (9d81278992624c895f80dd42a50cac0aa55982e2)
C        -0.92627277999852    0.51442621672021   -0.34650357117218
C         0.20685235897746    1.09980007870004    0.21478022070319
C         1.15278528337039    0.09793674931094   -0.00910401830820
C        -0.81956716984244   -0.66275713950131    0.36134819875215
C         0.38620230749310   -1.04940590522989   -0.22052082997496
5
 energy: -10.188532599386 gnorm: 0.001016429595 xtb: 6.2.2 (9d81278992624c895f80dd42a50cac0aa55982e2)
C        -0.92624113169028    0.51353195404505   -0.34790197130363
C         0.20653214795669    1.10124722089908    0.21584786446271
C         1.15294596751219    0.09789461892122   -0.00900422685695
C        -0.81942088251241   -0.66169412036800    0.36278093323984
C         0.38618389873381   -1.05097967349735   -0.22172259954197
5
 energy: -10.188533795267 gnorm: 0.000563960793 xtb: 6.2.2 (9d81278992624c895f80dd42a50cac0aa55982e2)
C        -0.92698978977155    0.51302899750796   -0.34745880801375
C         0.20657675375362    1.10095315547128    0.21541048794723
C         1.15378396366319    0.09783422999582   -0.00859282974877
C        -0.81969081555164   -0.66094736468247    0.36254666653491
C         0.38631988790638   -1.05086901829259   -0.22190551671961
