$hessian                                                                        
        0.2029217279   0.0144218450   0.1253888959  -0.1501148711  -0.1372745909
       -0.0985510579  -0.0699792678   0.0283405341   0.0203465381   0.0249645693
        0.0860724783  -0.0330717551  -0.0077921584   0.0084397335  -0.0141126209
        0.0144218450   0.2399239734  -0.0901571941  -0.0281733270  -0.0385424347
       -0.0371929529   0.0076200985  -0.0009202853  -0.0043739918  -0.0418299109
       -0.2182778448   0.1315788399   0.0479612944   0.0178165915   0.0001452989
        0.1253888959  -0.0901571941   0.1565739660  -0.0849829542  -0.0612736849
       -0.0667933372  -0.0353488220   0.0105554798   0.0061613075   0.0077912676
        0.1342087045  -0.1102830150  -0.0128483874   0.0066666948   0.0143410788
       -0.1501148711  -0.0281733270  -0.0849829542   0.2835833323  -0.0351180684
        0.0375811960  -0.1469220050   0.1327071247   0.0292542092   0.0018146031
       -0.0516030670   0.0122079368   0.0116389406  -0.0178126623   0.0059396122
       -0.1372745909  -0.0385424347  -0.0612736849  -0.0351180684   0.3043002955
        0.1104345400   0.1428718092  -0.1525665622  -0.0309059807  -0.0107193613
        0.0075876390   0.0089674675   0.0402402114  -0.1207789375  -0.0272223419
       -0.0985510579  -0.0371929529  -0.0667933372   0.0375811960   0.1104345400
        0.0736802110   0.0481542695  -0.0489627388  -0.0132274896   0.0143800153
        0.0031127817   0.0139645963  -0.0015644229  -0.0273916300  -0.0076239804
       -0.0699792678   0.0076200985  -0.0353488220  -0.1469220050   0.1428718092
        0.0481542695   0.3783887628   0.0010175897  -0.0085575968  -0.0601193851
       -0.0170201939   0.0340709907  -0.1013681050  -0.1344893035  -0.0383188414
        0.0283405341  -0.0009202853   0.0105554798   0.1327071247  -0.1525665622
       -0.0489627388   0.0010175897   0.3599192445   0.0756324885  -0.0389842141
       -0.0091169543   0.0174745590  -0.1230810343  -0.1973154427  -0.0546997885
        0.0203465381  -0.0043739918   0.0061613075   0.0292542092  -0.0309059807
       -0.0132274896  -0.0085575968   0.0756324885   0.0136051549  -0.0185613755
       -0.0069297979   0.0059388434  -0.0224817749  -0.0334227182  -0.0124778161
        0.0249645693  -0.0418299109   0.0077912676   0.0018146031  -0.0107193613
        0.0143800153  -0.0601193851  -0.0389842141  -0.0185613755   0.2041779908
       -0.0220231518  -0.1088139839  -0.1708377782   0.1135566381   0.1052040764
        0.0860724783  -0.2182778448   0.1342087045  -0.0516030670   0.0075876390
        0.0031127817  -0.0170201939  -0.0091169543  -0.0069297979  -0.0220231518
        0.2345543544  -0.1096669931   0.0045739343  -0.0147471944  -0.0207246951
       -0.0330717551   0.1315788399  -0.1102830150   0.0122079368   0.0089674675
        0.0139645963   0.0340709907   0.0174745590   0.0059388434  -0.1088139839
       -0.1096669931   0.1606304354   0.0956068115  -0.0483538733  -0.0702508601
       -0.0077921584   0.0479612944  -0.0128483874   0.0116389406   0.0402402114
       -0.0015644229  -0.1013681050  -0.1230810343  -0.0224817749  -0.1708377782
        0.0045739343   0.0956068115   0.2683591009   0.0303055941  -0.0587122262
        0.0084397335   0.0178165915   0.0066666948  -0.0178126623  -0.1207789375
       -0.0273916300  -0.1344893035  -0.1973154427  -0.0334227182   0.1135566381
       -0.0147471944  -0.0483538733   0.0303055941   0.3150249831   0.1025015267
       -0.0141126209   0.0001452989   0.0143410788   0.0059396122  -0.0272223419
       -0.0076239804  -0.0383188414  -0.0546997885  -0.0124778161   0.1052040764
       -0.0207246951  -0.0702508601  -0.0587122262   0.1025015267   0.0760115778
