5
 energy: -10.188533795288 gnorm: 0.000563861845 xtb: 6.2.2 (9d81278992624c895f80dd42a50cac0aa55982e2)
C        -0.92698831640599    0.51303324478367   -0.34745646761083
C         0.20658327024648    1.10095244977944    0.21540784533094
C         1.15378444590387    0.09782817379846   -0.00859702796745
C        -0.81969301071378   -0.66094244002466    0.36255068136363
C         0.38631361096941   -1.05087142833692   -0.22190503111629
