[Molden Format]
[Title]
[Atoms] AU
C      1     6 -0.17517538762077E+01  0.96949223551985E+00 -0.65659750309534E+00
C      2     6  0.39038576647546E+00  0.20804984132906E+01  0.40706179500407E+00
C      3     6  0.21803364073200E+01  0.18486843859931E+00 -0.16246026836920E-01
C      4     6 -0.15489951528034E+01 -0.12490000799064E+01  0.68512143050824E+00
C      5     6  0.73002685521561E+00 -0.19858590075033E+01 -0.41933969558005E+00
[GTO]
           1 0
 s           4   1.0000000000000000     
   51.049363095579913      -0.16312063210127389     
   8.7911227406887544      -0.19911024581000730     
  0.70640422258929825       0.31882047753655751     
  0.26922813413411617       0.12706504184240380     
 p           4   1.0000000000000000     
   5.8263656140800002       0.73716451545209605     
   1.5106896018720002       0.68216371614850257     
  0.53256483288000001       0.35783053929253711     
  0.21202323690600003        5.3983030275847881E-002

           2 0
 s           4   1.0000000000000000     
   51.049363095579913      -0.16312063210127389     
   8.7911227406887544      -0.19911024581000730     
  0.70640422258929825       0.31882047753655751     
  0.26922813413411617       0.12706504184240380     
 p           4   1.0000000000000000     
   5.8263656140800002       0.73716451545209605     
   1.5106896018720002       0.68216371614850257     
  0.53256483288000001       0.35783053929253711     
  0.21202323690600003        5.3983030275847881E-002

           3 0
 s           4   1.0000000000000000     
   51.049363095579913      -0.16312063210127389     
   8.7911227406887544      -0.19911024581000730     
  0.70640422258929825       0.31882047753655751     
  0.26922813413411617       0.12706504184240380     
 p           4   1.0000000000000000     
   5.8263656140800002       0.73716451545209605     
   1.5106896018720002       0.68216371614850257     
  0.53256483288000001       0.35783053929253711     
  0.21202323690600003        5.3983030275847881E-002

           4 0
 s           4   1.0000000000000000     
   51.049363095579913      -0.16312063210127389     
   8.7911227406887544      -0.19911024581000730     
  0.70640422258929825       0.31882047753655751     
  0.26922813413411617       0.12706504184240380     
 p           4   1.0000000000000000     
   5.8263656140800002       0.73716451545209605     
   1.5106896018720002       0.68216371614850257     
  0.53256483288000001       0.35783053929253711     
  0.21202323690600003        5.3983030275847881E-002

           5 0
 s           4   1.0000000000000000     
   51.049363095579913      -0.16312063210127389     
   8.7911227406887544      -0.19911024581000730     
  0.70640422258929825       0.31882047753655751     
  0.26922813413411617       0.12706504184240380     
 p           4   1.0000000000000000     
   5.8263656140800002       0.73716451545209605     
   1.5106896018720002       0.68216371614850257     
  0.53256483288000001       0.35783053929253711     
  0.21202323690600003        5.3983030275847881E-002

[MO]
Sym=     1a
Ene=  -0.73295516289816121     
Spin= Alpha
Occup=     2.00000000
           1  0.31424112742160659     
           2  0.10524019861447458     
           3  -7.1586611912136167E-002
           4   6.8249679242099570E-002
           5  0.25967056369998653     
           6  -3.9685108964873199E-002
           7 -0.12200585376641486     
           8  -3.4571736224612730E-002
           9  0.22704415407696382     
          10 -0.12362065421516139     
          11  -1.0553974097325157E-002
          12   9.1200729483602555E-004
          13  0.31461251303570081     
          14   9.0438577507548648E-002
          15   8.8235735667632681E-002
          16  -7.0035765533886643E-002
          17  0.25972782849634318     
          18  -5.9066547559796768E-002
          19  0.11350942757146382     
          20   3.5667325521280990E-002
Sym=     2a
Ene=  -0.65114184309451217     
Spin= Alpha
Occup=     2.00000000
           1  0.41684438370167126     
           2  -4.8143540358712357E-002
           3  -7.5221048481493935E-003
           4   9.3444745837234999E-002
           5   5.6926131276647370E-002
           6 -0.22433203768682736     
           7   5.0195161934301576E-002
           8  -1.5817196623510037E-002
           9 -0.39998588094807164     
          10   4.1647956261637122E-002
          11  0.11117561548713743     
          12   5.2107398571134772E-003
          13  0.16217863939731766     
          14 -0.16921189602058812     
          15  0.17090056429125031     
          16  -3.9125910295318748E-002
          17 -0.35071407011344924     
          18 -0.14023666569419055     
          19  -7.8578498866979887E-002
          20  -4.1333369853130519E-002
Sym=     3a
Ene=  -0.65099798244848561     
Spin= Alpha
Occup=     2.00000000
           1  -6.7406701813415904E-002
           2 -0.13110087713953505     
           3 -0.22696761028086379     
           4  -8.8778811397502953E-003
           5 -0.44818259101061320     
           6  -3.8737242172085178E-002
           7   3.2209900364173906E-002
           8   6.0836095021169073E-002
           9 -0.22284370718755311     
          10   4.4425718690127569E-002
          11 -0.19004285153092190     
          12  -9.8812634734790471E-003
          13  0.38974479068037882     
          14   4.4999205302422851E-002
          15 -0.10750903488145161     
          16  -8.4846809476965615E-002
          17  0.28461628367685249     
          18 -0.16268711039456529     
          19  -5.4104231236428421E-002
          20   4.8488240295458507E-002
Sym=     4a
Ene=  -0.57447585265627943     
Spin= Alpha
Occup=     2.00000000
           1  0.31179042838453819     
           2  -7.0505388888514476E-003
           3  0.12549174275868963     
           4 -0.12327650462395924     
           5 -0.21523470936878730     
           6 -0.27557390683415156     
           7   2.7143846019894776E-002
           8 -0.16717553921174971     
           9  -1.0917773184209783E-003
          10   2.7173747012473770E-002
          11 -0.33995988642982772     
          12 -0.20454878969590573     
          13 -0.31248774645227612     
          14  -1.4176452790209230E-002
          15  0.12264776537294009     
          16 -0.12292344329802621     
          17  0.21761356832769302     
          18  0.26313281482544354     
          19   7.1740809741762571E-002
          20 -0.17071806342836515     
Sym=     5a
Ene=  -0.56084403465121302     
Spin= Alpha
Occup=     2.00000000
           1  -7.1180317739225243E-002
           2  0.24314738223910637     
           3  0.31650072363525550     
           4  -4.6234936453635862E-002
           5  0.23709164594888615     
           6 -0.22128155725729295     
           7  0.14862437580430168     
           8  -7.4894030966373662E-002
           9 -0.34424551580994533     
          10 -0.11073399836881331     
          11  -7.8616187206719951E-003
          12   1.7078265296389802E-003
          13  -6.9061379496042130E-002
          14  0.29384203221635569     
          15 -0.27181990778610432     
          16   4.1586483228219791E-002
          17  0.23500995154181695     
          18 -0.19428325269142538     
          19 -0.18406863514227789     
          20   7.9064971516017921E-002
Sym=     6a
Ene=  -0.54837901670907296     
Spin= Alpha
Occup=     2.00000000
           1  -7.9284801045624395E-002
           2  -6.7018774849942508E-002
           3  0.14472144877977716     
           4  0.35474970273855400     
           5   4.0333990877682267E-003
           6 -0.22657245397500350     
           7  -3.4136160742673116E-002
           8  0.27351968834300966     
           9  -3.8892659343682780E-005
          10   2.3458916060864213E-002
          11 -0.25814577823559892     
          12  0.21598290945375473     
          13   7.9474391319982310E-002
          14   4.8593571996070853E-002
          15  0.15373949575197371     
          16  0.35430303057601154     
          17  -4.3436785011713693E-003
          18  0.23318752927612885     
          19   4.2911145197536528E-003
          20  0.26987505155957947     
Sym=     7a
Ene=  -0.48673934116384837     
Spin= Alpha
Occup=     2.00000000
           1 -0.23576432366921155     
           2  0.31423815254710796     
           3 -0.19295662181466350     
           4   1.5741441755207097E-002
           5 -0.25981899413443837     
           6  -7.2150227456748789E-002
           7 -0.31909380088088563     
           8   1.7249845114077216E-002
           9 -0.27503143756148080     
          10 -0.29321838840949777     
          11  -2.5189542168286214E-002
          12   2.3037770995449143E-003
          13 -0.23531064757958631     
          14  0.27700993113946493     
          15  0.24359786724621069     
          16  -2.1175624479751649E-002
          17 -0.25969275781342999     
          18 -0.12492759228583236     
          19  0.30225673911076872     
          20  -1.5951979944604656E-002
Sym=     8a
Ene=  -0.45599626874120508     
Spin= Alpha
Occup=     2.00000000
           1  0.21841285592459353     
           2  -4.8785962772725658E-003
           3  0.18039570067585931     
           4 -0.30465690960087305     
           5 -0.30687362704576621     
           6  -1.6356026748365955E-002
           7 -0.16313622771013378     
           8 -0.41970775898637652     
           9  0.16408208050599205     
          10   8.6671933712582264E-002
          11   6.6538361792574342E-003
          12   8.4566432706375781E-003
          13  0.20633799951845966     
          14   3.8747300469437508E-002
          15 -0.17670618384706560     
          16  0.29200207382027188     
          17 -0.30813936082028615     
          18  -3.8977068495168271E-002
          19  0.15742799469434915     
          20  0.42886379878918585     
Sym=     9a
Ene=  -0.45365066326362552     
Spin= Alpha
Occup=     2.00000000
           1 -0.34101282372604136     
           2  0.23782235524035006     
           3  -1.8484325526554601E-002
           4  0.31115166370935315     
           5   1.2778211157789350E-002
           6  -7.1809830723372020E-002
           7   5.7067707756769337E-002
           8 -0.24919323902215690     
           9   2.0050459695442105E-003
          10  -4.0316758950267413E-003
          11   1.3938184469073222E-002
          12 -0.51762188570250511     
          13  0.34871120357067276     
          14 -0.22491039228171519     
          15  -6.4363245307966735E-002
          16  0.32632163699133976     
          17  -2.2971934830894544E-002
          18   5.6555373022043214E-002
          19   7.3775309848763918E-002
          20 -0.23442416574799824     
Sym=    10a
Ene=  -0.38663769583817736     
Spin= Alpha
Occup=     1.00000000
           1  -9.4933848602750753E-002
           2  -8.6777555378898669E-003
           3  -6.3275678119072740E-002
           4 -0.11584675316905886     
           5  0.26068964498098185     
           6  -2.0023798345717710E-002
           7  0.61828476575671176     
           8  0.12923050967793689     
           9   1.8049346601906258E-002
          10   5.9872944817396384E-002
          11 -0.25494612975364517     
          12  -5.9890535041687780E-002
          13   8.5830904703666611E-002
          14   4.6118628253029752E-002
          15  -5.0024126307557343E-002
          16 -0.14118179105247208     
          17 -0.27145745980337088     
          18 -0.10339313378809502     
          19  0.60666806798286466     
          20  0.13100244392059976     
Sym=    11a
Ene=  -0.38617826238383007     
Spin= Alpha
Occup=     1.00000000
           1   7.3834111445665360E-002
           2 -0.30201081934355345     
           3   4.9572198570738170E-002
           4 -0.21646444758552752     
           5  0.12181720446047933     
           6  0.20889746658874667     
           7   1.1143571953308501E-002
           8   2.2068017709481906E-002
           9 -0.34842994506675090     
          10 -0.73493302151621009     
          11  -7.5243892422587014E-002
          12   1.2156740022672273E-003
          13   8.1116073290817936E-002
          14 -0.27724631452057202     
          15 -0.10298818150371024     
          16  0.20903369032834240     
          17   9.4458975063969372E-002
          18  0.19611763013754863     
          19   8.8940214777017176E-002
          20  -1.1217403664892519E-002
Sym=    12a
Ene=  -0.34712502444796295     
Spin= Alpha
Occup=     0.00000000
           1  0.13205782727305898     
           2 -0.55312401967764113     
           3  0.21894931918431090     
           4  0.20202142599159725     
           5 -0.11626270389627950     
           6  0.18254400712070964     
           7  0.10493935912293159     
           8   1.2961075623795160E-002
           9   9.3738606766651418E-003
          10  -1.9914696683353300E-002
          11  0.23368557892197447     
          12 -0.41025365272323716     
          13 -0.12910575991947654     
          14  0.50390889048681220     
          15  0.27597923184102791     
          16  0.18579914189721466     
          17  0.10544783219253009     
          18 -0.22325222348735790     
          19   9.7792670868829812E-002
          20  -1.2485325611767791E-002
Sym=    13a
Ene=  -0.34321136392829427     
Spin= Alpha
Occup=     0.00000000
           1  -3.0422086466140034E-002
           2  0.17480341408596181     
           3 -0.39389137942056762     
           4  -4.5874687181649262E-002
           5  0.11157184479548289     
           6  0.24164089855163742     
           7  0.37030074540592223     
           8 -0.38234110559195056     
           9 -0.21124446308318559     
          10   6.0235074585260400E-003
          11   9.6586648909048594E-003
          12  -1.6440106557225900E-002
          13  -4.0952599704404520E-002
          14  0.14780180947197749     
          15  0.44093412232302220     
          16   5.7895720194397572E-002
          17  0.11966407116442057     
          18  0.29006594290302501     
          19 -0.31766784222739297     
          20  0.37883038891888199     
Sym=    14a
Ene=  -0.28772506978680978     
Spin= Alpha
Occup=     0.00000000
           1  0.17854955258007185     
           2  0.20946434474768727     
           3 -0.14479430897822254     
           4 -0.60105100576456039     
           5   5.9353186456072016E-002
           6   6.1722283644643555E-003
           7   4.2278388967130820E-002
           8  0.38937985428317734     
           9  -2.9718101677008647E-002
          10  0.21622398798069972     
          11   1.8334855736901964E-002
          12  -5.8350980713465291E-004
          13  0.17951734202093378     
          14  0.19383102539544766     
          15  0.18002272361732277     
          16  0.59788299296818981     
          17   6.0206900902441483E-002
          18   5.6470331492250178E-003
          19  -3.8238092911420128E-002
          20 -0.39182281784911771     
Sym=    15a
Ene=  -0.22950273727011716     
Spin= Alpha
Occup=     0.00000000
           1   7.3100555528195665E-002
           2   5.7035456093316464E-002
           3 -0.17081658275147260     
           4 -0.18306897638259714     
           5  0.13237313082681743     
           6 -0.15068119138302222     
           7 -0.21476239172991321     
           8  0.52942799039807120     
           9  -5.3985580712140899E-004
          10  -1.3271675196606632E-002
          11  0.10154788706215458     
          12 -0.70969415542733538     
          13  -7.2329188029168337E-002
          14  -2.9178193724060886E-002
          15 -0.17815264599439143     
          16 -0.17978500623231411     
          17 -0.13262196926110217     
          18  0.19318691928931478     
          19 -0.18545169748664861     
          20  0.52365328495618113     
Sym=    16a
Ene=   0.20922735535948975     
Spin= Alpha
Occup=     0.00000000
           1  0.14575720641805534     
           2 -0.45005412923371768     
           3 -0.73391364604592968     
           4  0.19227469611988721     
           5  0.45918697979163664     
           6 -0.23264485255813436     
           7 -0.17650234644831553     
           8 -0.30579798376687106     
           9   2.9852734595996605E-003
          10   2.1013500778615381E-002
          11 -0.25318181126165590     
          12   5.9880809555307106E-002
          13 -0.15097544818785896     
          14  0.56626708868382070     
          15 -0.64363114288874068     
          16  0.18629832055928980     
          17 -0.45612999965897488     
          18  0.24533214313150215     
          19 -0.13687770489378431     
          20 -0.30865350581141071     
Sym=    17a
Ene=   0.21290010123012143     
Spin= Alpha
Occup=     0.00000000
           1  0.38865361793641040     
           2  0.30745620055484779     
           3  0.34664984350081263     
           4  0.27239431946739889     
           5 -0.12384826295695089     
           6  0.70107916690520822     
           7 -0.13158409098689880     
           8  0.13928966547772950     
           9 -0.60094671711166892     
          10  0.31773581475903451     
          11   3.3825244390754357E-002
          12   8.8562126956718168E-004
          13  0.39058529154821203     
          14  0.36618959960222647     
          15 -0.29940432481922408     
          16 -0.27841444562756856     
          17 -0.12437902520178756     
          18  0.68005003951818621     
          19  0.25201759153971653     
          20 -0.15511550217332348     
Sym=    18a
Ene=   0.27622970098449290     
Spin= Alpha
Occup=     0.00000000
           1 -0.11000600391920412     
           2  -9.4904010224492658E-002
           3 -0.19347840855601503     
           4  -5.1947403093459237E-002
           5 -0.33911999816298538     
           6 -0.67255347062846438     
           7  0.29153249734145170     
           8   1.5507495765630548E-003
           9   5.4971045265567791E-003
          10  -8.8633204415582242E-002
          11   1.0271172751784432     
          12  0.23981513201670529     
          13  0.10325740645650101     
          14  0.11922532583575327     
          15 -0.16959714565337966     
          16  -4.9725481223348127E-002
          17  0.34065633434006209     
          18  0.60218834405693189     
          19  0.39594547540699038     
          20  -5.0717686499447915E-003
Sym=    19a
Ene=   0.43686104185698488     
Spin= Alpha
Occup=     0.00000000
           1 -0.18473117757041821     
           2 -0.26902687112411861     
           3 -0.17657779544388455     
           4  -8.3421655737304964E-002
           5  0.60134600801812810     
           6   2.7358291588837808E-002
           7 -0.54537787553048656     
           8 -0.20665553314472215     
           9 -0.73278126759847340     
          10  0.69799032895668101     
          11   7.2355582741956637E-002
          12  -2.8746104686295224E-003
          13 -0.37157787162776057     
          14 -0.37057811686077990     
          15   1.7734407491120048E-002
          16  0.20475337441085731     
          17  0.68680036720481419     
          18 -0.13637418540739410     
          19  0.59639366142960715     
          20  0.24902646134310830     
Sym=    20a
Ene=   0.43886944210606482     
Spin= Alpha
Occup=     0.00000000
           1  0.83252216929991962     
           2  0.44902586199724953     
           3 -0.40276813315044657     
           4  0.50776681254611000     
           5 -0.43679939302839815     
           6  0.28070845534992417     
           7  0.34692378479789343     
           8  0.19213585366628760     
           9   8.4950442595026890E-002
          10  -9.0571563555161258E-002
          11   9.8290653577326997E-002
          12   1.3654133921946292E-002
          13 -0.76633430761301480     
          14 -0.28539718917011864     
          15 -0.48945959103627013     
          16  0.48049213445166611     
          17  0.28534201852349411     
          18 -0.30673631388553180     
          19  0.16252238088075135     
          20  0.14384252581841622     
