[Molden Format]
[Title]
[Atoms] AU
C      1     6 -0.28362389653142E+01  0.51528296990468E-01  0.11688091076369E+00
N      2     7 -0.94594062913667E+00  0.46275307048537E+00  0.16284818043298E+01
C      3     6  0.11998130662323E+01 -0.29502940203756E-01 -0.72446854937183E-01
C      4     6 -0.10136210556562E+01 -0.47485075783221E+00 -0.17036847154545E+01
C      5     6  0.35959875838912E+01 -0.99257797106135E-02  0.30770745020837E-01
[GTO]
           1 0
 s           4   1.0000000000000000     
   51.049363095579913      -0.16312063210127389     
   8.7911227406887544      -0.19911024581000730     
  0.70640422258929825       0.31882047753655751     
  0.26922813413411617       0.12706504184240380     
 p           4   1.0000000000000000     
   5.8263656140800002       0.73716451545209605     
   1.5106896018720002       0.68216371614850257     
  0.53256483288000001       0.35783053929253711     
  0.21202323690600003        5.3983030275847881E-002

           2 0
 s           4   1.0000000000000000     
   63.594024466941008      -0.19234388414721629     
   10.951417231523665      -0.23478107924953728     
  0.87999310257376984       0.37593753901700888     
  0.33538715296521110       0.14982889271862770     
 p           4   1.0000000000000000     
   7.2965040481495080       0.97658666315667420     
   1.8918745450712575       0.90372226730345739     
  0.66694432110824120       0.47404958461536373     
  0.26552202674130870        7.1516067715011844E-002

           3 0
 s           4   1.0000000000000000     
   51.049363095579913      -0.16312063210127389     
   8.7911227406887544      -0.19911024581000730     
  0.70640422258929825       0.31882047753655751     
  0.26922813413411617       0.12706504184240380     
 p           4   1.0000000000000000     
   5.8263656140800002       0.73716451545209605     
   1.5106896018720002       0.68216371614850257     
  0.53256483288000001       0.35783053929253711     
  0.21202323690600003        5.3983030275847881E-002

           4 0
 s           4   1.0000000000000000     
   51.049363095579913      -0.16312063210127389     
   8.7911227406887544      -0.19911024581000730     
  0.70640422258929825       0.31882047753655751     
  0.26922813413411617       0.12706504184240380     
 p           4   1.0000000000000000     
   5.8263656140800002       0.73716451545209605     
   1.5106896018720002       0.68216371614850257     
  0.53256483288000001       0.35783053929253711     
  0.21202323690600003        5.3983030275847881E-002

           5 0
 s           4   1.0000000000000000     
   51.049363095579913      -0.16312063210127389     
   8.7911227406887544      -0.19911024581000730     
  0.70640422258929825       0.31882047753655751     
  0.26922813413411617       0.12706504184240380     
 p           4   1.0000000000000000     
   5.8263656140800002       0.73716451545209605     
   1.5106896018720002       0.68216371614850257     
  0.53256483288000001       0.35783053929253711     
  0.21202323690600003        5.3983030275847881E-002

[MO]
Sym=     1a
Ene=  -0.75224493916943314     
Spin= Alpha
Occup=     2.00000000
           1 -0.29078477061484664     
           2 -0.16832964987754281     
           3   2.0336049458041798E-003
           4   2.7916788409372371E-003
           5 -0.34871383930692568     
           6   2.9103977042137944E-003
           7   6.4274743287777339E-002
           8  0.22873551285146432     
           9 -0.24926431677385233     
          10  0.14134257471841791     
          11  -2.9187328245671657E-003
          12  -6.9750244812843655E-003
          13 -0.30632095936965409     
          14  -4.5152600098429538E-003
          15  -4.2324443475476210E-002
          16 -0.15022120081853571     
          17  -3.5305145389886911E-002
          18   3.5626685474958682E-002
          19   1.0036178296262767E-004
          20   9.8838245950808490E-004
Sym=     2a
Ene=  -0.68525166073107024     
Spin= Alpha
Occup=     2.00000000
           1  0.23863756199784647     
           2   3.5477232805288583E-002
           3   9.3917694540167785E-003
           4   3.4777895164696336E-002
           5   6.9059907023853034E-002
           6 -0.23383932587692532     
           7  -7.0071631880811271E-004
           8  -7.5722216611588313E-003
           9 -0.46900928220625082     
          10 -0.17422741466330502     
          11  -3.3944276332856533E-003
          12  -1.4427201454049212E-002
          13   4.3646859272872835E-003
          14 -0.15703854057350450     
          15   4.4148218717297190E-003
          16   1.2298655617560076E-002
          17 -0.42661584250772555     
          18  0.16712710374796974     
          19   1.1250837992649700E-003
          20   6.3822591604027687E-003
Sym=     3a
Ene=  -0.64139645489265795     
Spin= Alpha
Occup=     2.00000000
           1   1.3399633541943630E-002
           2   1.8184257091251092E-002
           3   8.8994372802425642E-002
           4  0.31648423284075339     
           5  0.53961617097836390     
           6  -6.6117809723631044E-002
           7   2.7638769445223629E-002
           8   9.5782563743288487E-002
           9  -9.8361440221332308E-003
          10   8.1816170674849836E-002
          11   6.5956962184100978E-002
          12  0.23556376046333263     
          13 -0.49395756910971633     
          14   5.4639905335388652E-003
          15   8.9167353624240945E-003
          16   3.1987724319560186E-002
          17   9.8170579572376890E-002
          18  -1.5760616683433461E-002
          19   1.4617099642146320E-002
          20   5.1739425138311548E-002
Sym=     4a
Ene=  -0.62695439806224373     
Spin= Alpha
Occup=     2.00000000
           1  0.41492793388309751     
           2  -3.3972861991803799E-002
           3   6.1429661149252253E-003
           4   2.0760315217221530E-002
           5 -0.14596615199465973     
           6 -0.40985000141629180     
           7   9.3153138677357031E-003
           8   2.1767645430452412E-002
           9  -6.7960809594617075E-002
          10  0.34769125731067940     
          11  -3.4084120237999525E-002
          12 -0.11608213833825455     
          13   4.0005015346301812E-002
          14 -0.20075211692137171     
          15  -6.6886377589127398E-004
          16  -8.3223591949384817E-003
          17  0.40755876102919730     
          18  -3.7153371022625704E-002
          19  -1.0469487301818981E-002
          20  -3.7603617123545416E-002
Sym=     5a
Ene=  -0.57834523376192803     
Spin= Alpha
Occup=     2.00000000
           1  -9.2221166189220626E-005
           2  -2.6140173481695962E-003
           3 -0.36494281695902592     
           4  0.10336227921299387     
           5   2.4948607233129128E-004
           6  -4.5407282645526705E-003
           7 -0.53704591216663722     
           8  0.15117766949674463     
           9   4.9576914287171128E-004
          10  -1.5683411565068459E-003
          11 -0.34902792555992473     
          12   9.7430066681057692E-002
          13   1.7232681322983006E-004
          14  -1.5898722072099254E-003
          15 -0.32124229562234224     
          16   9.0442678828876591E-002
          17   3.9370876590614622E-004
          18  -5.8621486333925831E-004
          19 -0.12692373124920747     
          20   3.5389053515125654E-002
Sym=     6a
Ene=  -0.57122261520120021     
Spin= Alpha
Occup=     2.00000000
           1 -0.14305646854664578     
           2   5.2394049958120296E-002
           3   9.3093741904025584E-002
           4  0.32942851335670059     
           5   1.7840353348473954E-002
           6 -0.32933131090050749     
           7   1.1231173995994225E-002
           8   2.8324991958530700E-002
           9   7.0932338743972104E-002
          10  -5.9043338434247708E-002
          11 -0.11624202366204045     
          12 -0.41613959236005982     
          13   4.5968785923763043E-002
          14  0.43920973170451844     
          15  -1.5100811909740254E-002
          16  -4.5130475412997986E-002
          17  -8.9086824859460553E-002
          18  -1.1332052781694288E-002
          19  -4.7914867888589216E-002
          20 -0.17129670827410454     
Sym=     7a
Ene=  -0.50986621796950204     
Spin= Alpha
Occup=     2.00000000
           1   7.9865980088539554E-002
           2   7.0674835820521125E-003
           3   2.3154864143135563E-002
           4   8.2282120232704384E-002
           5 -0.48565640791515585     
           6  -4.3219276175124201E-002
           7 -0.15523403076063585     
           8 -0.55287549426547000     
           9   7.4415570720780838E-002
          10  -4.0698810195672570E-002
          11   1.1070536650030285E-002
          12   3.9356110223415446E-002
          13 -0.49766651595055528     
          14   6.6419195338363615E-002
          15  0.10744673850533981     
          16  0.38358655336932229     
          17  -7.4073190676914646E-002
          18  -4.1814748435852880E-002
          19   5.9558888494525503E-003
          20   2.0992548681360919E-002
Sym=     8a
Ene=  -0.47036001290002283     
Spin= Alpha
Occup=     2.00000000
           1 -0.38151421833092952     
           2  0.42356385310946926     
           3  -1.1692947625915218E-002
           4  -7.3775360776276349E-003
           5   1.7374954160391250E-002
           6  -2.5796190731094747E-002
           7  -5.3651100192087631E-002
           8 -0.17201833569522873     
           9 -0.26867477631065412     
          10  -5.9230619289094892E-002
          11   1.0884652227419730E-002
          12   2.1526086192367659E-003
          13   5.4863497945095964E-002
          14  -2.6700229395934167E-003
          15   7.9373041977392651E-003
          16   2.8658187030807466E-002
          17  0.54460804682241604     
          18  0.51253202848895163     
          19   1.4452876021644119E-002
          20   2.3568221806042441E-002
Sym=     9a
Ene=  -0.46633862961087708     
Spin= Alpha
Occup=     2.00000000
           1  -6.2710982133233392E-003
           2   1.0032806275272621E-002
           3  0.36035489167382367     
           4 -0.10156301498438559     
           5   3.0486516044763665E-004
           6   1.5577142966970243E-003
           7  0.30068074440432790     
           8  -8.7742046978896912E-002
           9  -4.1452333415880910E-003
          10  -3.6352205047935722E-003
          11 -0.53162101258239791     
          12  0.14985621107601299     
          13   1.2706811919301951E-003
          14  -1.4015133157122822E-004
          15  -8.2854006004853542E-003
          16   2.5754538657672401E-003
          17   9.2232267756495716E-003
          18   6.7873093721241735E-003
          19 -0.54828851157363434     
          20  0.15501938454688488     
Sym=    10a
Ene=  -0.42380563481737643     
Spin= Alpha
Occup=     1.00000000
           1  0.39398454948950812     
           2 -0.57329699998739925     
           3   7.8377708635830922E-004
           4  -1.5069238980153809E-002
           5   4.9632223944874640E-002
           6  0.25578562228624541     
           7   2.9697317228309560E-002
           8  0.11681177810096317     
           9   3.6251729270184545E-002
          10 -0.25630159728049695     
          11  -2.5940676205847987E-002
          12  -9.5605957943116424E-002
          13 -0.10628660421991656     
          14  0.19504861861137171     
          15   3.9254994267413530E-002
          16  0.13903337525040105     
          17  0.30977999519601790     
          18  0.44647107381834222     
          19  -4.4576642350894959E-002
          20 -0.15217575346390724     
Sym=    11a
Ene=  -0.41240836801664538     
Spin= Alpha
Occup=     1.00000000
           1   4.0489717530804211E-003
           2  -8.1431152848601140E-003
           3 -0.20799129417260986     
           4   6.6284636233191474E-002
           5  -5.3034192874150633E-003
           6   2.0265886158823349E-003
           7  0.61419231356845405     
           8 -0.17900999628414357     
           9   9.2953468991728084E-004
          10  -2.5951292788774899E-003
          11   4.7286893014388265E-002
          12  -7.4232629235092265E-003
          13   7.3498217071793510E-003
          14   9.4539775720609400E-004
          15 -0.73398820648524621     
          16  0.19609505464080024     
          17   2.3352915828869095E-003
          18   3.1308628461993817E-003
          19  0.12320891887595274     
          20  -1.7989796795241684E-002
Sym=    12a
Ene=  -0.40980458681796750     
Spin= Alpha
Occup=     1.00000000
           1 -0.12313447475346689     
           2  0.20322968336415656     
           3  -8.3026226387215601E-002
           4 -0.26878002706851079     
           5  0.19833994057854221     
           6  0.10948661844232208     
           7   8.0202943474315697E-002
           8  0.22557544996404547     
           9  -3.1136883120633500E-002
          10   8.9110836615738945E-002
          11  -5.9352142613866753E-002
          12 -0.21342757409672677     
          13 -0.27862277019291054     
          14 -0.21930207178248384     
          15   9.0687433950382826E-002
          16  0.38929615226691139     
          17  -6.9845950165680945E-002
          18  -7.4140479755674685E-002
          19 -0.17280695519322498     
          20 -0.62536170094415089     
Sym=    13a
Ene=  -0.33909382543317645     
Spin= Alpha
Occup=     0.00000000
           1  -4.3812308865425725E-002
           2   7.9402298252371509E-002
           3  -5.8152311011170597E-002
           4 -0.20428456450255034     
           5  -4.1153625761720249E-002
           6 -0.17666249158322037     
           7  0.14433768401388997     
           8  0.50728085795029265     
           9   3.1382793458038787E-002
          10  -2.5634846537559711E-002
          11  -5.3563704279960940E-002
          12 -0.19046082216853688     
          13  -5.1898558637253102E-002
          14  0.14840308627216336     
          15  0.15894179658582225     
          16  0.56923014385431836     
          17   7.9535279030225250E-003
          18  -1.4074372112859673E-003
          19  0.16859972296372572     
          20  0.59840811391086490     
Sym=    14a
Ene=  -0.30380004749708900     
Spin= Alpha
Occup=     0.00000000
           1  -2.0111430081634620E-005
           2   5.6611651456543897E-003
           3  0.70335446379926847     
           4 -0.19806348758421119     
           5  -2.2854004948428692E-005
           6  -2.2602420771013396E-003
           7 -0.27520182830349277     
           8   7.7488915088216689E-002
           9   2.3600574743805209E-004
          10  -1.4291361789373223E-003
          11 -0.32253660535742884     
          12   9.0864304081458264E-002
          13  -3.9141462815324729E-006
          14  -2.7141354583750609E-003
          15 -0.33437289999992997     
          16   9.4091198897553005E-002
          17   8.8013393881598791E-005
          18   2.1177536433468285E-003
          19  0.59375926966861114     
          20 -0.16731385850247515     
Sym=    15a
Ene=  -0.18016025186145002     
Spin= Alpha
Occup=     0.00000000
           1   1.7414313597817943E-004
           2   2.7131496518218003E-003
           3  0.44228841802474267     
           4 -0.12451039404411701     
           5   3.7547304308109390E-004
           6  -2.0774463900020976E-003
           7 -0.38333941297425034     
           8  0.10758921398987246     
           9  -1.5055882203279221E-003
          10   3.9509130914188425E-003
          11  0.72021553916833714     
          12 -0.20298978972253420     
          13   3.0259191371046195E-004
          14  -2.7245859196906325E-003
          15 -0.48692778769769723     
          16  0.13751621648998488     
          17   3.9744075675763613E-005
          18  -3.0696707507635768E-003
          19 -0.54932126325867514     
          20  0.15481762046284187     
Sym=    16a
Ene=   -1.0908663472997208E-002
Spin= Alpha
Occup=     0.00000000
           1   9.4303382690421406E-002
           2  -4.3738127407744770E-002
           3  -8.4376018840427724E-002
           4 -0.29995284982181197     
           5  0.58017841113393886     
           6  0.39525440369296022     
           7 -0.12913698444165356     
           8 -0.45130224475619646     
           9 -0.34642459694031563     
          10  0.23742420646265616     
          11 -0.21998153949006793     
          12 -0.77417676085597575     
          13 -0.36560058916966603     
          14   2.0551511347736185E-002
          15  -7.2415976141464861E-002
          16 -0.25663037784783305     
          17   2.0393936680203530E-002
          18 -0.13534067853078785     
          19  0.10817317165292330     
          20  0.38046700287692947     
Sym=    17a
Ene=   0.10868396973887801     
Spin= Alpha
Occup=     0.00000000
           1 -0.28683615550801339     
           2 -0.10697567534090471     
           3   3.0237581281212624E-003
           4   6.3295871533660319E-003
           5   1.6723898947322270E-002
           6 -0.33653783136078769     
           7   4.1187023881495465E-003
           8   7.7445611378072505E-003
           9  0.91766337066346682     
          10 -0.38657954004943201     
          11 -0.10294091553566478     
          12 -0.37839595705422857     
          13 -0.37713297444766591     
          14 -0.77503544007004155     
          15  -7.7797202677588273E-002
          16 -0.29281506730055762     
          17 -0.11872912263513052     
          18  0.32985378951321503     
          19   4.2310139922769545E-002
          20  0.15779369420588404     
Sym=    18a
Ene=   0.19035041837059494     
Spin= Alpha
Occup=     0.00000000
           1  -2.7005954693093089E-002
           2   3.0183464751986782E-002
           3  0.26518382978668459     
           4  0.94296514982255975     
           5 -0.28172545099577101     
           6  0.68936883804074045     
           7   3.3766911084676152E-002
           8  0.13727296150597906     
           9 -0.16535911516234067     
          10   6.0145957948036489E-002
          11 -0.10579694131091157     
          12 -0.37340350807633205     
          13  0.38303543173600302     
          14 -0.59924418952646075     
          15   9.5352749146405402E-002
          16  0.32268778100437145     
          17   4.4042526035745426E-002
          18  -8.7296749879513552E-002
          19   3.3245137321028656E-002
          20  0.11628592251982239     
Sym=    19a
Ene=   0.42268954474341996     
Spin= Alpha
Occup=     0.00000000
           1 -0.86600015476074332     
           2 -0.86701636960105521     
           3  -3.1023654291325140E-003
           4  -3.3963031902441800E-002
           5  0.48056587607625345     
           6 -0.45756431853871854     
           7 -0.10559639353779053     
           8 -0.38829176077477445     
           9 -0.41177158050301133     
          10 -0.23713171422505100     
          11   1.2676564319914780E-002
          12   4.4042779521394536E-002
          13  0.45241323859240984     
          14 -0.28577502109997849     
          15  0.12519206959483459     
          16  0.43571941195616359     
          17  0.30761472500539500     
          18 -0.40361941861164941     
          19  -7.3322779643924399E-003
          20  -3.2545576577208399E-002
Sym=    20a
Ene=   0.83273514184221809     
Spin= Alpha
Occup=     0.00000000
           1  0.28338384582084136     
           2  0.30187974171494214     
           3  -1.0559196787646901E-002
           4  -2.9097259200368958E-002
           5 -0.32675854285833161     
           6   3.3166882174147172E-003
           7   7.7597054543204647E-002
           8  0.27532659067044785     
           9 -0.44860341611975418     
          10  -1.2384543575080202     
          11  -2.0814176967605156E-002
          12  -9.4318839059720480E-002
          13 -0.43878036361116396     
          14  -8.3805069580487668E-002
          15 -0.10137613675543934     
          16 -0.36257153204254083     
          17  0.82197324868508392     
          18 -0.88632795947486587     
          19  -4.7080883292584634E-003
          20  -2.8372818680590446E-002
