 Entering Gaussian System, Link 0=g16
 Initial command:
 /applis/site/cecic/gaussian16/B.01/nehalem/g16/l1.exe "/bettik/tinaccil/g16/12350852_l-C5H_2Pi/Gau-84412.inp" -scrdir="/bettik/tinaccil/g16/12350852_l-C5H_2Pi/"
 Entering Link 1 = /applis/site/cecic/gaussian16/B.01/nehalem/g16/l1.exe PID=     84414.
  
 Copyright (c) 1988-2017, Gaussian, Inc.  All Rights Reserved.
  
 This is part of the Gaussian(R) 16 program.  It is based on
 the Gaussian(R) 09 system (copyright 2009, Gaussian, Inc.),
 the Gaussian(R) 03 system (copyright 2003, Gaussian, Inc.),
 the Gaussian(R) 98 system (copyright 1998, Gaussian, Inc.),
 the Gaussian(R) 94 system (copyright 1995, Gaussian, Inc.),
 the Gaussian 92(TM) system (copyright 1992, Gaussian, Inc.),
 the Gaussian 90(TM) system (copyright 1990, Gaussian, Inc.),
 the Gaussian 88(TM) system (copyright 1988, Gaussian, Inc.),
 the Gaussian 86(TM) system (copyright 1986, Carnegie Mellon
 University), and the Gaussian 82(TM) system (copyright 1983,
 Carnegie Mellon University). Gaussian is a federally registered
 trademark of Gaussian, Inc.
  
 This software contains proprietary and confidential information,
 including trade secrets, belonging to Gaussian, Inc.
  
 This software is provided under written license and may be
 used, copied, transmitted, or stored only in accord with that
 written license.
  
 The following legend is applicable only to US Government
 contracts under FAR:
  
                    RESTRICTED RIGHTS LEGEND
  
 Use, reproduction and disclosure by the US Government is
 subject to restrictions as set forth in subparagraphs (a)
 and (c) of the Commercial Computer Software - Restricted
 Rights clause in FAR 52.227-19.
  
 Gaussian, Inc.
 340 Quinnipiac St., Bldg. 40, Wallingford CT 06492
  
  
 ---------------------------------------------------------------
 Warning -- This program may not be used in any manner that
 competes with the business of Gaussian, Inc. or will provide
 assistance to any competitor of Gaussian, Inc.  The licensee
 of this program is prohibited from giving any competitor of
 Gaussian, Inc. access to this program.  By using this program,
 the user acknowledges that Gaussian, Inc. is engaged in the
 business of creating and licensing software in the field of
 computational chemistry and represents and warrants to the
 licensee that it is not a competitor of Gaussian, Inc. and that
 it will not use this program in any manner prohibited above.
 ---------------------------------------------------------------
  

 Cite this work as:
 Gaussian 16, Revision B.01,
 M. J. Frisch, G. W. Trucks, H. B. Schlegel, G. E. Scuseria, 
 M. A. Robb, J. R. Cheeseman, G. Scalmani, V. Barone, 
 G. A. Petersson, H. Nakatsuji, X. Li, M. Caricato, A. V. Marenich, 
 J. Bloino, B. G. Janesko, R. Gomperts, B. Mennucci, H. P. Hratchian, 
 J. V. Ortiz, A. F. Izmaylov, J. L. Sonnenberg, D. Williams-Young, 
 F. Ding, F. Lipparini, F. Egidi, J. Goings, B. Peng, A. Petrone, 
 T. Henderson, D. Ranasinghe, V. G. Zakrzewski, J. Gao, N. Rega, 
 G. Zheng, W. Liang, M. Hada, M. Ehara, K. Toyota, R. Fukuda, 
 J. Hasegawa, M. Ishida, T. Nakajima, Y. Honda, O. Kitao, H. Nakai, 
 T. Vreven, K. Throssell, J. A. Montgomery, Jr., J. E. Peralta, 
 F. Ogliaro, M. J. Bearpark, J. J. Heyd, E. N. Brothers, K. N. Kudin, 
 V. N. Staroverov, T. A. Keith, R. Kobayashi, J. Normand, 
 K. Raghavachari, A. P. Rendell, J. C. Burant, S. S. Iyengar, 
 J. Tomasi, M. Cossi, J. M. Millam, M. Klene, C. Adamo, R. Cammi, 
 J. W. Ochterski, R. L. Martin, K. Morokuma, O. Farkas, 
 J. B. Foresman, and D. J. Fox, Gaussian, Inc., Wallingford CT, 2016.
 
 ******************************************
 Gaussian 16:  ES64L-G16RevB.01 20-Dec-2017
                28-Sep-2020 
 ******************************************
 %nosave
 %nproc=8
 Will use up to    8 processors via shared memory.
 %mem=2gb
 %chk=input
 --------------------------------------------------------
 #P M062X/cc-pvtz nosymm opt(noeigentest) optcyc=120 freq
 --------------------------------------------------------
 1/6=120,11=1,18=20,19=15,26=3,38=1/1,3;
 2/9=110,12=2,15=1,17=6,18=5,40=1/2;
 3/5=16,6=1,11=2,25=1,30=1,71=1,74=-55/1,2,3;
 4//1;
 5/5=2,38=5/2;
 6/7=2,8=2,9=2,10=2,28=1/1;
 7/30=1/1,2,3,16;
 1/6=120,11=1,18=20,19=15,26=3/3(2);
 2/9=110,15=1/2;
 99//99;
 2/9=110,15=1/2;
 3/5=16,6=1,11=2,25=1,30=1,71=1,74=-55/1,2,3;
 4/5=5,16=3,69=1/1;
 5/5=2,38=5/2;
 7/30=1/1,2,3,16;
 1/6=120,11=1,18=20,19=15,26=3/3(-5);
 2/9=110,15=1/2;
 6/7=2,8=2,9=2,10=2,19=2,28=1/1;
 99/9=1/99;
 Leave Link    1 at Mon Sep 28 17:06:13 2020, MaxMem=   268435456 cpu:               0.9 elap:               0.2
 (Enter /applis/site/cecic/gaussian16/B.01/nehalem/g16/l101.exe)
 -----
 Title
 -----
 Symbolic Z-matrix:
 Charge =  0 Multiplicity = 2
 C
 C                    1    B1
 C                    2    B2       1    A2
 C                    3    B3       2    A3       1    D3       0
 H                    4    B4       3    A4       2    D4       0
 C                    1    B5       2    A5       3    D5       0
       Variables:
  B1                    1.20531                  
  B2                    1.41182                  
  A2                  180.                       
  B3                    1.20531                  
  A3                  180.                       
  D3                  360.                       
  B4                    1.05834                  
  A4                  180.                       
  D4                  360.                       
  B5                    1.46287                  
  A5                  180.                       
  D5                  360.                       
 
 ITRead=  0  0  0  0  0  0
 MicOpt= -1 -1 -1 -1 -1 -1
 NAtoms=      6 NQM=        6 NQMF=       0 NMMI=      0 NMMIF=      0
                NMic=       0 NMicF=      0.
                    Isotopes and Nuclear Properties:
 (Nuclear quadrupole moments (NQMom) in fm**2, nuclear magnetic moments (NMagM)
  in nuclear magnetons)

  Atom         1           2           3           4           5           6
 IAtWgt=          12          12          12          12           1          12
 AtmWgt=  12.0000000  12.0000000  12.0000000  12.0000000   1.0078250  12.0000000
 NucSpn=           0           0           0           0           1           0
 AtZEff=  -0.0000000  -0.0000000  -0.0000000  -0.0000000  -0.0000000  -0.0000000
 NQMom=    0.0000000   0.0000000   0.0000000   0.0000000   0.0000000   0.0000000
 NMagM=    0.0000000   0.0000000   0.0000000   0.0000000   2.7928460   0.0000000
 AtZNuc=   6.0000000   6.0000000   6.0000000   6.0000000   1.0000000   6.0000000
 Leave Link  101 at Mon Sep 28 17:06:13 2020, MaxMem=   268435456 cpu:               2.4 elap:               0.4
 (Enter /applis/site/cecic/gaussian16/B.01/nehalem/g16/l103.exe)

 GradGradGradGradGradGradGradGradGradGradGradGradGradGradGradGradGradGrad
 Berny optimization.
 Initialization pass.
                           ----------------------------
                           !    Initial Parameters    !
                           ! (Angstroms and Degrees)  !
 --------------------------                            --------------------------
 ! Name  Definition              Value          Derivative Info.                !
 --------------------------------------------------------------------------------
 ! R1    R(1,2)                  1.2053         estimate D2E/DX2                !
 ! R2    R(1,6)                  1.4629         estimate D2E/DX2                !
 ! R3    R(2,3)                  1.4118         estimate D2E/DX2                !
 ! R4    R(3,4)                  1.2053         estimate D2E/DX2                !
 ! R5    R(4,5)                  1.0583         estimate D2E/DX2                !
 ! A1    L(2,1,6,-1,-1)        180.0            estimate D2E/DX2                !
 ! A2    L(1,2,3,-1,-1)        180.0            estimate D2E/DX2                !
 ! A3    L(2,3,4,-1,-1)        180.0            estimate D2E/DX2                !
 ! A4    L(3,4,5,-1,-1)        180.0            estimate D2E/DX2                !
 ! A5    L(2,1,6,-2,-2)        180.0            estimate D2E/DX2                !
 ! A6    L(1,2,3,-2,-2)        180.0            estimate D2E/DX2                !
 ! A7    L(2,3,4,-2,-2)        180.0            estimate D2E/DX2                !
 ! A8    L(3,4,5,-2,-2)        180.0            estimate D2E/DX2                !
 --------------------------------------------------------------------------------
 Trust Radius=3.00D-01 FncErr=1.00D-07 GrdErr=1.00D-06 EigMax=2.50D+02 EigMin=1.00D-04
 Number of steps in this run=    100 maximum allowed number of steps=    100.
 GradGradGradGradGradGradGradGradGradGradGradGradGradGradGradGradGradGrad

 Leave Link  103 at Mon Sep 28 17:06:13 2020, MaxMem=   268435456 cpu:               0.5 elap:               0.1
 (Enter /applis/site/cecic/gaussian16/B.01/nehalem/g16/l202.exe)
                          Input orientation:                          
 ---------------------------------------------------------------------
 Center     Atomic      Atomic             Coordinates (Angstroms)
 Number     Number       Type             X           Y           Z
 ---------------------------------------------------------------------
      1          6           0        0.000000    0.000000    0.000000
      2          6           0        0.000000    0.000000    1.205310
      3          6           0        0.000000    0.000000    2.617130
      4          6           0        0.000000    0.000000    3.822440
      5          1           0        0.000000    0.000000    4.880780
      6          6           0        0.000000    0.000000   -1.462870
 ---------------------------------------------------------------------
                    Distance matrix (angstroms):
                    1          2          3          4          5
     1  C    0.000000
     2  C    1.205310   0.000000
     3  C    2.617130   1.411820   0.000000
     4  C    3.822440   2.617130   1.205310   0.000000
     5  H    4.880780   3.675470   2.263650   1.058340   0.000000
     6  C    1.462870   2.668180   4.080000   5.285310   6.343650
                    6
     6  C    0.000000
 Symmetry turned off by external request.
 Stoichiometry    C5H(2)
 Framework group  C*V[C*(HCCCCC)]
 Deg. of freedom     5
 Full point group                 C*V     NOp   4
 Rotational constants (GHZ):           0.0000000           2.2756513           2.2756513
 Leave Link  202 at Mon Sep 28 17:06:13 2020, MaxMem=   268435456 cpu:               0.4 elap:               0.1
 (Enter /applis/site/cecic/gaussian16/B.01/nehalem/g16/l301.exe)
 Standard basis: CC-pVTZ (5D, 7F)
 Ernie: Thresh=  0.10000D-02 Tol=  0.10000D-05 Strict=F.
 Ernie:  15 primitive shells out of 138 were deleted.
   164 basis functions,   277 primitive gaussians,   190 cartesian basis functions
    16 alpha electrons       15 beta electrons
       nuclear repulsion energy        99.4999103374 Hartrees.
 IExCor= 4336 DFT=T Ex+Corr=M062X ExCW=0 ScaHFX=  0.540000
 ScaDFX=  1.000000  1.000000  1.000000  1.000000 ScalE2=  1.000000  1.000000
 IRadAn=      5 IRanWt=     -1 IRanGd=            0 ICorTp=0 IEmpDi=  4
 NAtoms=    6 NActive=    6 NUniq=    6 SFac= 1.00D+00 NAtFMM=   60 NAOKFM=F Big=F
 Integral buffers will be    131072 words long.
 Raffenetti 2 integral format.
 Two-electron integral symmetry is turned off.
 Leave Link  301 at Mon Sep 28 17:06:14 2020, MaxMem=   268435456 cpu:               0.6 elap:               0.2
 (Enter /applis/site/cecic/gaussian16/B.01/nehalem/g16/l302.exe)
 NPDir=0 NMtPBC=     1 NCelOv=     1 NCel=       1 NClECP=     1 NCelD=      1
         NCelK=      1 NCelE2=     1 NClLst=     1 CellRange=     0.0.
 One-electron integrals computed using PRISM.
 NBasis=   164 RedAO= T EigKep=  2.20D-05  NBF=   164
 NBsUse=   164 1.00D-06 EigRej= -1.00D+00 NBFU=   164
 Precomputing XC quadrature grid using
 IXCGrd= 4 IRadAn=           5 IRanWt=          -1 IRanGd=           0 AccXCQ= 0.00D+00.
 Generated NRdTot=       0 NPtTot=           0 NUsed=           0 NTot=          32
 NSgBfM=   190   190   190   190   190 MxSgAt=     6 MxSgA2=     6.
 Leave Link  302 at Mon Sep 28 17:06:14 2020, MaxMem=   268435456 cpu:               3.7 elap:               0.7
 (Enter /applis/site/cecic/gaussian16/B.01/nehalem/g16/l303.exe)
 DipDrv:  MaxL=1.
 Leave Link  303 at Mon Sep 28 17:06:15 2020, MaxMem=   268435456 cpu:               1.0 elap:               0.3
 (Enter /applis/site/cecic/gaussian16/B.01/nehalem/g16/l401.exe)
 ExpMin= 1.03D-01 ExpMax= 8.24D+03 ExpMxC= 2.81D+02 IAcc=3 IRadAn=         5 AccDes= 0.00D+00
 Harris functional with IExCor= 1009 and IRadAn=       5 diagonalized for initial guess.
 HarFok:  IExCor= 1009 AccDes= 0.00D+00 IRadAn=         5 IDoV= 1 UseB2=F ITyADJ=14
 ICtDFT=  3500011 ScaDFX=  1.000000  1.000000  1.000000  1.000000
 FoFCou: FMM=F IPFlag=           0 FMFlag=      100000 FMFlg1=           0
         NFxFlg=           0 DoJE=T BraDBF=F KetDBF=T FulRan=T
         wScrn=  0.000000 ICntrl=       500 IOpCl=  0 I1Cent=   200000004 NGrid=           0
         NMat0=    1 NMatS0=      1 NMatT0=    0 NMatD0=    1 NMtDS0=    0 NMtDT0=    0
 Symmetry not used in FoFCou.
 Harris En= -190.719090924535    
 JPrj=0 DoOrth=F DoCkMO=F.
 Initial guess <Sx>= 0.0000 <Sy>= 0.0000 <Sz>= 0.5000 <S**2>= 0.7500 S= 0.5000
 Leave Link  401 at Mon Sep 28 17:06:16 2020, MaxMem=   268435456 cpu:               4.8 elap:               0.7
 (Enter /applis/site/cecic/gaussian16/B.01/nehalem/g16/l502.exe)
 Keep R1 and R2 ints in memory in canonical form, NReq=191223282.
 FoFCou: FMM=F IPFlag=           0 FMFlag=           0 FMFlg1=           0
         NFxFlg=           0 DoJE=F BraDBF=F KetDBF=F FulRan=T
         wScrn=  0.000000 ICntrl=       600 IOpCl=  0 I1Cent=           0 NGrid=           0
         NMat0=    1 NMatS0=  13530 NMatT0=    0 NMatD0=    1 NMtDS0=    0 NMtDT0=    0
 Symmetry not used in FoFCou.
 Two-electron integral symmetry not used.
 UHF open shell SCF:
 Using DIIS extrapolation, IDIIS=  1040.
 NGot=   268435456 LenX=    85286028 LenY=    85249487
 Requested convergence on RMS density matrix=1.00D-08 within 128 cycles.
 Requested convergence on MAX density matrix=1.00D-06.
 Requested convergence on             energy=1.00D-06.
 No special actions if energy rises.
 Integral accuracy reduced to 1.0D-05 until final iterations.

 Cycle   1  Pass 0  IDiag  1:
 E= -190.674814543783    
 DIIS: error= 3.55D-02 at cycle   1 NSaved=   1.
 NSaved= 1 IEnMin= 1 EnMin= -190.674814543783     IErMin= 1 ErrMin= 3.55D-02
 ErrMax= 3.55D-02  0.00D+00 EMaxC= 1.00D-01 BMatC= 6.02D-01 BMatP= 6.02D-01
 IDIUse=3 WtCom= 6.45D-01 WtEn= 3.55D-01
 Coeff-Com:  0.100D+01
 Coeff-En:   0.100D+01
 Coeff:      0.100D+01
 Gap=     0.145 Goal=   None    Shift=    0.000
 Gap=     0.357 Goal=   None    Shift=    0.000
 GapD=    0.145 DampG=1.000 DampE=0.500 DampFc=0.5000 IDamp=-1.
 Damping current iteration by 5.00D-01
 RMSDP=4.41D-03 MaxDP=2.36D-01              OVMax= 2.77D-01

 Cycle   2  Pass 0  IDiag  1:
 E= -190.719543455209     Delta-E=       -0.044728911426 Rises=F Damp=T
 DIIS: error= 1.03D-02 at cycle   2 NSaved=   2.
 NSaved= 2 IEnMin= 2 EnMin= -190.719543455209     IErMin= 2 ErrMin= 1.03D-02
 ErrMax= 1.03D-02  0.00D+00 EMaxC= 1.00D-01 BMatC= 7.47D-02 BMatP= 6.02D-01
 IDIUse=3 WtCom= 8.97D-01 WtEn= 1.03D-01
 Coeff-Com:  0.178D-01 0.982D+00
 Coeff-En:   0.219D+00 0.781D+00
 Coeff:      0.386D-01 0.961D+00
 Gap=     0.201 Goal=   None    Shift=    0.000
 Gap=     0.280 Goal=   None    Shift=    0.000
 RMSDP=1.04D-02 MaxDP=6.82D-01 DE=-4.47D-02 OVMax= 2.93D-01

 Cycle   3  Pass 0  IDiag  1:
 E= -190.778581378213     Delta-E=       -0.059037923003 Rises=F Damp=F
 DIIS: error= 1.61D-02 at cycle   3 NSaved=   3.
 NSaved= 3 IEnMin= 3 EnMin= -190.778581378213     IErMin= 2 ErrMin= 1.03D-02
 ErrMax= 1.61D-02  0.00D+00 EMaxC= 1.00D-01 BMatC= 8.76D-02 BMatP= 7.47D-02
 IDIUse=2 WtCom= 0.00D+00 WtEn= 1.00D+00
 Coeff-En:   0.000D+00 0.000D+00 0.100D+01
 Coeff:      0.000D+00 0.000D+00 0.100D+01
 Gap=     0.177 Goal=   None    Shift=    0.000
 Gap=     0.354 Goal=   None    Shift=    0.000
 RMSDP=9.23D-03 MaxDP=6.09D-01 DE=-5.90D-02 OVMax= 1.84D-01

 Cycle   4  Pass 0  IDiag  1:
 E= -190.710261301550     Delta-E=        0.068320076662 Rises=F Damp=F
 DIIS: error= 3.12D-02 at cycle   4 NSaved=   4.
 NSaved= 4 IEnMin= 3 EnMin= -190.778581378213     IErMin= 2 ErrMin= 1.03D-02
 ErrMax= 3.12D-02  0.00D+00 EMaxC= 1.00D-01 BMatC= 3.25D-01 BMatP= 7.47D-02
 IDIUse=2 WtCom= 0.00D+00 WtEn= 1.00D+00
 Coeff-En:   0.000D+00 0.000D+00 0.734D+00 0.266D+00
 Coeff:      0.000D+00 0.000D+00 0.734D+00 0.266D+00
 Gap=     0.153 Goal=   None    Shift=    0.000
 Gap=     0.246 Goal=   None    Shift=    0.000
 RMSDP=2.93D-03 MaxDP=1.97D-01 DE= 6.83D-02 OVMax= 1.11D-01

 Cycle   5  Pass 0  IDiag  1:
 E= -190.803883605847     Delta-E=       -0.093622304297 Rises=F Damp=F
 DIIS: error= 6.53D-03 at cycle   5 NSaved=   5.
 NSaved= 5 IEnMin= 5 EnMin= -190.803883605847     IErMin= 5 ErrMin= 6.53D-03
 ErrMax= 6.53D-03  0.00D+00 EMaxC= 1.00D-01 BMatC= 1.35D-02 BMatP= 7.47D-02
 IDIUse=3 WtCom= 9.35D-01 WtEn= 6.53D-02
 Coeff-Com: -0.574D-02 0.560D-02 0.174D+00-0.102D+00 0.927D+00
 Coeff-En:   0.000D+00 0.000D+00 0.109D+00 0.000D+00 0.891D+00
 Coeff:     -0.536D-02 0.523D-02 0.170D+00-0.949D-01 0.925D+00
 Gap=     0.153 Goal=   None    Shift=    0.000
 Gap=     0.258 Goal=   None    Shift=    0.000
 RMSDP=1.44D-03 MaxDP=1.08D-01 DE=-9.36D-02 OVMax= 3.91D-02

 Cycle   6  Pass 0  IDiag  1:
 E= -190.808211714602     Delta-E=       -0.004328108755 Rises=F Damp=F
 DIIS: error= 1.45D-03 at cycle   6 NSaved=   6.
 NSaved= 6 IEnMin= 6 EnMin= -190.808211714602     IErMin= 6 ErrMin= 1.45D-03
 ErrMax= 1.45D-03  0.00D+00 EMaxC= 1.00D-01 BMatC= 8.80D-04 BMatP= 1.35D-02
 IDIUse=3 WtCom= 9.86D-01 WtEn= 1.45D-02
 Coeff-Com: -0.800D-02 0.114D-02 0.114D-01-0.112D+00 0.594D+00 0.514D+00
 Coeff-En:   0.000D+00 0.000D+00 0.000D+00 0.000D+00 0.000D+00 0.100D+01
 Coeff:     -0.788D-02 0.113D-02 0.112D-01-0.111D+00 0.585D+00 0.521D+00
 Gap=     0.154 Goal=   None    Shift=    0.000
 Gap=     0.258 Goal=   None    Shift=    0.000
 RMSDP=1.55D-04 MaxDP=8.77D-03 DE=-4.33D-03 OVMax= 1.09D-02

 Cycle   7  Pass 0  IDiag  1:
 E= -190.808521104297     Delta-E=       -0.000309389695 Rises=F Damp=F
 DIIS: error= 6.89D-04 at cycle   7 NSaved=   7.
 NSaved= 7 IEnMin= 7 EnMin= -190.808521104297     IErMin= 7 ErrMin= 6.89D-04
 ErrMax= 6.89D-04  0.00D+00 EMaxC= 1.00D-01 BMatC= 4.55D-05 BMatP= 8.80D-04
 IDIUse=3 WtCom= 9.93D-01 WtEn= 6.89D-03
 Coeff-Com: -0.991D-03 0.348D-02-0.572D-01 0.198D-01-0.255D+00-0.378D-01
 Coeff-Com:  0.133D+01
 Coeff-En:   0.000D+00 0.000D+00 0.000D+00 0.000D+00 0.000D+00 0.000D+00
 Coeff-En:   0.100D+01
 Coeff:     -0.984D-03 0.346D-02-0.568D-01 0.196D-01-0.253D+00-0.375D-01
 Coeff:      0.133D+01
 Gap=     0.156 Goal=   None    Shift=    0.000
 Gap=     0.259 Goal=   None    Shift=    0.000
 RMSDP=3.42D-04 MaxDP=2.80D-02 DE=-3.09D-04 OVMax= 1.07D-02

 Cycle   8  Pass 0  IDiag  1:
 E= -190.808595976699     Delta-E=       -0.000074872402 Rises=F Damp=F
 DIIS: error= 2.18D-04 at cycle   8 NSaved=   8.
 NSaved= 8 IEnMin= 8 EnMin= -190.808595976699     IErMin= 8 ErrMin= 2.18D-04
 ErrMax= 2.18D-04  0.00D+00 EMaxC= 1.00D-01 BMatC= 7.68D-06 BMatP= 4.55D-05
 IDIUse=3 WtCom= 9.98D-01 WtEn= 2.18D-03
 Coeff-Com:  0.149D-02-0.397D-02-0.769D-02 0.178D-01-0.861D-01-0.530D-01
 Coeff-Com:  0.129D+00 0.100D+01
 Coeff-En:   0.000D+00 0.000D+00 0.000D+00 0.000D+00 0.000D+00 0.000D+00
 Coeff-En:   0.000D+00 0.100D+01
 Coeff:      0.149D-02-0.396D-02-0.767D-02 0.177D-01-0.859D-01-0.529D-01
 Coeff:      0.129D+00 0.100D+01
 Gap=     0.156 Goal=   None    Shift=    0.000
 Gap=     0.259 Goal=   None    Shift=    0.000
 RMSDP=1.12D-04 MaxDP=9.04D-03 DE=-7.49D-05 OVMax= 3.51D-03

 Cycle   9  Pass 0  IDiag  1:
 E= -190.808601545302     Delta-E=       -0.000005568603 Rises=F Damp=F
 DIIS: error= 6.41D-05 at cycle   9 NSaved=   9.
 NSaved= 9 IEnMin= 9 EnMin= -190.808601545302     IErMin= 9 ErrMin= 6.41D-05
 ErrMax= 6.41D-05  0.00D+00 EMaxC= 1.00D-01 BMatC= 1.68D-06 BMatP= 7.68D-06
 IDIUse=1 WtCom= 1.00D+00 WtEn= 0.00D+00
 Coeff-Com:  0.436D-03-0.976D-03 0.484D-02 0.332D-02 0.323D-02-0.148D-01
 Coeff-Com: -0.122D+00 0.436D+00 0.689D+00
 Coeff:      0.436D-03-0.976D-03 0.484D-02 0.332D-02 0.323D-02-0.148D-01
 Coeff:     -0.122D+00 0.436D+00 0.689D+00
 Gap=     0.156 Goal=   None    Shift=    0.000
 Gap=     0.259 Goal=   None    Shift=    0.000
 RMSDP=2.70D-05 MaxDP=2.07D-03 DE=-5.57D-06 OVMax= 5.54D-04

 Cycle  10  Pass 0  IDiag  1:
 E= -190.808602298581     Delta-E=       -0.000000753279 Rises=F Damp=F
 DIIS: error= 2.57D-05 at cycle  10 NSaved=  10.
 NSaved=10 IEnMin=10 EnMin= -190.808602298581     IErMin=10 ErrMin= 2.57D-05
 ErrMax= 2.57D-05  0.00D+00 EMaxC= 1.00D-01 BMatC= 1.97D-07 BMatP= 1.68D-06
 IDIUse=1 WtCom= 1.00D+00 WtEn= 0.00D+00
 Coeff-Com: -0.906D-04 0.425D-03 0.271D-02-0.234D-02 0.147D-01 0.517D-02
 Coeff-Com: -0.267D-01-0.119D+00 0.102D+00 0.102D+01
 Coeff:     -0.906D-04 0.425D-03 0.271D-02-0.234D-02 0.147D-01 0.517D-02
 Coeff:     -0.267D-01-0.119D+00 0.102D+00 0.102D+01
 Gap=     0.156 Goal=   None    Shift=    0.000
 Gap=     0.259 Goal=   None    Shift=    0.000
 RMSDP=1.12D-05 MaxDP=6.77D-04 DE=-7.53D-07 OVMax= 2.84D-04

 Cycle  11  Pass 0  IDiag  1:
 E= -190.808602496918     Delta-E=       -0.000000198337 Rises=F Damp=F
 DIIS: error= 1.75D-05 at cycle  11 NSaved=  11.
 NSaved=11 IEnMin=11 EnMin= -190.808602496918     IErMin=11 ErrMin= 1.75D-05
 ErrMax= 1.75D-05  0.00D+00 EMaxC= 1.00D-01 BMatC= 3.55D-08 BMatP= 1.97D-07
 IDIUse=1 WtCom= 1.00D+00 WtEn= 0.00D+00
 Coeff-Com:  0.423D-04-0.204D-03-0.475D-03-0.118D-03-0.118D-02 0.186D-02
 Coeff-Com:  0.186D-01-0.860D-01-0.111D+00 0.140D-01 0.116D+01
 Coeff:      0.423D-04-0.204D-03-0.475D-03-0.118D-03-0.118D-02 0.186D-02
 Coeff:      0.186D-01-0.860D-01-0.111D+00 0.140D-01 0.116D+01
 Gap=     0.156 Goal=   None    Shift=    0.000
 Gap=     0.259 Goal=   None    Shift=    0.000
 RMSDP=9.90D-06 MaxDP=7.49D-04 DE=-1.98D-07 OVMax= 2.96D-04

 Initial convergence to 1.0D-05 achieved.  Increase integral accuracy.
 Cycle  12  Pass 1  IDiag  1:
 E= -190.808608736573     Delta-E=       -0.000006239655 Rises=F Damp=F
 DIIS: error= 2.60D-05 at cycle   1 NSaved=   1.
 NSaved= 1 IEnMin= 1 EnMin= -190.808608736573     IErMin= 1 ErrMin= 2.60D-05
 ErrMax= 2.60D-05  0.00D+00 EMaxC= 1.00D-01 BMatC= 4.05D-07 BMatP= 4.05D-07
 IDIUse=1 WtCom= 1.00D+00 WtEn= 0.00D+00
 Coeff-Com:  0.100D+01
 Coeff:      0.100D+01
 Gap=     0.156 Goal=   None    Shift=    0.000
 Gap=     0.259 Goal=   None    Shift=    0.000
 RMSDP=9.90D-06 MaxDP=7.49D-04 DE=-6.24D-06 OVMax= 8.67D-05

 Cycle  13  Pass 1  IDiag  1:
 E= -190.808608798246     Delta-E=       -0.000000061673 Rises=F Damp=F
 DIIS: error= 7.82D-06 at cycle   2 NSaved=   2.
 NSaved= 2 IEnMin= 2 EnMin= -190.808608798246     IErMin= 2 ErrMin= 7.82D-06
 ErrMax= 7.82D-06  0.00D+00 EMaxC= 1.00D-01 BMatC= 7.79D-09 BMatP= 4.05D-07
 IDIUse=1 WtCom= 1.00D+00 WtEn= 0.00D+00
 Coeff-Com: -0.490D-01 0.105D+01
 Coeff:     -0.490D-01 0.105D+01
 Gap=     0.156 Goal=   None    Shift=    0.000
 Gap=     0.259 Goal=   None    Shift=    0.000
 RMSDP=1.78D-06 MaxDP=1.27D-04 DE=-6.17D-08 OVMax= 8.09D-05

 Cycle  14  Pass 1  IDiag  1:
 E= -190.808608801885     Delta-E=       -0.000000003639 Rises=F Damp=F
 DIIS: error= 7.16D-06 at cycle   3 NSaved=   3.
 NSaved= 3 IEnMin= 3 EnMin= -190.808608801885     IErMin= 3 ErrMin= 7.16D-06
 ErrMax= 7.16D-06  0.00D+00 EMaxC= 1.00D-01 BMatC= 9.48D-09 BMatP= 7.79D-09
 IDIUse=1 WtCom= 1.00D+00 WtEn= 0.00D+00
 Coeff-Com: -0.359D-01 0.592D+00 0.444D+00
 Coeff:     -0.359D-01 0.592D+00 0.444D+00
 Gap=     0.156 Goal=   None    Shift=    0.000
 Gap=     0.259 Goal=   None    Shift=    0.000
 RMSDP=9.69D-07 MaxDP=5.81D-05 DE=-3.64D-09 OVMax= 4.06D-05

 Cycle  15  Pass 1  IDiag  1:
 E= -190.808608805340     Delta-E=       -0.000000003455 Rises=F Damp=F
 DIIS: error= 3.71D-06 at cycle   4 NSaved=   4.
 NSaved= 4 IEnMin= 4 EnMin= -190.808608805340     IErMin= 4 ErrMin= 3.71D-06
 ErrMax= 3.71D-06  0.00D+00 EMaxC= 1.00D-01 BMatC= 1.39D-09 BMatP= 7.79D-09
 IDIUse=1 WtCom= 1.00D+00 WtEn= 0.00D+00
 Coeff-Com:  0.271D-02-0.163D+00 0.127D+00 0.103D+01
 Coeff:      0.271D-02-0.163D+00 0.127D+00 0.103D+01
 Gap=     0.156 Goal=   None    Shift=    0.000
 Gap=     0.259 Goal=   None    Shift=    0.000
 RMSDP=6.30D-07 MaxDP=3.92D-05 DE=-3.46D-09 OVMax= 3.73D-05

 Cycle  16  Pass 1  IDiag  1:
 E= -190.808608807559     Delta-E=       -0.000000002219 Rises=F Damp=F
 DIIS: error= 2.68D-06 at cycle   5 NSaved=   5.
 NSaved= 5 IEnMin= 5 EnMin= -190.808608807559     IErMin= 5 ErrMin= 2.68D-06
 ErrMax= 2.68D-06  0.00D+00 EMaxC= 1.00D-01 BMatC= 6.45D-10 BMatP= 1.39D-09
 IDIUse=1 WtCom= 1.00D+00 WtEn= 0.00D+00
 Coeff-Com:  0.108D-01-0.210D+00-0.554D-01 0.304D+00 0.951D+00
 Coeff:      0.108D-01-0.210D+00-0.554D-01 0.304D+00 0.951D+00
 Gap=     0.156 Goal=   None    Shift=    0.000
 Gap=     0.259 Goal=   None    Shift=    0.000
 RMSDP=7.53D-07 MaxDP=5.60D-05 DE=-2.22D-09 OVMax= 3.14D-05

 Cycle  17  Pass 1  IDiag  1:
 E= -190.808608808800     Delta-E=       -0.000000001241 Rises=F Damp=F
 DIIS: error= 2.04D-06 at cycle   6 NSaved=   6.
 NSaved= 6 IEnMin= 6 EnMin= -190.808608808800     IErMin= 6 ErrMin= 2.04D-06
 ErrMax= 2.04D-06  0.00D+00 EMaxC= 1.00D-01 BMatC= 4.64D-10 BMatP= 6.45D-10
 IDIUse=1 WtCom= 1.00D+00 WtEn= 0.00D+00
 Coeff-Com:  0.822D-02-0.769D-01-0.142D+00-0.509D+00 0.773D+00 0.946D+00
 Coeff:      0.822D-02-0.769D-01-0.142D+00-0.509D+00 0.773D+00 0.946D+00
 Gap=     0.156 Goal=   None    Shift=    0.000
 Gap=     0.259 Goal=   None    Shift=    0.000
 RMSDP=9.53D-07 MaxDP=6.82D-05 DE=-1.24D-09 OVMax= 4.51D-05

 Cycle  18  Pass 1  IDiag  1:
 E= -190.808608809800     Delta-E=       -0.000000001000 Rises=F Damp=F
 DIIS: error= 8.39D-07 at cycle   7 NSaved=   7.
 NSaved= 7 IEnMin= 7 EnMin= -190.808608809800     IErMin= 7 ErrMin= 8.39D-07
 ErrMax= 8.39D-07  0.00D+00 EMaxC= 1.00D-01 BMatC= 8.07D-11 BMatP= 4.64D-10
 IDIUse=1 WtCom= 1.00D+00 WtEn= 0.00D+00
 Coeff-Com: -0.250D-02 0.692D-01-0.244D-01-0.233D+00-0.181D+00 0.275D+00
 Coeff-Com:  0.110D+01
 Coeff:     -0.250D-02 0.692D-01-0.244D-01-0.233D+00-0.181D+00 0.275D+00
 Coeff:      0.110D+01
 Gap=     0.156 Goal=   None    Shift=    0.000
 Gap=     0.259 Goal=   None    Shift=    0.000
 RMSDP=5.61D-07 MaxDP=3.73D-05 DE=-1.00D-09 OVMax= 2.48D-05

 Cycle  19  Pass 1  IDiag  1:
 E= -190.808608810041     Delta-E=       -0.000000000242 Rises=F Damp=F
 DIIS: error= 3.14D-07 at cycle   8 NSaved=   8.
 NSaved= 8 IEnMin= 8 EnMin= -190.808608810041     IErMin= 8 ErrMin= 3.14D-07
 ErrMax= 3.14D-07  0.00D+00 EMaxC= 1.00D-01 BMatC= 1.55D-11 BMatP= 8.07D-11
 IDIUse=1 WtCom= 1.00D+00 WtEn= 0.00D+00
 Coeff-Com: -0.183D-02 0.269D-01 0.132D-01 0.528D-01-0.174D+00-0.107D+00
 Coeff-Com:  0.177D+00 0.101D+01
 Coeff:     -0.183D-02 0.269D-01 0.132D-01 0.528D-01-0.174D+00-0.107D+00
 Coeff:      0.177D+00 0.101D+01
 Gap=     0.156 Goal=   None    Shift=    0.000
 Gap=     0.259 Goal=   None    Shift=    0.000
 RMSDP=2.40D-07 MaxDP=1.75D-05 DE=-2.42D-10 OVMax= 8.61D-06

 Cycle  20  Pass 1  IDiag  1:
 E= -190.808608810087     Delta-E=       -0.000000000045 Rises=F Damp=F
 DIIS: error= 1.91D-07 at cycle   9 NSaved=   9.
 NSaved= 9 IEnMin= 9 EnMin= -190.808608810087     IErMin= 9 ErrMin= 1.91D-07
 ErrMax= 1.91D-07  0.00D+00 EMaxC= 1.00D-01 BMatC= 7.61D-12 BMatP= 1.55D-11
 IDIUse=1 WtCom= 1.00D+00 WtEn= 0.00D+00
 Coeff-Com:  0.592D-04-0.122D-01 0.146D-01 0.112D+00-0.258D-01-0.153D+00
 Coeff-Com: -0.290D+00 0.514D+00 0.840D+00
 Coeff:      0.592D-04-0.122D-01 0.146D-01 0.112D+00-0.258D-01-0.153D+00
 Coeff:     -0.290D+00 0.514D+00 0.840D+00
 Gap=     0.156 Goal=   None    Shift=    0.000
 Gap=     0.259 Goal=   None    Shift=    0.000
 RMSDP=9.59D-08 MaxDP=6.64D-06 DE=-4.52D-11 OVMax= 6.26D-06

 Cycle  21  Pass 1  IDiag  1:
 E= -190.808608810107     Delta-E=       -0.000000000021 Rises=F Damp=F
 DIIS: error= 1.94D-07 at cycle  10 NSaved=  10.
 NSaved=10 IEnMin=10 EnMin= -190.808608810107     IErMin= 9 ErrMin= 1.91D-07
 ErrMax= 1.94D-07  0.00D+00 EMaxC= 1.00D-01 BMatC= 2.66D-12 BMatP= 7.61D-12
 IDIUse=1 WtCom= 1.00D+00 WtEn= 0.00D+00
 Coeff-Com:  0.386D-03-0.586D-02 0.106D-02-0.210D-01 0.451D-01 0.198D-01
 Coeff-Com: -0.332D-01-0.255D+00 0.183D-01 0.123D+01
 Coeff:      0.386D-03-0.586D-02 0.106D-02-0.210D-01 0.451D-01 0.198D-01
 Coeff:     -0.332D-01-0.255D+00 0.183D-01 0.123D+01
 Gap=     0.156 Goal=   None    Shift=    0.000
 Gap=     0.259 Goal=   None    Shift=    0.000
 RMSDP=4.03D-08 MaxDP=2.35D-06 DE=-2.07D-11 OVMax= 7.48D-06

 Cycle  22  Pass 1  IDiag  1:
 E= -190.808608810121     Delta-E=       -0.000000000013 Rises=F Damp=F
 DIIS: error= 1.95D-07 at cycle  11 NSaved=  11.
 NSaved=11 IEnMin=11 EnMin= -190.808608810121     IErMin= 9 ErrMin= 1.91D-07
 ErrMax= 1.95D-07  0.00D+00 EMaxC= 1.00D-01 BMatC= 1.93D-12 BMatP= 2.66D-12
 IDIUse=1 WtCom= 1.00D+00 WtEn= 0.00D+00
 Coeff-Com:  0.394D-04 0.109D-02-0.998D-03-0.238D-01 0.129D-01 0.285D-01
 Coeff-Com:  0.374D-01-0.135D+00-0.108D+00 0.239D+00 0.949D+00
 Coeff:      0.394D-04 0.109D-02-0.998D-03-0.238D-01 0.129D-01 0.285D-01
 Coeff:      0.374D-01-0.135D+00-0.108D+00 0.239D+00 0.949D+00
 Gap=     0.156 Goal=   None    Shift=    0.000
 Gap=     0.259 Goal=   None    Shift=    0.000
 RMSDP=1.95D-08 MaxDP=8.66D-07 DE=-1.35D-11 OVMax= 5.66D-06

 Cycle  23  Pass 1  IDiag  1:
 E= -190.808608810130     Delta-E=       -0.000000000010 Rises=F Damp=F
 DIIS: error= 1.95D-07 at cycle  12 NSaved=  12.
 NSaved=12 IEnMin=12 EnMin= -190.808608810130     IErMin= 9 ErrMin= 1.91D-07
 ErrMax= 1.95D-07  0.00D+00 EMaxC= 1.00D-01 BMatC= 1.83D-12 BMatP= 1.93D-12
 IDIUse=1 WtCom= 1.00D+00 WtEn= 0.00D+00
 Coeff-Com: -0.102D-03 0.187D-02-0.272D-03 0.216D-02-0.105D-01-0.663D-03
 Coeff-Com:  0.138D-01 0.427D-01-0.160D-01-0.298D+00 0.251D+00 0.101D+01
 Coeff:     -0.102D-03 0.187D-02-0.272D-03 0.216D-02-0.105D-01-0.663D-03
 Coeff:      0.138D-01 0.427D-01-0.160D-01-0.298D+00 0.251D+00 0.101D+01
 Gap=     0.156 Goal=   None    Shift=    0.000
 Gap=     0.259 Goal=   None    Shift=    0.000
 RMSDP=2.03D-08 MaxDP=9.62D-07 DE=-9.61D-12 OVMax= 6.36D-06

 Cycle  24  Pass 1  IDiag  1:
 E= -190.808608810142     Delta-E=       -0.000000000012 Rises=F Damp=F
 DIIS: error= 1.94D-07 at cycle  13 NSaved=  13.
 NSaved=13 IEnMin=13 EnMin= -190.808608810142     IErMin= 9 ErrMin= 1.91D-07
 ErrMax= 1.94D-07  0.00D+00 EMaxC= 1.00D-01 BMatC= 1.80D-12 BMatP= 1.83D-12
 IDIUse=1 WtCom= 1.00D+00 WtEn= 0.00D+00
 Coeff-Com: -0.147D-04-0.372D-03 0.707D-03 0.501D-02-0.995D-03-0.697D-02
 Coeff-Com: -0.134D-01 0.178D-01 0.323D-01 0.264D-01-0.228D+00-0.184D+00
 Coeff-Com:  0.135D+01
 Coeff:     -0.147D-04-0.372D-03 0.707D-03 0.501D-02-0.995D-03-0.697D-02
 Coeff:     -0.134D-01 0.178D-01 0.323D-01 0.264D-01-0.228D+00-0.184D+00
 Coeff:      0.135D+01
 Gap=     0.156 Goal=   None    Shift=    0.000
 Gap=     0.259 Goal=   None    Shift=    0.000
 RMSDP=2.30D-08 MaxDP=1.11D-06 DE=-1.17D-11 OVMax= 7.40D-06

 Cycle  25  Pass 1  IDiag  1:
 E= -190.808608810155     Delta-E=       -0.000000000013 Rises=F Damp=F
 DIIS: error= 1.94D-07 at cycle  14 NSaved=  14.
 NSaved=14 IEnMin=14 EnMin= -190.808608810155     IErMin= 9 ErrMin= 1.91D-07
 ErrMax= 1.94D-07  0.00D+00 EMaxC= 1.00D-01 BMatC= 1.80D-12 BMatP= 1.80D-12
 IDIUse=1 WtCom= 1.00D+00 WtEn= 0.00D+00
 Coeff-Com:  0.190D-05-0.236D-03 0.496D-03 0.706D-03 0.148D-02-0.206D-02
 Coeff-Com: -0.531D-02-0.591D-02 0.598D-02 0.712D-01-0.345D-01-0.215D+00
 Coeff-Com: -0.394D+00 0.158D+01
 Coeff:      0.190D-05-0.236D-03 0.496D-03 0.706D-03 0.148D-02-0.206D-02
 Coeff:     -0.531D-02-0.591D-02 0.598D-02 0.712D-01-0.345D-01-0.215D+00
 Coeff:     -0.394D+00 0.158D+01
 Gap=     0.156 Goal=   None    Shift=    0.000
 Gap=     0.259 Goal=   None    Shift=    0.000
 RMSDP=3.00D-08 MaxDP=1.45D-06 DE=-1.28D-11 OVMax= 9.67D-06

 Cycle  26  Pass 1  IDiag  1:
 E= -190.808608810172     Delta-E=       -0.000000000017 Rises=F Damp=F
 DIIS: error= 1.94D-07 at cycle  15 NSaved=  15.
 NSaved=15 IEnMin=15 EnMin= -190.808608810172     IErMin= 9 ErrMin= 1.91D-07
 ErrMax= 1.94D-07  0.00D+00 EMaxC= 1.00D-01 BMatC= 1.80D-12 BMatP= 1.80D-12
 IDIUse=1 WtCom= 1.00D+00 WtEn= 0.00D+00
 Coeff-Com: -0.849D-05-0.794D-04 0.431D-03 0.115D-02 0.367D-03-0.244D-02
 Coeff-Com: -0.412D-02-0.749D-03 0.630D-02 0.370D-01-0.203D-01-0.109D+00
 Coeff-Com: -0.215D+00 0.557D+00 0.749D+00
 Coeff:     -0.849D-05-0.794D-04 0.431D-03 0.115D-02 0.367D-03-0.244D-02
 Coeff:     -0.412D-02-0.749D-03 0.630D-02 0.370D-01-0.203D-01-0.109D+00
 Coeff:     -0.215D+00 0.557D+00 0.749D+00
 Gap=     0.156 Goal=   None    Shift=    0.000
 Gap=     0.259 Goal=   None    Shift=    0.000
 RMSDP=1.51D-08 MaxDP=7.33D-07 DE=-1.70D-11 OVMax= 4.89D-06

 Cycle  27  Pass 1  IDiag  1:
 E= -190.808608810180     Delta-E=       -0.000000000008 Rises=F Damp=F
 DIIS: error= 1.94D-07 at cycle  16 NSaved=  16.
 NSaved=16 IEnMin=16 EnMin= -190.808608810180     IErMin= 9 ErrMin= 1.91D-07
 ErrMax= 1.94D-07  0.00D+00 EMaxC= 1.00D-01 BMatC= 1.80D-12 BMatP= 1.80D-12
 IDIUse=1 WtCom= 1.00D+00 WtEn= 0.00D+00
 Large coefficients: NSaved= 16 BigCof=    0.00 CofMax=   10.00 Det=-1.89D-18
 Inversion failed.  Reducing to 15 matrices.
 Coeff-Com: -0.233D-03 0.521D-03 0.127D-02 0.940D-03-0.261D-02-0.601D-02
 Coeff-Com: -0.205D-02 0.949D-02 0.568D-01-0.564D-01-0.176D+00-0.136D+00
 Coeff-Com:  0.103D+01-0.198D+01 0.226D+01
 Coeff:     -0.233D-03 0.521D-03 0.127D-02 0.940D-03-0.261D-02-0.601D-02
 Coeff:     -0.205D-02 0.949D-02 0.568D-01-0.564D-01-0.176D+00-0.136D+00
 Coeff:      0.103D+01-0.198D+01 0.226D+01
 Gap=     0.156 Goal=   None    Shift=    0.000
 Gap=     0.259 Goal=   None    Shift=    0.000
 RMSDP=2.19D-08 MaxDP=1.06D-06 DE=-8.01D-12 OVMax= 7.08D-06

 Cycle  28  Pass 1  IDiag  1:
 E= -190.808608810193     Delta-E=       -0.000000000014 Rises=F Damp=F
 DIIS: error= 1.94D-07 at cycle  17 NSaved=  16.
 NSaved=16 IEnMin=16 EnMin= -190.808608810193     IErMin= 8 ErrMin= 1.91D-07
 ErrMax= 1.94D-07  0.00D+00 EMaxC= 1.00D-01 BMatC= 1.80D-12 BMatP= 1.80D-12
 IDIUse=1 WtCom= 1.00D+00 WtEn= 0.00D+00
 Large coefficients: NSaved= 16 BigCof=    0.00 CofMax=   10.00 Det=-3.42D-19
 Inversion failed.  Reducing to 15 matrices.
 Large coefficients: NSaved= 15 BigCof=   62.81 CofMax=   10.00 Det=-3.83D-19
 Inversion failed.  Reducing to 14 matrices.
 Large coefficients: NSaved= 14 BigCof=   59.89 CofMax=   10.00 Det=-5.27D-19
 Inversion failed.  Reducing to 13 matrices.
 Large coefficients: NSaved= 13 BigCof=   58.34 CofMax=   10.00 Det=-5.35D-19
 Inversion failed.  Reducing to 12 matrices.
 Large coefficients: NSaved= 12 BigCof=   54.32 CofMax=   10.00 Det=-5.58D-19
 Inversion failed.  Reducing to 11 matrices.
 Large coefficients: NSaved= 11 BigCof=   53.76 CofMax=   10.00 Det=-5.72D-19
 Inversion failed.  Reducing to 10 matrices.
 Large coefficients: NSaved= 10 BigCof=   53.42 CofMax=   10.00 Det=-5.74D-19
 Inversion failed.  Reducing to  9 matrices.
 Large coefficients: NSaved=  9 BigCof=   47.20 CofMax=   10.00 Det=-6.46D-19
 Inversion failed.  Reducing to  8 matrices.
 Large coefficients: NSaved=  8 BigCof=   40.54 CofMax=   10.00 Det=-7.39D-19
 Inversion failed.  Reducing to  7 matrices.
 Large coefficients: NSaved=  7 BigCof=   38.92 CofMax=   10.00 Det=-7.80D-19
 Inversion failed.  Reducing to  6 matrices.
 Large coefficients: NSaved=  6 BigCof=   24.28 CofMax=   10.00 Det=-1.22D-18
 Inversion failed.  Reducing to  5 matrices.
 Large coefficients: NSaved=  5 BigCof=   22.20 CofMax=   10.00 Det=-1.34D-18
 Inversion failed.  Reducing to  4 matrices.
 Large coefficients: NSaved=  4 BigCof=   22.04 CofMax=   10.00 Det=-1.35D-18
 Inversion failed.  Reducing to  3 matrices.
 Large coefficients: NSaved=  3 BigCof=   21.88 CofMax=   10.00 Det=-1.36D-18
 Inversion failed.  Reducing to  2 matrices.
 Large coefficients: NSaved=  2 BigCof=   18.37 CofMax=   10.00 Det=-2.10D-18
 Coeff-Com: -0.174D+02 0.184D+02
 Coeff:     -0.174D+02 0.184D+02
 Gap=     0.156 Goal=   None    Shift=    0.000
 Gap=     0.259 Goal=   None    Shift=    0.000
 RMSDP=3.96D-07 MaxDP=1.92D-05 DE=-1.36D-11 OVMax= 1.28D-04

 Cycle  29  Pass 1  IDiag  1:
 E= -190.808608810417     Delta-E=       -0.000000000224 Rises=F Damp=F
 DIIS: error= 1.94D-07 at cycle  18 NSaved=   3.
 NSaved= 3 IEnMin= 3 EnMin= -190.808608810417     IErMin= 3 ErrMin= 1.94D-07
 ErrMax= 1.94D-07  0.00D+00 EMaxC= 1.00D-01 BMatC= 1.80D-12 BMatP= 1.80D-12
 IDIUse=1 WtCom= 1.00D+00 WtEn= 0.00D+00
 Coeff-Com: -0.757D+01 0.631D+01 0.226D+01
 Coeff:     -0.757D+01 0.631D+01 0.226D+01
 Gap=     0.156 Goal=   None    Shift=    0.000
 Gap=     0.259 Goal=   None    Shift=    0.000
 RMSDP=6.80D-07 MaxDP=3.29D-05 DE=-2.24D-10 OVMax= 2.19D-04

 Cycle  30  Pass 1  IDiag  1:
 E= -190.808608810799     Delta-E=       -0.000000000382 Rises=F Damp=F
 DIIS: error= 1.94D-07 at cycle  19 NSaved=   4.
 NSaved= 4 IEnMin= 4 EnMin= -190.808608810799     IErMin= 4 ErrMin= 1.94D-07
 ErrMax= 1.94D-07  0.00D+00 EMaxC= 1.00D-01 BMatC= 1.80D-12 BMatP= 1.80D-12
 IDIUse=1 WtCom= 1.00D+00 WtEn= 0.00D+00
 Large coefficients: NSaved=  4 BigCof=   57.68 CofMax=   10.00 Det=-5.34D-19
 Inversion failed.  Reducing to  3 matrices.
 Coeff-Com: -0.184D+01 0.170D+01 0.113D+01
 Coeff:     -0.184D+01 0.170D+01 0.113D+01
 Gap=     0.156 Goal=   None    Shift=    0.000
 Gap=     0.259 Goal=   None    Shift=    0.000
 RMSDP=8.33D-07 MaxDP=4.03D-05 DE=-3.82D-10 OVMax= 2.69D-04

 Cycle  31  Pass 1  IDiag  1:
 E= -190.808608811268     Delta-E=       -0.000000000468 Rises=F Damp=F
 DIIS: error= 1.94D-07 at cycle  20 NSaved=   4.
 NSaved= 4 IEnMin= 4 EnMin= -190.808608811268     IErMin= 4 ErrMin= 1.94D-07
 ErrMax= 1.94D-07  0.00D+00 EMaxC= 1.00D-01 BMatC= 1.80D-12 BMatP= 1.80D-12
 IDIUse=1 WtCom= 1.00D+00 WtEn= 0.00D+00
 Coeff-Com:  0.136D+01-0.387D+01 0.140D+01 0.211D+01
 Coeff:      0.136D+01-0.387D+01 0.140D+01 0.211D+01
 Gap=     0.156 Goal=   None    Shift=    0.000
 Gap=     0.259 Goal=   None    Shift=    0.000
 RMSDP=2.11D-06 MaxDP=1.02D-04 DE=-4.68D-10 OVMax= 6.79D-04

 Cycle  32  Pass 1  IDiag  1:
 E= -190.808608812451     Delta-E=       -0.000000001183 Rises=F Damp=F
 DIIS: error= 1.94D-07 at cycle  21 NSaved=   5.
 NSaved= 5 IEnMin= 5 EnMin= -190.808608812451     IErMin= 5 ErrMin= 1.94D-07
 ErrMax= 1.94D-07  0.00D+00 EMaxC= 1.00D-01 BMatC= 1.80D-12 BMatP= 1.80D-12
 IDIUse=1 WtCom= 1.00D+00 WtEn= 0.00D+00
 Coeff-Com:  0.137D+01-0.366D+01 0.126D+01 0.191D+01 0.108D+00
 Coeff:      0.137D+01-0.366D+01 0.126D+01 0.191D+01 0.108D+00
 Gap=     0.156 Goal=   None    Shift=    0.000
 Gap=     0.259 Goal=   None    Shift=    0.000
 RMSDP=1.60D-09 MaxDP=7.68D-08 DE=-1.18D-09 OVMax= 5.15D-07

 SCF Done:  E(UM062X) =  -190.808608812     A.U. after   32 cycles
            NFock= 32  Conv=0.16D-08     -V/T= 2.0069
 <Sx>= 0.0000 <Sy>= 0.0000 <Sz>= 0.5000 <S**2>= 0.7702 S= 0.5100
 <L.S>= 0.000000000000E+00
 KE= 1.895070381116D+02 PE=-6.410071609440D+02 EE= 1.611916036826D+02
 Annihilation of the first spin contaminant:
 S**2 before annihilation     0.7702,   after     0.7502
 Leave Link  502 at Mon Sep 28 17:07:00 2020, MaxMem=   268435456 cpu:             286.5 elap:              44.8
 (Enter /applis/site/cecic/gaussian16/B.01/nehalem/g16/l601.exe)
 Copying SCF densities to generalized density rwf, IOpCl= 1 IROHF=0.

 **********************************************************************

            Population analysis using the SCF Density.

 **********************************************************************

 Alpha  occ. eigenvalues --  -10.65187 -10.62145 -10.60282 -10.59501 -10.58447
 Alpha  occ. eigenvalues --   -0.94119  -0.88754  -0.78578  -0.70366  -0.62415
 Alpha  occ. eigenvalues --   -0.46916  -0.45876  -0.40699  -0.38779  -0.36849
 Alpha  occ. eigenvalues --   -0.27850
 Alpha virt. eigenvalues --   -0.12286   0.01612   0.03166   0.07071   0.15959
 Alpha virt. eigenvalues --    0.17824   0.18423   0.19212   0.20484   0.25084
 Alpha virt. eigenvalues --    0.29414   0.29617   0.30395   0.33635   0.33689
 Alpha virt. eigenvalues --    0.35320   0.39777   0.39884   0.41478   0.47934
 Alpha virt. eigenvalues --    0.48334   0.53219   0.53271   0.57115   0.59343
 Alpha virt. eigenvalues --    0.59715   0.60348   0.60462   0.66025   0.71386
 Alpha virt. eigenvalues --    0.71579   0.74887   0.75098   0.77521   0.81005
 Alpha virt. eigenvalues --    0.84441   0.88998   0.89143   0.89241   0.93945
 Alpha virt. eigenvalues --    0.94408   0.98469   1.11117   1.11591   1.12568
 Alpha virt. eigenvalues --    1.12606   1.16812   1.25344   1.32590   1.32604
 Alpha virt. eigenvalues --    1.32873   1.46551   1.46566   1.48659   1.65598
 Alpha virt. eigenvalues --    1.65701   1.80410   1.95010   1.95585   2.03129
 Alpha virt. eigenvalues --    2.14157   2.14727   2.18002   2.25349   2.28126
 Alpha virt. eigenvalues --    2.28235   2.31853   2.31999   2.38564   2.41805
 Alpha virt. eigenvalues --    2.42063   2.42142   2.42305   2.49542   2.51469
 Alpha virt. eigenvalues --    2.51699   2.52103   2.52385   2.54595   2.54787
 Alpha virt. eigenvalues --    2.62495   2.64888   2.66017   2.70568   2.70960
 Alpha virt. eigenvalues --    2.75396   2.75788   2.79989   2.80539   2.80939
 Alpha virt. eigenvalues --    2.81361   2.81471   2.85281   2.85478   2.86881
 Alpha virt. eigenvalues --    2.89618   2.89805   2.96410   2.97886   2.98195
 Alpha virt. eigenvalues --    2.98260   2.99530   2.99830   2.99973   3.06253
 Alpha virt. eigenvalues --    3.06263   3.09538   3.09662   3.17484   3.17874
 Alpha virt. eigenvalues --    3.25720   3.28012   3.28712   3.35891   3.36069
 Alpha virt. eigenvalues --    3.41123   3.43185   3.43787   3.54855   3.78764
 Alpha virt. eigenvalues --    3.78958   3.81062   3.81378   3.84470   3.96267
 Alpha virt. eigenvalues --    3.96369   4.24940   4.25120   4.28493   4.41941
 Alpha virt. eigenvalues --    4.42442   4.45321   4.74050   5.01067   5.01819
 Alpha virt. eigenvalues --    5.15530   5.38525   5.58258   5.58952   5.82182
 Alpha virt. eigenvalues --    5.88785   5.89443   6.22764   6.94512   9.24533
 Alpha virt. eigenvalues --   10.25943  16.49173  17.28163
  Beta  occ. eigenvalues --  -10.64501 -10.61895 -10.60353 -10.59398 -10.58609
  Beta  occ. eigenvalues --   -0.93611  -0.88346  -0.76405  -0.69346  -0.62107
  Beta  occ. eigenvalues --   -0.45563  -0.45068  -0.38075  -0.36664  -0.36176
  Beta virt. eigenvalues --   -0.10234  -0.08330   0.03567   0.04411   0.07001
  Beta virt. eigenvalues --    0.15241   0.17674   0.19388   0.19927   0.21098
  Beta virt. eigenvalues --    0.25131   0.29473   0.29673   0.29924   0.33302
  Beta virt. eigenvalues --    0.33401   0.36210   0.39637   0.39703   0.41446
  Beta virt. eigenvalues --    0.47594   0.47628   0.53613   0.53617   0.57511
  Beta virt. eigenvalues --    0.59157   0.59258   0.60947   0.60960   0.65447
  Beta virt. eigenvalues --    0.72723   0.72783   0.75180   0.75659   0.77352
  Beta virt. eigenvalues --    0.80558   0.84396   0.88655   0.89415   0.89427
  Beta virt. eigenvalues --    0.94259   0.94638   0.98719   1.11343   1.11812
  Beta virt. eigenvalues --    1.12768   1.12771   1.17315   1.26446   1.32578
  Beta virt. eigenvalues --    1.32824   1.32994   1.46618   1.47192   1.48860
  Beta virt. eigenvalues --    1.65646   1.66151   1.81010   1.95861   1.96629
  Beta virt. eigenvalues --    2.03840   2.16249   2.18275   2.19073   2.25124
  Beta virt. eigenvalues --    2.28374   2.28937   2.32587   2.32613   2.38742
  Beta virt. eigenvalues --    2.42700   2.42703   2.42924   2.43470   2.49592
  Beta virt. eigenvalues --    2.52009   2.52016   2.53016   2.53677   2.55674
  Beta virt. eigenvalues --    2.55730   2.62992   2.67886   2.67914   2.71631
  Beta virt. eigenvalues --    2.72305   2.77080   2.77134   2.81745   2.82446
  Beta virt. eigenvalues --    2.82454   2.82775   2.83933   2.85814   2.85819
  Beta virt. eigenvalues --    2.87471   2.90692   2.90703   2.98974   2.99571
  Beta virt. eigenvalues --    2.99969   3.00386   3.00388   3.02613   3.02735
  Beta virt. eigenvalues --    3.06882   3.07667   3.09671   3.09702   3.18703
  Beta virt. eigenvalues --    3.18718   3.26915   3.28659   3.29762   3.36781
  Beta virt. eigenvalues --    3.36794   3.41195   3.43939   3.45414   3.55109
  Beta virt. eigenvalues --    3.79501   3.79512   3.81916   3.82623   3.85509
  Beta virt. eigenvalues --    3.96790   3.97253   4.25711   4.25715   4.30245
  Beta virt. eigenvalues --    4.43295   4.44210   4.47452   4.75012   5.02819
  Beta virt. eigenvalues --    5.03722   5.18179   5.39338   5.59431   5.60199
  Beta virt. eigenvalues --    5.83643   5.89756   5.90337   6.23501   6.95167
  Beta virt. eigenvalues --    9.28517  10.27688  16.49128  17.28346
          Condensed to atoms (all electrons):
               1          2          3          4          5          6
     1  C    6.448948  -0.584475  -0.310230   0.001531  -0.000097   0.542405
     2  C   -0.584475   6.028699   0.715442  -0.484312  -0.006682  -0.027868
     3  C   -0.310230   0.715442   5.347935   0.285139  -0.075046  -0.005425
     4  C    0.001531  -0.484312   0.285139   6.096857   0.460757  -0.000137
     5  H   -0.000097  -0.006682  -0.075046   0.460757   0.482726  -0.000000
     6  C    0.542405  -0.027868  -0.005425  -0.000137  -0.000000   5.572830
          Atomic-Atomic Spin Densities.
               1          2          3          4          5          6
     1  C   -0.539567   0.208538   0.081468   0.006855   0.000001  -0.008402
     2  C    0.208538   0.118602   0.015225   0.032340   0.000052  -0.012262
     3  C    0.081468   0.015225  -0.195743  -0.011289  -0.004143   0.004444
     4  C    0.006855   0.032340  -0.011289   0.133516   0.005671   0.000306
     5  H    0.000001   0.000052  -0.004143   0.005671  -0.003088   0.000001
     6  C   -0.008402  -0.012262   0.004444   0.000306   0.000001   0.848673
 Mulliken charges and spin densities:
               1          2
     1  C   -0.098082  -0.251107
     2  C    0.359196   0.362495
     3  C    0.042184  -0.110038
     4  C   -0.359835   0.167398
     5  H    0.138342  -0.001507
     6  C   -0.081805   0.832758
 Sum of Mulliken charges =  -0.00000   1.00000
 Mulliken charges and spin densities with hydrogens summed into heavy atoms:
               1          2
     1  C   -0.098082  -0.251107
     2  C    0.359196   0.362495
     3  C    0.042184  -0.110038
     4  C   -0.221493   0.165892
     6  C   -0.081805   0.832758
 Electronic spatial extent (au):  <R**2>=            678.1667
 Charge=             -0.0000 electrons
 Dipole moment (field-independent basis, Debye):
    X=              0.0000    Y=             -0.0000    Z=              3.6078  Tot=              3.6078
 Quadrupole moment (field-independent basis, Debye-Ang):
   XX=            -28.3864   YY=            -30.0783   ZZ=            -17.2575
   XY=             -0.2879   XZ=             -0.0000   YZ=              0.0000
 Traceless Quadrupole moment (field-independent basis, Debye-Ang):
   XX=             -3.1457   YY=             -4.8375   ZZ=              7.9832
   XY=             -0.2879   XZ=             -0.0000   YZ=              0.0000
 Octapole moment (field-independent basis, Debye-Ang**2):
  XXX=              0.0000  YYY=              0.0000  ZZZ=             -9.6736  XYY=              0.0000
  XXY=              0.0000  XXZ=            -38.3360  XZZ=              0.0000  YZZ=             -0.0000
  YYZ=            -37.7558  XYZ=              0.0987
 Hexadecapole moment (field-independent basis, Debye-Ang**3):
 XXXX=            -31.8203 YYYY=            -35.1481 ZZZZ=           -483.8767 XXXY=             -0.2836
 XXXZ=             -0.0000 YYYX=             -0.2827 YYYZ=              0.0000 ZZZX=             -0.0000
 ZZZY=              0.0000 XXYY=            -11.1622 XXZZ=           -168.9436 YYZZ=           -175.8619
 XXYZ=              0.0000 YYXZ=             -0.0000 ZZXY=             -1.1773
 N-N= 9.949991033739D+01 E-N=-6.410071609272D+02  KE= 1.895070381116D+02
                          Isotropic Fermi Contact Couplings
        Atom                 a.u.       MegaHertz       Gauss      10(-4) cm-1
     1  C(13)             -0.05947     -66.85777     -23.85652     -22.30135
     2  C(13)              0.04609      51.81649      18.48941      17.28412
     3  C(13)             -0.02737     -30.76898     -10.97914     -10.26343
     4  C(13)              0.02116      23.78287       8.48632       7.93311
     5  H(1)              -0.00204      -9.11467      -3.25234      -3.04033
     6  C(13)              0.10775     121.12621      43.22085      40.40336
 --------------------------------------------------------
       Center         ----  Spin Dipole Couplings  ----
                      3XX-RR        3YY-RR        3ZZ-RR
 --------------------------------------------------------
     1   Atom       -0.003116     -0.126189      0.129305
     2   Atom       -0.164483      0.349065     -0.184582
     3   Atom       -0.003675     -0.054792      0.058467
     4   Atom       -0.063493      0.146315     -0.082821
     5   Atom       -0.010667     -0.001579      0.012246
     6   Atom       -0.462946      0.960294     -0.497347
 --------------------------------------------------------
                        XY            XZ            YZ
 --------------------------------------------------------
     1   Atom       -0.020944      0.000000     -0.000000
     2   Atom        0.087392     -0.000000      0.000000
     3   Atom       -0.008698      0.000000      0.000000
     4   Atom        0.035702     -0.000000     -0.000000
     5   Atom        0.001546     -0.000000      0.000000
     6   Atom        0.242195      0.000000     -0.000000
 --------------------------------------------------------


 ---------------------------------------------------------------------------------
              Anisotropic Spin Dipole Couplings in Principal Axis System
 ---------------------------------------------------------------------------------

       Atom             a.u.   MegaHertz   Gauss  10(-4) cm-1        Axes

              Baa    -0.1297   -17.399    -6.208    -5.804  0.1633  0.9866  0.0000
     1 C(13)  Bbb     0.0004     0.047     0.017     0.016  0.9866 -0.1633 -0.0000
              Bcc     0.1293    17.351     6.191     5.788  0.0000 -0.0000  1.0000
 
              Baa    -0.1846   -24.769    -8.838    -8.262  0.0000 -0.0000  1.0000
     2 C(13)  Bbb    -0.1789   -24.013    -8.568    -8.010  0.9866 -0.1633 -0.0000
              Bcc     0.3635    48.782    17.407    16.272  0.1633  0.9866  0.0000
 
              Baa    -0.0562    -7.546    -2.693    -2.517  0.1633  0.9866 -0.0000
     3 C(13)  Bbb    -0.0022    -0.300    -0.107    -0.100  0.9866 -0.1633 -0.0000
              Bcc     0.0585     7.846     2.800     2.617  0.0000  0.0000  1.0000
 
              Baa    -0.0828   -11.114    -3.966    -3.707  0.0000 -0.0000  1.0000
     4 C(13)  Bbb    -0.0694    -9.313    -3.323    -3.107  0.9866 -0.1633 -0.0000
              Bcc     0.1522    20.427     7.289     6.814  0.1633  0.9866 -0.0000
 
              Baa    -0.0109    -5.828    -2.079    -1.944  0.9866 -0.1633  0.0000
     5 H(1)   Bbb    -0.0013    -0.706    -0.252    -0.235  0.1633  0.9866 -0.0000
              Bcc     0.0122     6.534     2.331     2.179 -0.0000  0.0000  1.0000
 
              Baa    -0.5030   -67.502   -24.086   -22.516  0.9866 -0.1633 -0.0000
     6 C(13)  Bbb    -0.4973   -66.739   -23.814   -22.262  0.0000 -0.0000  1.0000
              Bcc     1.0004   134.241    47.901    44.778  0.1633  0.9866 -0.0000
 

 ---------------------------------------------------------------------------------

 No NMR shielding tensors so no spin-rotation constants.
 Leave Link  601 at Mon Sep 28 17:07:01 2020, MaxMem=   268435456 cpu:               2.2 elap:               0.4
 (Enter /applis/site/cecic/gaussian16/B.01/nehalem/g16/l701.exe)
 ... and contract with generalized density number  0.
 Compute integral first derivatives.
 Leave Link  701 at Mon Sep 28 17:07:01 2020, MaxMem=   268435456 cpu:               1.3 elap:               0.4
 (Enter /applis/site/cecic/gaussian16/B.01/nehalem/g16/l702.exe)
 L702 exits ... SP integral derivatives will be done elsewhere.
 Leave Link  702 at Mon Sep 28 17:07:01 2020, MaxMem=   268435456 cpu:               0.4 elap:               0.1
 (Enter /applis/site/cecic/gaussian16/B.01/nehalem/g16/l703.exe)
 Integral derivatives from FoFJK, PRISM(SPDF).
 Compute integral first derivatives, UseDBF=F ICtDFT=           0.
 Calling FoFJK, ICntrl=      2127 FMM=F ISym2X=0 I1Cent= 0 IOpClX= 1 NMat=1 NMatS=1 NMatT=0.
 FoFJK:  IHMeth= 1 ICntrl=    2127 DoSepK=F KAlg= 0 I1Cent=           0 FoldK=F
 IRaf=         0 NMat=       1 IRICut=       1 DoRegI=T DoRafI=F ISym2E= 0 IDoP0=0 IntGTp=1.
 FoFCou: FMM=F IPFlag=           0 FMFlag=      100000 FMFlg1=         800
         NFxFlg=           0 DoJE=F BraDBF=F KetDBF=F FulRan=T
         wScrn=  0.000000 ICntrl=      2127 IOpCl=  1 I1Cent=           0 NGrid=           0
         NMat0=    1 NMatS0=      1 NMatT0=    0 NMatD0=    1 NMtDS0=    0 NMtDT0=    0
 Symmetry not used in FoFCou.
 Leave Link  703 at Mon Sep 28 17:07:05 2020, MaxMem=   268435456 cpu:              25.8 elap:               3.3
 (Enter /applis/site/cecic/gaussian16/B.01/nehalem/g16/l716.exe)
 Dipole        = 1.10316181D-13-8.85290496D-14 1.41940306D+00
 -------------------------------------------------------------------
 Center     Atomic                   Forces (Hartrees/Bohr)
 Number     Number              X              Y              Z
 -------------------------------------------------------------------
      1        6          -0.000000000   -0.000000000   -0.117688607
      2        6           0.000000000    0.000000000    0.089480914
      3        6          -0.000000000    0.000000000   -0.038298364
      4        6          -0.000000000    0.000000000   -0.010898596
      5        1           0.000000000    0.000000000    0.004026842
      6        6          -0.000000000   -0.000000000    0.073377812
 -------------------------------------------------------------------
 Cartesian Forces:  Max     0.117688607 RMS     0.040030201
 Leave Link  716 at Mon Sep 28 17:07:05 2020, MaxMem=   268435456 cpu:               0.5 elap:               0.1
 (Enter /applis/site/cecic/gaussian16/B.01/nehalem/g16/l103.exe)

 GradGradGradGradGradGradGradGradGradGradGradGradGradGradGradGradGradGrad
 Berny optimization.
 FormGI is forming the generalized inverse of G from B-inverse, IUseBI=4.
 Internal  Forces:  Max     0.073377812 RMS     0.026963688
 Search for a local minimum.
 Step number   1 out of a maximum of  100
 All quantities printed in internal units (Hartrees-Bohrs-Radians)
 RMS Force = .26964D-01 SwitMx=.10000D-02 MixMth= 1
 Mixed Optimization -- RFO/linear search
 Second derivative matrix not updated -- first step.
 The second derivative matrix:
                          R1        R2        R3        R4        R5
           R1           1.02200
           R2           0.00000   0.36607
           R3           0.00000   0.00000   0.43716
           R4           0.00000   0.00000   0.00000   1.02200
           R5           0.00000   0.00000   0.00000   0.00000   0.38744
           A1           0.00000   0.00000   0.00000   0.00000   0.00000
           A2           0.00000   0.00000   0.00000   0.00000   0.00000
           A3           0.00000   0.00000   0.00000   0.00000   0.00000
           A4           0.00000   0.00000   0.00000   0.00000   0.00000
           A5           0.00000   0.00000   0.00000   0.00000   0.00000
           A6           0.00000   0.00000   0.00000   0.00000   0.00000
           A7           0.00000   0.00000   0.00000   0.00000   0.00000
           A8           0.00000   0.00000   0.00000   0.00000   0.00000
                          A1        A2        A3        A4        A5
           A1           0.01257
           A2           0.00000   0.01932
           A3           0.00000   0.00000   0.04664
           A4           0.00000   0.00000   0.00000   0.00654
           A5           0.00000   0.00000   0.00000   0.00000   0.01257
           A6           0.00000   0.00000   0.00000   0.00000   0.00000
           A7           0.00000   0.00000   0.00000   0.00000   0.00000
           A8           0.00000   0.00000   0.00000   0.00000   0.00000
                          A6        A7        A8
           A6           0.01932
           A7           0.00000   0.04664
           A8           0.00000   0.00000   0.00654
 ITU=  0
     Eigenvalues ---    0.00654   0.00654   0.01257   0.01257   0.01932
     Eigenvalues ---    0.01932   0.04664   0.04664   0.36607   0.38744
     Eigenvalues ---    0.43716   1.02200   1.02200
 RFO step:  Lambda=-2.03615061D-02 EMin= 6.53631227D-03
 Linear search not attempted -- first point.
 Iteration  1 RMS(Cart)=  0.06023142 RMS(Int)=  0.00000000
 Iteration  2 RMS(Cart)=  0.00000000 RMS(Int)=  0.00000001
 ITry= 1 IFail=0 DXMaxC= 1.80D-01 DCOld= 1.00D+10 DXMaxT= 3.00D-01 DXLimC= 3.00D+00 Rises=F
 Variable       Old X    -DE/DX   Delta X   Delta X   Delta X     New X
                                 (Linear)    (Quad)   (Total)
    R1        2.27771   0.04431   0.00000   0.04251   0.04251   2.32022
    R2        2.76442  -0.07338   0.00000  -0.18988  -0.18988   2.57454
    R3        2.66795  -0.04517   0.00000  -0.09873  -0.09873   2.56923
    R4        2.27771  -0.00687   0.00000  -0.00659  -0.00659   2.27111
    R5        1.99997   0.00403   0.00000   0.00987   0.00987   2.00985
    A1        3.14159  -0.00000   0.00000  -0.00000   0.00000   3.14159
    A2        3.14159  -0.00000   0.00000  -0.00000  -0.00000   3.14159
    A3        3.14159  -0.00000   0.00000  -0.00000   0.00000   3.14159
    A4        3.14159  -0.00000   0.00000  -0.00000   0.00000   3.14159
    A5        3.14159  -0.00000   0.00000  -0.00000   0.00000   3.14159
    A6        3.14159   0.00000   0.00000   0.00000  -0.00000   3.14159
    A7        3.14159   0.00000   0.00000   0.00000   0.00000   3.14159
    A8        3.14159  -0.00000   0.00000  -0.00000   0.00000   3.14159
         Item               Value     Threshold  Converged?
 Maximum Force            0.073378     0.000450     NO 
 RMS     Force            0.026964     0.000300     NO 
 Maximum Displacement     0.179812     0.001800     NO 
 RMS     Displacement     0.060231     0.001200     NO 
 Predicted change in Energy=-1.066689D-02
 Lowest energy point so far.  Saving SCF results.
 GradGradGradGradGradGradGradGradGradGradGradGradGradGradGradGradGradGrad

 Leave Link  103 at Mon Sep 28 17:07:06 2020, MaxMem=   268435456 cpu:               3.6 elap:               0.6
 (Enter /applis/site/cecic/gaussian16/B.01/nehalem/g16/l202.exe)
                          Input orientation:                          
 ---------------------------------------------------------------------
 Center     Atomic      Atomic             Coordinates (Angstroms)
 Number     Number       Type             X           Y           Z
 ---------------------------------------------------------------------
      1          6           0        0.000000   -0.000000   -0.005330
      2          6           0       -0.000000    0.000000    1.222475
      3          6           0        0.000000   -0.000000    2.582051
      4          6           0       -0.000000    0.000000    3.783873
      5          1           0        0.000000   -0.000000    4.847438
      6          6           0       -0.000000    0.000000   -1.367718
 ---------------------------------------------------------------------
                    Distance matrix (angstroms):
                    1          2          3          4          5
     1  C    0.000000
     2  C    1.227805   0.000000
     3  C    2.587381   1.359576   0.000000
     4  C    3.789203   2.561397   1.201821   0.000000
     5  H    4.852768   3.624963   2.265387   1.063565   0.000000
     6  C    1.362388   2.590193   3.949769   5.151591   6.215156
                    6
     6  C    0.000000
 Symmetry turned off by external request.
 Stoichiometry    C5H(2)
 Framework group  C*V[C*(HCCCCC)]
 Deg. of freedom     5
 Full point group                 C*V     NOp   4
 Rotational constants (GHZ):           0.0000000           2.3798097           2.3798097
 Leave Link  202 at Mon Sep 28 17:07:06 2020, MaxMem=   268435456 cpu:               0.5 elap:               0.2
 (Enter /applis/site/cecic/gaussian16/B.01/nehalem/g16/l301.exe)
 Standard basis: CC-pVTZ (5D, 7F)
 Ernie: Thresh=  0.10000D-02 Tol=  0.10000D-05 Strict=F.
 Ernie:  15 primitive shells out of 138 were deleted.
   164 basis functions,   277 primitive gaussians,   190 cartesian basis functions
    16 alpha electrons       15 beta electrons
       nuclear repulsion energy       101.4937926823 Hartrees.
 IExCor= 4336 DFT=T Ex+Corr=M062X ExCW=0 ScaHFX=  0.540000
 ScaDFX=  1.000000  1.000000  1.000000  1.000000 ScalE2=  1.000000  1.000000
 IRadAn=      5 IRanWt=     -1 IRanGd=            0 ICorTp=0 IEmpDi=  4
 NAtoms=    6 NActive=    6 NUniq=    6 SFac= 1.00D+00 NAtFMM=   60 NAOKFM=F Big=F
 Integral buffers will be    131072 words long.
 Raffenetti 2 integral format.
 Two-electron integral symmetry is turned off.
 Leave Link  301 at Mon Sep 28 17:07:06 2020, MaxMem=   268435456 cpu:               0.6 elap:               0.1
 (Enter /applis/site/cecic/gaussian16/B.01/nehalem/g16/l302.exe)
 NPDir=0 NMtPBC=     1 NCelOv=     1 NCel=       1 NClECP=     1 NCelD=      1
         NCelK=      1 NCelE2=     1 NClLst=     1 CellRange=     0.0.
 One-electron integrals computed using PRISM.
 NBasis=   164 RedAO= T EigKep=  1.93D-05  NBF=   164
 NBsUse=   164 1.00D-06 EigRej= -1.00D+00 NBFU=   164
 Precomputing XC quadrature grid using
 IXCGrd= 4 IRadAn=           5 IRanWt=          -1 IRanGd=           0 AccXCQ= 0.00D+00.
 Generated NRdTot=       0 NPtTot=           0 NUsed=           0 NTot=          32
 NSgBfM=   190   190   190   190   190 MxSgAt=     6 MxSgA2=     6.
 Leave Link  302 at Mon Sep 28 17:07:06 2020, MaxMem=   268435456 cpu:               1.5 elap:               0.2
 (Enter /applis/site/cecic/gaussian16/B.01/nehalem/g16/l303.exe)
 DipDrv:  MaxL=1.
 Leave Link  303 at Mon Sep 28 17:07:06 2020, MaxMem=   268435456 cpu:               0.8 elap:               0.2
 (Enter /applis/site/cecic/gaussian16/B.01/nehalem/g16/l401.exe)
 Initial guess from the checkpoint file:  "input.chk"
 B after Tr=     0.000000   -0.000000    0.010162
         Rot=    1.000000    0.000000    0.000000    0.000000 Ang=   0.00 deg.
 Guess basis will be translated and rotated to current coordinates.
 JPrj=2 DoOrth=T DoCkMO=T.
 Initial guess <Sx>= 0.0000 <Sy>= 0.0000 <Sz>= 0.5000 <S**2>= 0.7696 S= 0.5098
 Generating alternative initial guess.
 ExpMin= 1.03D-01 ExpMax= 8.24D+03 ExpMxC= 2.81D+02 IAcc=3 IRadAn=         5 AccDes= 0.00D+00
 Harris functional with IExCor= 1009 and IRadAn=       5 diagonalized for initial guess.
 HarFok:  IExCor= 1009 AccDes= 0.00D+00 IRadAn=         5 IDoV= 1 UseB2=F ITyADJ=14
 ICtDFT=  3500011 ScaDFX=  1.000000  1.000000  1.000000  1.000000
 FoFCou: FMM=F IPFlag=           0 FMFlag=      100000 FMFlg1=           0
         NFxFlg=           0 DoJE=T BraDBF=F KetDBF=T FulRan=T
         wScrn=  0.000000 ICntrl=       500 IOpCl=  0 I1Cent=   200000004 NGrid=           0
         NMat0=    1 NMatS0=      1 NMatT0=    0 NMatD0=    1 NMtDS0=    0 NMtDT0=    0
 Symmetry not used in FoFCou.
 Harris En= -190.736419332924    
 Leave Link  401 at Mon Sep 28 17:07:07 2020, MaxMem=   268435456 cpu:               4.6 elap:               0.6
 (Enter /applis/site/cecic/gaussian16/B.01/nehalem/g16/l502.exe)
 Keep R1 and R2 ints in memory in canonical form, NReq=191223282.
 FoFCou: FMM=F IPFlag=           0 FMFlag=           0 FMFlg1=           0
         NFxFlg=           0 DoJE=F BraDBF=F KetDBF=F FulRan=T
         wScrn=  0.000000 ICntrl=       600 IOpCl=  0 I1Cent=           0 NGrid=           0
         NMat0=    1 NMatS0=  13530 NMatT0=    0 NMatD0=    1 NMtDS0=    0 NMtDT0=    0
 Symmetry not used in FoFCou.
 Two-electron integral symmetry not used.
 UHF open shell SCF:
 Using DIIS extrapolation, IDIIS=  1040.
 NGot=   268435456 LenX=    85286028 LenY=    85249487
 Requested convergence on RMS density matrix=1.00D-08 within 128 cycles.
 Requested convergence on MAX density matrix=1.00D-06.
 Requested convergence on             energy=1.00D-06.
 No special actions if energy rises.
 Integral accuracy reduced to 1.0D-05 until final iterations.

 Cycle   1  Pass 0  IDiag  1:
 E= -190.815086197574    
 DIIS: error= 1.16D-02 at cycle   1 NSaved=   1.
 NSaved= 1 IEnMin= 1 EnMin= -190.815086197574     IErMin= 1 ErrMin= 1.16D-02
 ErrMax= 1.16D-02  0.00D+00 EMaxC= 1.00D-01 BMatC= 3.25D-02 BMatP= 3.25D-02
 IDIUse=3 WtCom= 8.84D-01 WtEn= 1.16D-01
 Coeff-Com:  0.100D+01
 Coeff-En:   0.100D+01
 Coeff:      0.100D+01
 Recover alternate guess density for next cycle.
 RMSDP=8.65D-03 MaxDP=5.95D-01              OVMax= 0.00D+00

 Cycle   2  Pass 0  IDiag  1:
 E= -190.714916033093     Delta-E=        0.100170164481 Rises=F Damp=F
 Switch densities from cycles 1 and 2 for lowest energy.
 DIIS: error= 3.58D-02 at cycle   2 NSaved=   2.
 NSaved= 2 IEnMin= 1 EnMin= -190.815086197574     IErMin= 1 ErrMin= 1.16D-02
 ErrMax= 3.58D-02  0.00D+00 EMaxC= 1.00D+00 BMatC= 5.17D-01 BMatP= 3.25D-02
 IDIUse=1 WtCom= 1.00D+00 WtEn= 0.00D+00
 Coeff-Com:  0.926D+00 0.739D-01
 Coeff:      0.926D+00 0.739D-01
 Gap=     0.035 Goal=   None    Shift=    0.000
 Gap=     0.285 Goal=   None    Shift=    0.000
 RMSDP=2.59D-03 MaxDP=8.21D-02 DE= 1.00D-01 OVMax= 6.07D-01

 Cycle   3  Pass 0  IDiag  1:
 E= -190.821068426577     Delta-E=       -0.106152393484 Rises=F Damp=F
 DIIS: error= 4.96D-03 at cycle   3 NSaved=   3.
 NSaved= 3 IEnMin= 3 EnMin= -190.821068426577     IErMin= 3 ErrMin= 4.96D-03
 ErrMax= 4.96D-03  0.00D+00 EMaxC= 1.00D+00 BMatC= 6.92D-03 BMatP= 3.25D-02
 IDIUse=1 WtCom= 1.00D+00 WtEn= 0.00D+00
 Coeff-Com:  0.185D+00 0.421D-01 0.773D+00
 Coeff:      0.185D+00 0.421D-01 0.773D+00
 Gap=     0.143 Goal=   None    Shift=    0.000
 Gap=     0.263 Goal=   None    Shift=    0.000
 RMSDP=3.11D-03 MaxDP=1.65D-01 DE=-1.06D-01 OVMax= 5.83D-02

 Cycle   4  Pass 0  IDiag  1:
 E= -190.821767647695     Delta-E=       -0.000699221118 Rises=F Damp=F
 DIIS: error= 6.23D-03 at cycle   4 NSaved=   4.
 NSaved= 4 IEnMin= 4 EnMin= -190.821767647695     IErMin= 3 ErrMin= 4.96D-03
 ErrMax= 6.23D-03  0.00D+00 EMaxC= 1.00D+00 BMatC= 5.39D-03 BMatP= 6.92D-03
 IDIUse=1 WtCom= 1.00D+00 WtEn= 0.00D+00
 Coeff-Com: -0.564D-02 0.131D-01 0.477D+00 0.516D+00
 Coeff:     -0.564D-02 0.131D-01 0.477D+00 0.516D+00
 Gap=     0.144 Goal=   None    Shift=    0.000
 Gap=     0.262 Goal=   None    Shift=    0.000
 RMSDP=1.13D-03 MaxDP=7.60D-02 DE=-6.99D-04 OVMax= 2.63D-02

 Cycle   5  Pass 0  IDiag  1:
 E= -190.823552801133     Delta-E=       -0.001785153438 Rises=F Damp=F
 DIIS: error= 1.10D-03 at cycle   5 NSaved=   5.
 NSaved= 5 IEnMin= 5 EnMin= -190.823552801133     IErMin= 5 ErrMin= 1.10D-03
 ErrMax= 1.10D-03  0.00D+00 EMaxC= 1.00D+00 BMatC= 2.79D-04 BMatP= 5.39D-03
 IDIUse=1 WtCom= 1.00D+00 WtEn= 0.00D+00
 Coeff-Com: -0.135D-01-0.217D-03 0.837D-01 0.199D+00 0.731D+00
 Coeff:     -0.135D-01-0.217D-03 0.837D-01 0.199D+00 0.731D+00
 Gap=     0.145 Goal=   None    Shift=    0.000
 Gap=     0.256 Goal=   None    Shift=    0.000
 RMSDP=1.22D-04 MaxDP=5.54D-03 DE=-1.79D-03 OVMax= 1.13D-02

 Cycle   6  Pass 0  IDiag  1:
 E= -190.823698004670     Delta-E=       -0.000145203538 Rises=F Damp=F
 DIIS: error= 7.21D-04 at cycle   6 NSaved=   6.
 NSaved= 6 IEnMin= 6 EnMin= -190.823698004670     IErMin= 6 ErrMin= 7.21D-04
 ErrMax= 7.21D-04  0.00D+00 EMaxC= 1.00D+00 BMatC= 7.67D-05 BMatP= 2.79D-04
 IDIUse=1 WtCom= 1.00D+00 WtEn= 0.00D+00
 Coeff-Com: -0.367D-02-0.214D-02-0.886D-01-0.213D-01 0.292D+00 0.824D+00
 Coeff:     -0.367D-02-0.214D-02-0.886D-01-0.213D-01 0.292D+00 0.824D+00
 Gap=     0.145 Goal=   None    Shift=    0.000
 Gap=     0.256 Goal=   None    Shift=    0.000
 RMSDP=9.13D-05 MaxDP=4.98D-03 DE=-1.45D-04 OVMax= 9.90D-03

 Cycle   7  Pass 0  IDiag  1:
 E= -190.823768460933     Delta-E=       -0.000070456263 Rises=F Damp=F
 DIIS: error= 3.90D-04 at cycle   7 NSaved=   7.
 NSaved= 7 IEnMin= 7 EnMin= -190.823768460933     IErMin= 7 ErrMin= 3.90D-04
 ErrMax= 3.90D-04  0.00D+00 EMaxC= 1.00D+00 BMatC= 3.39D-05 BMatP= 7.67D-05
 IDIUse=1 WtCom= 1.00D+00 WtEn= 0.00D+00
 Coeff-Com:  0.164D-02-0.708D-03-0.766D-01-0.669D-01-0.869D-01 0.472D+00
 Coeff-Com:  0.757D+00
 Coeff:      0.164D-02-0.708D-03-0.766D-01-0.669D-01-0.869D-01 0.472D+00
 Coeff:      0.757D+00
 Gap=     0.144 Goal=   None    Shift=    0.000
 Gap=     0.257 Goal=   None    Shift=    0.000
 RMSDP=8.81D-05 MaxDP=4.99D-03 DE=-7.05D-05 OVMax= 6.94D-03

 Cycle   8  Pass 0  IDiag  1:
 E= -190.823798018276     Delta-E=       -0.000029557343 Rises=F Damp=F
 DIIS: error= 1.97D-04 at cycle   8 NSaved=   8.
 NSaved= 8 IEnMin= 8 EnMin= -190.823798018276     IErMin= 8 ErrMin= 1.97D-04
 ErrMax= 1.97D-04  0.00D+00 EMaxC= 1.00D+00 BMatC= 9.40D-06 BMatP= 3.39D-05
 IDIUse=1 WtCom= 1.00D+00 WtEn= 0.00D+00
 Coeff-Com:  0.252D-02-0.271D-04-0.137D-01-0.325D-01-0.174D+00-0.168D-01
 Coeff-Com:  0.428D+00 0.807D+00
 Coeff:      0.252D-02-0.271D-04-0.137D-01-0.325D-01-0.174D+00-0.168D-01
 Coeff:      0.428D+00 0.807D+00
 Gap=     0.144 Goal=   None    Shift=    0.000
 Gap=     0.257 Goal=   None    Shift=    0.000
 RMSDP=1.48D-04 MaxDP=9.19D-03 DE=-2.96D-05 OVMax= 4.11D-03

 Cycle   9  Pass 0  IDiag  1:
 E= -190.823808320605     Delta-E=       -0.000010302328 Rises=F Damp=F
 DIIS: error= 1.49D-04 at cycle   9 NSaved=   9.
 NSaved= 9 IEnMin= 9 EnMin= -190.823808320605     IErMin= 9 ErrMin= 1.49D-04
 ErrMax= 1.49D-04  0.00D+00 EMaxC= 1.00D+00 BMatC= 1.75D-06 BMatP= 9.40D-06
 IDIUse=1 WtCom= 1.00D+00 WtEn= 0.00D+00
 Coeff-Com:  0.186D-03 0.149D-03 0.125D-01 0.607D-02-0.372D-01-0.997D-01
 Coeff-Com: -0.304D-01 0.252D+00 0.896D+00
 Coeff:      0.186D-03 0.149D-03 0.125D-01 0.607D-02-0.372D-01-0.997D-01
 Coeff:     -0.304D-01 0.252D+00 0.896D+00
 Gap=     0.144 Goal=   None    Shift=    0.000
 Gap=     0.256 Goal=   None    Shift=    0.000
 RMSDP=6.91D-05 MaxDP=4.36D-03 DE=-1.03D-05 OVMax= 1.71D-03

 Cycle  10  Pass 0  IDiag  1:
 E= -190.823811014772     Delta-E=       -0.000002694167 Rises=F Damp=F
 DIIS: error= 1.27D-04 at cycle  10 NSaved=  10.
 NSaved=10 IEnMin=10 EnMin= -190.823811014772     IErMin=10 ErrMin= 1.27D-04
 ErrMax= 1.27D-04  0.00D+00 EMaxC= 1.00D+00 BMatC= 7.10D-07 BMatP= 1.75D-06
 IDIUse=1 WtCom= 1.00D+00 WtEn= 0.00D+00
 Coeff-Com: -0.949D-03 0.794D-04 0.950D-02 0.170D-01 0.617D-01-0.183D-01
 Coeff-Com: -0.178D+00-0.262D+00 0.284D+00 0.109D+01
 Coeff:     -0.949D-03 0.794D-04 0.950D-02 0.170D-01 0.617D-01-0.183D-01
 Coeff:     -0.178D+00-0.262D+00 0.284D+00 0.109D+01
 Gap=     0.144 Goal=   None    Shift=    0.000
 Gap=     0.256 Goal=   None    Shift=    0.000
 RMSDP=3.90D-05 MaxDP=2.45D-03 DE=-2.69D-06 OVMax= 1.69D-03

 Cycle  11  Pass 0  IDiag  1:
 E= -190.823812771916     Delta-E=       -0.000001757144 Rises=F Damp=F
 DIIS: error= 6.60D-05 at cycle  11 NSaved=  11.
 NSaved=11 IEnMin=11 EnMin= -190.823812771916     IErMin=11 ErrMin= 6.60D-05
 ErrMax= 6.60D-05  0.00D+00 EMaxC= 1.00D+00 BMatC= 2.21D-07 BMatP= 7.10D-07
 IDIUse=1 WtCom= 1.00D+00 WtEn= 0.00D+00
 Coeff-Com:  0.532D-03-0.212D-03-0.100D-01-0.133D-01-0.163D-01 0.452D-01
 Coeff-Com:  0.107D+00 0.200D-01-0.519D+00-0.596D+00 0.198D+01
 Coeff:      0.532D-03-0.212D-03-0.100D-01-0.133D-01-0.163D-01 0.452D-01
 Coeff:      0.107D+00 0.200D-01-0.519D+00-0.596D+00 0.198D+01
 Gap=     0.144 Goal=   None    Shift=    0.000
 Gap=     0.256 Goal=   None    Shift=    0.000
 RMSDP=3.56D-05 MaxDP=1.97D-03 DE=-1.76D-06 OVMax= 2.17D-03

 Cycle  12  Pass 0  IDiag  1:
 E= -190.823813968204     Delta-E=       -0.000001196287 Rises=F Damp=F
 DIIS: error= 2.80D-05 at cycle  12 NSaved=  12.
 NSaved=12 IEnMin=12 EnMin= -190.823813968204     IErMin=12 ErrMin= 2.80D-05
 ErrMax= 2.80D-05  0.00D+00 EMaxC= 1.00D+00 BMatC= 4.09D-08 BMatP= 2.21D-07
 IDIUse=1 WtCom= 1.00D+00 WtEn= 0.00D+00
 Coeff-Com: -0.959D-04 0.108D-03 0.302D-02 0.209D-02-0.490D-02-0.174D-01
 Coeff-Com: -0.111D-01 0.471D-01 0.165D+00 0.114D-02-0.883D+00 0.170D+01
 Coeff:     -0.959D-04 0.108D-03 0.302D-02 0.209D-02-0.490D-02-0.174D-01
 Coeff:     -0.111D-01 0.471D-01 0.165D+00 0.114D-02-0.883D+00 0.170D+01
 Gap=     0.144 Goal=   None    Shift=    0.000
 Gap=     0.256 Goal=   None    Shift=    0.000
 RMSDP=1.52D-05 MaxDP=7.76D-04 DE=-1.20D-06 OVMax= 1.11D-03

 Cycle  13  Pass 0  IDiag  1:
 E= -190.823814204525     Delta-E=       -0.000000236321 Rises=F Damp=F
 DIIS: error= 1.08D-05 at cycle  13 NSaved=  13.
 NSaved=13 IEnMin=13 EnMin= -190.823814204525     IErMin=13 ErrMin= 1.08D-05
 ErrMax= 1.08D-05  0.00D+00 EMaxC= 1.00D+00 BMatC= 7.54D-09 BMatP= 4.09D-08
 IDIUse=1 WtCom= 1.00D+00 WtEn= 0.00D+00
 Coeff-Com: -0.414D-04-0.287D-04 0.937D-03 0.185D-02 0.436D-02-0.148D-02
 Coeff-Com: -0.159D-01-0.275D-01 0.406D-01 0.118D+00-0.346D-01-0.699D+00
 Coeff-Com:  0.161D+01
 Coeff:     -0.414D-04-0.287D-04 0.937D-03 0.185D-02 0.436D-02-0.148D-02
 Coeff:     -0.159D-01-0.275D-01 0.406D-01 0.118D+00-0.346D-01-0.699D+00
 Coeff:      0.161D+01
 Gap=     0.144 Goal=   None    Shift=    0.000
 Gap=     0.256 Goal=   None    Shift=    0.000
 RMSDP=6.25D-06 MaxDP=3.87D-04 DE=-2.36D-07 OVMax= 3.66D-04

 Initial convergence to 1.0D-05 achieved.  Increase integral accuracy.
 Cycle  14  Pass 1  IDiag  1:
 E= -190.823819053406     Delta-E=       -0.000004848881 Rises=F Damp=F
 DIIS: error= 2.82D-05 at cycle   1 NSaved=   1.
 NSaved= 1 IEnMin= 1 EnMin= -190.823819053406     IErMin= 1 ErrMin= 2.82D-05
 ErrMax= 2.82D-05  0.00D+00 EMaxC= 1.00D+00 BMatC= 3.84D-07 BMatP= 3.84D-07
 IDIUse=1 WtCom= 1.00D+00 WtEn= 0.00D+00
 Coeff-Com:  0.100D+01
 Coeff:      0.100D+01
 Gap=     0.144 Goal=   None    Shift=    0.000
 Gap=     0.256 Goal=   None    Shift=    0.000
 RMSDP=6.25D-06 MaxDP=3.87D-04 DE=-4.85D-06 OVMax= 6.49D-05

 Cycle  15  Pass 1  IDiag  1:
 E= -190.823819107406     Delta-E=       -0.000000054000 Rises=F Damp=F
 DIIS: error= 4.89D-06 at cycle   2 NSaved=   2.
 NSaved= 2 IEnMin= 2 EnMin= -190.823819107406     IErMin= 2 ErrMin= 4.89D-06
 ErrMax= 4.89D-06  0.00D+00 EMaxC= 1.00D+00 BMatC= 4.63D-09 BMatP= 3.84D-07
 IDIUse=1 WtCom= 1.00D+00 WtEn= 0.00D+00
 Coeff-Com: -0.565D-01 0.106D+01
 Coeff:     -0.565D-01 0.106D+01
 Gap=     0.144 Goal=   None    Shift=    0.000
 Gap=     0.256 Goal=   None    Shift=    0.000
 RMSDP=1.86D-06 MaxDP=1.06D-04 DE=-5.40D-08 OVMax= 4.22D-05

 Cycle  16  Pass 1  IDiag  1:
 E= -190.823819110036     Delta-E=       -0.000000002630 Rises=F Damp=F
 DIIS: error= 2.57D-06 at cycle   3 NSaved=   3.
 NSaved= 3 IEnMin= 3 EnMin= -190.823819110036     IErMin= 3 ErrMin= 2.57D-06
 ErrMax= 2.57D-06  0.00D+00 EMaxC= 1.00D+00 BMatC= 9.82D-10 BMatP= 4.63D-09
 IDIUse=1 WtCom= 1.00D+00 WtEn= 0.00D+00
 Coeff-Com: -0.177D-01 0.197D+00 0.821D+00
 Coeff:     -0.177D-01 0.197D+00 0.821D+00
 Gap=     0.144 Goal=   None    Shift=    0.000
 Gap=     0.256 Goal=   None    Shift=    0.000
 RMSDP=6.18D-07 MaxDP=3.56D-05 DE=-2.63D-09 OVMax= 2.16D-05

 Cycle  17  Pass 1  IDiag  1:
 E= -190.823819110858     Delta-E=       -0.000000000822 Rises=F Damp=F
 DIIS: error= 1.94D-06 at cycle   4 NSaved=   4.
 NSaved= 4 IEnMin= 4 EnMin= -190.823819110858     IErMin= 4 ErrMin= 1.94D-06
 ErrMax= 1.94D-06  0.00D+00 EMaxC= 1.00D+00 BMatC= 5.79D-10 BMatP= 9.82D-10
 IDIUse=1 WtCom= 1.00D+00 WtEn= 0.00D+00
 Coeff-Com:  0.872D-03-0.877D-01 0.394D+00 0.693D+00
 Coeff:      0.872D-03-0.877D-01 0.394D+00 0.693D+00
 Gap=     0.144 Goal=   None    Shift=    0.000
 Gap=     0.256 Goal=   None    Shift=    0.000
 RMSDP=7.07D-07 MaxDP=4.52D-05 DE=-8.22D-10 OVMax= 1.85D-05

 Cycle  18  Pass 1  IDiag  1:
 E= -190.823819111430     Delta-E=       -0.000000000572 Rises=F Damp=F
 DIIS: error= 1.76D-06 at cycle   5 NSaved=   5.
 NSaved= 5 IEnMin= 5 EnMin= -190.823819111430     IErMin= 5 ErrMin= 1.76D-06
 ErrMax= 1.76D-06  0.00D+00 EMaxC= 1.00D+00 BMatC= 2.28D-10 BMatP= 5.79D-10
 IDIUse=1 WtCom= 1.00D+00 WtEn= 0.00D+00
 Coeff-Com:  0.602D-02-0.111D+00-0.358D-01 0.296D+00 0.844D+00
 Coeff:      0.602D-02-0.111D+00-0.358D-01 0.296D+00 0.844D+00
 Gap=     0.144 Goal=   None    Shift=    0.000
 Gap=     0.256 Goal=   None    Shift=    0.000
 RMSDP=5.34D-07 MaxDP=3.31D-05 DE=-5.72D-10 OVMax= 1.90D-05

 Cycle  19  Pass 1  IDiag  1:
 E= -190.823819111863     Delta-E=       -0.000000000433 Rises=F Damp=F
 DIIS: error= 1.31D-06 at cycle   6 NSaved=   6.
 NSaved= 6 IEnMin= 6 EnMin= -190.823819111863     IErMin= 6 ErrMin= 1.31D-06
 ErrMax= 1.31D-06  0.00D+00 EMaxC= 1.00D+00 BMatC= 1.40D-10 BMatP= 2.28D-10
 IDIUse=1 WtCom= 1.00D+00 WtEn= 0.00D+00
 Coeff-Com:  0.196D-02 0.917D-02-0.310D+00-0.373D+00 0.580D+00 0.109D+01
 Coeff:      0.196D-02 0.917D-02-0.310D+00-0.373D+00 0.580D+00 0.109D+01
 Gap=     0.144 Goal=   None    Shift=    0.000
 Gap=     0.256 Goal=   None    Shift=    0.000
 RMSDP=7.03D-07 MaxDP=4.49D-05 DE=-4.33D-10 OVMax= 2.72D-05

 Cycle  20  Pass 1  IDiag  1:
 E= -190.823819112294     Delta-E=       -0.000000000431 Rises=F Damp=F
 DIIS: error= 9.42D-07 at cycle   7 NSaved=   7.
 NSaved= 7 IEnMin= 7 EnMin= -190.823819112294     IErMin= 7 ErrMin= 9.42D-07
 ErrMax= 9.42D-07  0.00D+00 EMaxC= 1.00D+00 BMatC= 4.27D-11 BMatP= 1.40D-10
 IDIUse=1 WtCom= 1.00D+00 WtEn= 0.00D+00
 Coeff-Com: -0.184D-02 0.475D-01-0.536D-01-0.237D+00-0.216D+00 0.304D+00
 Coeff-Com:  0.116D+01
 Coeff:     -0.184D-02 0.475D-01-0.536D-01-0.237D+00-0.216D+00 0.304D+00
 Coeff:      0.116D+01
 Gap=     0.144 Goal=   None    Shift=    0.000
 Gap=     0.256 Goal=   None    Shift=    0.000
 RMSDP=4.07D-07 MaxDP=2.34D-05 DE=-4.31D-10 OVMax= 2.31D-05

 Cycle  21  Pass 1  IDiag  1:
 E= -190.823819112468     Delta-E=       -0.000000000174 Rises=F Damp=F
 DIIS: error= 5.66D-07 at cycle   8 NSaved=   8.
 NSaved= 8 IEnMin= 8 EnMin= -190.823819112468     IErMin= 8 ErrMin= 5.66D-07
 ErrMax= 5.66D-07  0.00D+00 EMaxC= 1.00D+00 BMatC= 2.43D-11 BMatP= 4.27D-11
 IDIUse=1 WtCom= 1.00D+00 WtEn= 0.00D+00
 Coeff-Com: -0.131D-02 0.128D-01 0.132D+00 0.696D-01-0.408D+00-0.361D+00
 Coeff-Com:  0.713D+00 0.843D+00
 Coeff:     -0.131D-02 0.128D-01 0.132D+00 0.696D-01-0.408D+00-0.361D+00
 Coeff:      0.713D+00 0.843D+00
 Gap=     0.144 Goal=   None    Shift=    0.000
 Gap=     0.256 Goal=   None    Shift=    0.000
 RMSDP=2.28D-07 MaxDP=1.50D-05 DE=-1.74D-10 OVMax= 1.12D-05

 Cycle  22  Pass 1  IDiag  1:
 E= -190.823819112531     Delta-E=       -0.000000000063 Rises=F Damp=F
 DIIS: error= 3.61D-07 at cycle   9 NSaved=   9.
 NSaved= 9 IEnMin= 9 EnMin= -190.823819112531     IErMin= 9 ErrMin= 3.61D-07
 ErrMax= 3.61D-07  0.00D+00 EMaxC= 1.00D+00 BMatC= 7.41D-12 BMatP= 2.43D-11
 IDIUse=1 WtCom= 1.00D+00 WtEn= 0.00D+00
 Coeff-Com:  0.102D-04-0.106D-01 0.567D-01 0.969D-01-0.353D-01-0.216D+00
 Coeff-Com: -0.213D+00 0.308D+00 0.101D+01
 Coeff:      0.102D-04-0.106D-01 0.567D-01 0.969D-01-0.353D-01-0.216D+00
 Coeff:     -0.213D+00 0.308D+00 0.101D+01
 Gap=     0.144 Goal=   None    Shift=    0.000
 Gap=     0.256 Goal=   None    Shift=    0.000
 RMSDP=8.89D-08 MaxDP=4.93D-06 DE=-6.28D-11 OVMax= 8.14D-06

 Cycle  23  Pass 1  IDiag  1:
 E= -190.823819112557     Delta-E=       -0.000000000026 Rises=F Damp=F
 DIIS: error= 2.47D-07 at cycle  10 NSaved=  10.
 NSaved=10 IEnMin=10 EnMin= -190.823819112557     IErMin=10 ErrMin= 2.47D-07
 ErrMax= 2.47D-07  0.00D+00 EMaxC= 1.00D+00 BMatC= 4.25D-12 BMatP= 7.41D-12
 IDIUse=1 WtCom= 1.00D+00 WtEn= 0.00D+00
 Coeff-Com:  0.699D-03-0.152D-01-0.991D-02 0.506D-01 0.144D+00-0.298D-01
 Coeff-Com: -0.428D+00-0.108D+00 0.594D+00 0.801D+00
 Coeff:      0.699D-03-0.152D-01-0.991D-02 0.506D-01 0.144D+00-0.298D-01
 Coeff:     -0.428D+00-0.108D+00 0.594D+00 0.801D+00
 Gap=     0.144 Goal=   None    Shift=    0.000
 Gap=     0.256 Goal=   None    Shift=    0.000
 RMSDP=5.68D-08 MaxDP=3.12D-06 DE=-2.65D-11 OVMax= 7.43D-06

[...]
 RMSU=  1.58D-05    CP:  9.98D-01  1.06D-01  3.00D+00 -7.74D-01  3.00D+00
                    CP: -3.00D+00  3.00D+00  3.00D+00 -3.00D+00  9.56D-01
                    CP:  1.62D+00
 E= -189.724909938263     Delta-E=       -0.000152969225 Rises=F Damp=F
 DIIS: error= 1.07D-03 at cycle 112 NSaved=   4.
 NSaved= 4 IEnMin= 4 EnMin= -189.724909938263     IErMin= 4 ErrMin= 1.07D-03
 ErrMax= 1.07D-03  0.00D+00 EMaxC= 1.00D-01 BMatC= 6.45D-05 BMatP= 7.37D-05
 IDIUse=3 WtCom= 9.89D-01 WtEn= 1.07D-02
 Coeff-Com:  0.420D-01-0.126D+01 0.618D+00 0.160D+01
 Coeff-En:   0.000D+00 0.000D+00 0.000D+00 0.100D+01
 Coeff:      0.416D-01-0.124D+01 0.611D+00 0.159D+01
 Gap=     0.337 Goal=   None    Shift=    0.000
 Gap=     0.410 Goal=   None    Shift=    0.000
 RMSDP=3.21D-04 MaxDP=1.92D-02 DE=-1.53D-04 OVMax= 2.29D-02

 Cycle 113  Pass 1  IDiag  1:
 Density matrix breaks symmetry, PCut= 1.00D-07
 Density matrix has no symmetry -- integrals replicated.
 RMSU=  2.56D-05    CP:  9.98D-01 -4.41D-01  3.00D+00 -2.99D-01  3.00D+00
                    CP: -3.00D+00  3.00D+00  3.00D+00 -3.00D+00  8.94D-01
                    CP:  2.88D+00  1.77D+00
 E= -189.725221383346     Delta-E=       -0.000311445083 Rises=F Damp=F
 DIIS: error= 8.87D-04 at cycle 113 NSaved=   5.
 NSaved= 5 IEnMin= 5 EnMin= -189.725221383346     IErMin= 5 ErrMin= 8.87D-04
 ErrMax= 8.87D-04  0.00D+00 EMaxC= 1.00D-01 BMatC= 5.02D-05 BMatP= 6.45D-05
 IDIUse=3 WtCom= 9.91D-01 WtEn= 8.87D-03
 Coeff-Com:  0.326D+00 0.575D+00-0.144D+01-0.959D+00 0.250D+01
 Coeff-En:   0.000D+00 0.000D+00 0.000D+00 0.000D+00 0.100D+01
 Coeff:      0.323D+00 0.570D+00-0.143D+01-0.950D+00 0.249D+01
 Gap=     0.337 Goal=   None    Shift=    0.000
 Gap=     0.409 Goal=   None    Shift=    0.000
 RMSDP=5.43D-04 MaxDP=3.08D-02 DE=-3.11D-04 OVMax= 4.08D-02

 Cycle 114  Pass 1  IDiag  1:
 Density matrix breaks symmetry, PCut= 1.00D-07
 Density matrix has no symmetry -- integrals replicated.
 RMSU=  3.13D-05    CP:  9.96D-01 -1.36D+00  2.58D+00 -1.62D+00  3.00D+00
                    CP: -3.00D+00  3.00D+00  3.00D+00 -3.00D+00  4.95D-01
                    CP:  3.00D+00  3.00D+00  1.60D+00
 E= -189.725727641798     Delta-E=       -0.000506258452 Rises=F Damp=F
 DIIS: error= 9.73D-04 at cycle 114 NSaved=   6.
 NSaved= 6 IEnMin= 6 EnMin= -189.725727641798     IErMin= 5 ErrMin= 8.87D-04
 ErrMax= 9.73D-04  0.00D+00 EMaxC= 1.00D-01 BMatC= 4.54D-05 BMatP= 5.02D-05
 IDIUse=3 WtCom= 9.91D-01 WtEn= 8.87D-03
 Coeff-Com:  0.466D+00 0.832D+00-0.195D+01-0.132D+01 0.358D+01-0.608D+00
 Coeff-En:   0.000D+00 0.000D+00 0.000D+00 0.000D+00 0.000D+00 0.100D+01
 Coeff:      0.462D+00 0.824D+00-0.193D+01-0.131D+01 0.355D+01-0.594D+00
 Gap=     0.337 Goal=   None    Shift=    0.000
 Gap=     0.410 Goal=   None    Shift=    0.000
 RMSDP=1.82D-04 MaxDP=1.04D-02 DE=-5.06D-04 OVMax= 1.43D-02

 Cycle 115  Pass 1  IDiag  1:
 Density matrix breaks symmetry, PCut= 1.00D-07
 Density matrix has no symmetry -- integrals replicated.
 RMSU=  4.39D-06    CP:  9.97D-01 -1.05D+00  2.96D+00 -1.29D+00  3.00D+00
                    CP: -3.00D+00  3.00D+00  3.00D+00 -3.00D+00  5.49D-01
                    CP:  3.00D+00  2.88D+00  1.48D+00  6.75D-01
 E= -189.725550493973     Delta-E=        0.000177147825 Rises=F Damp=F
 DIIS: error= 9.56D-04 at cycle 115 NSaved=   7.
 NSaved= 7 IEnMin= 6 EnMin= -189.725727641798     IErMin= 5 ErrMin= 8.87D-04
 ErrMax= 9.56D-04  0.00D+00 EMaxC= 1.00D-01 BMatC= 4.43D-05 BMatP= 4.54D-05
 IDIUse=3 WtCom= 9.91D-01 WtEn= 8.87D-03
 Large coefficients: NSaved=  7 BigCof=   14.79 CofMax=   10.00 Det=-5.40D-08
 Inversion failed.  Reducing to  6 matrices.
 Large coefficients: NSaved=  6 BigCof=   13.58 CofMax=   10.00 Det=-5.86D-08
 Inversion failed.  Reducing to  5 matrices.
 Large coefficients: NSaved=  5 BigCof=   10.98 CofMax=   10.00 Det=-8.20D-08
 Inversion failed.  Reducing to  4 matrices.
 Rare condition: small coef for last iteration:  0.000D+00
 Coeff-Com: -0.611D+00-0.154D+00-0.786D+01 0.963D+01
 Coeff-En:   0.000D+00 0.000D+00 0.000D+00 0.100D+01
 Coeff:     -0.611D+00-0.154D+00-0.786D+01 0.963D+01
 Gap=     0.339 Goal=   None    Shift=    0.000
 Gap=     0.412 Goal=   None    Shift=    0.000
 RMSDP=9.02D-04 MaxDP=5.31D-02 DE= 1.77D-04 OVMax= 6.90D-02

 Cycle 116  Pass 1  IDiag  1:
 Density matrix breaks symmetry, PCut= 1.00D-07
 Density matrix has no symmetry -- integrals replicated.
 RMSU=  1.63D-05    CP:  1.00D+00  4.79D-01  2.65D+00  5.55D-01  3.00D+00
                    CP: -3.00D+00  3.00D+00  3.00D+00 -3.00D+00  8.32D-01
                    CP:  2.79D+00  2.22D+00  1.23D+00 -3.71D-01  2.35D+00
 E= -189.724572227944     Delta-E=        0.000978266030 Rises=F Damp=F
 DIIS: error= 1.16D-03 at cycle 116 NSaved=   5.
 NSaved= 5 IEnMin= 3 EnMin= -189.725727641798     IErMin= 2 ErrMin= 8.87D-04
 ErrMax= 1.16D-03  0.00D+00 EMaxC= 1.00D-01 BMatC= 7.55D-05 BMatP= 4.43D-05
 IDIUse=3 WtCom= 9.91D-01 WtEn= 8.87D-03
 Large coefficients: NSaved=  5 BigCof=   15.03 CofMax=   10.00 Det=-6.63D-08
 Inversion failed.  Reducing to  4 matrices.
 Large coefficients: NSaved=  4 BigCof=   14.90 CofMax=   10.00 Det=-6.64D-08
 Inversion failed.  Reducing to  3 matrices.
 Large coefficients: NSaved=  3 BigCof=   10.53 CofMax=   10.00 Det=-9.11D-08
 Inversion failed.  Reducing to  2 matrices.
 Coeff-Com:  0.180D+01-0.796D+00
 Coeff-En:   0.000D+00 0.100D+01
 Coeff:      0.178D+01-0.780D+00
 Gap=     0.333 Goal=   None    Shift=    0.000
 Gap=     0.405 Goal=   None    Shift=    0.000
 RMSDP=1.64D-03 MaxDP=9.54D-02 DE= 9.78D-04 OVMax= 1.30D-01

 Cycle 117  Pass 1  IDiag  1:
 Density matrix breaks symmetry, PCut= 1.00D-07
 Density matrix has no symmetry -- integrals replicated.
 RMSU=  2.21D-05    CP:  9.94D-01 -2.31D+00  7.53D-01 -2.50D+00  3.00D+00
                    CP: -3.00D+00  3.00D+00  3.00D+00  2.60D+00  3.26D-01
                    CP:  3.00D+00  3.00D+00  1.45D+00  1.76D+00 -3.00D+00
                    CP: -8.91D-01
 E= -189.726347568643     Delta-E=       -0.001775340700 Rises=F Damp=F
 DIIS: error= 1.11D-03 at cycle 117 NSaved=   3.
 NSaved= 3 IEnMin= 3 EnMin= -189.726347568643     IErMin= 1 ErrMin= 9.56D-04
 ErrMax= 1.11D-03  0.00D+00 EMaxC= 1.00D-01 BMatC= 6.32D-05 BMatP= 4.43D-05
 IDIUse=3 WtCom= 9.91D-01 WtEn= 8.87D-03
 Coeff-Com:  0.176D+01-0.852D+00 0.967D-01
 Coeff-En:   0.000D+00 0.000D+00 0.100D+01
 Coeff:      0.174D+01-0.844D+00 0.105D+00
 Gap=     0.339 Goal=   None    Shift=    0.000
 Gap=     0.410 Goal=   None    Shift=    0.000
 RMSDP=1.33D-04 MaxDP=7.40D-03 DE=-1.78D-03 OVMax= 1.10D-02

 Cycle 118  Pass 1  IDiag  1:
 Density matrix breaks symmetry, PCut= 1.00D-07
 Density matrix has no symmetry -- integrals replicated.
 RMSU=  3.39D-06    CP:  9.94D-01 -2.54D+00  4.50D-02 -2.64D+00  3.00D+00
                    CP: -3.00D+00  3.00D+00  2.67D+00  3.00D+00  2.99D-01
                    CP:  3.00D+00  3.00D+00  1.46D+00  1.97D+00 -3.00D+00
                    CP: -9.10D-01  1.20D+00
 E= -189.726506321033     Delta-E=       -0.000158752390 Rises=F Damp=F
 DIIS: error= 1.16D-03 at cycle 118 NSaved=   4.
 NSaved= 4 IEnMin= 4 EnMin= -189.726506321033     IErMin= 1 ErrMin= 9.56D-04
 ErrMax= 1.16D-03  0.00D+00 EMaxC= 1.00D-01 BMatC= 7.02D-05 BMatP= 4.43D-05
 IDIUse=3 WtCom= 9.91D-01 WtEn= 8.87D-03
 Large coefficients: NSaved=  4 BigCof=   11.88 CofMax=   10.00 Det=-4.60D-08
 Inversion failed.  Reducing to  3 matrices.
 Large coefficients: NSaved=  3 BigCof=   13.36 CofMax=   10.00 Det=-5.34D-08
 Inversion failed.  Reducing to  2 matrices.
 Large coefficients: NSaved=  2 BigCof=   10.57 CofMax=   10.00 Det=-3.47D-07
 Coeff-Com:  0.106D+02-0.957D+01
 Coeff-En:   0.000D+00 0.100D+01
 Coeff:      0.105D+02-0.947D+01
 Gap=     0.337 Goal=   None    Shift=    0.000
 Gap=     0.409 Goal=   None    Shift=    0.000
 RMSDP=1.34D-03 MaxDP=7.69D-02 DE=-1.59D-04 OVMax= 1.07D-01

 Cycle 119  Pass 1  IDiag  1:
 Density matrix breaks symmetry, PCut= 1.00D-07
 Density matrix has no symmetry -- integrals replicated.
 RMSU=  1.15D-05    CP:  9.99D-01 -2.58D-01  2.69D+00 -3.76D-01  3.00D+00
                    CP: -3.00D+00  3.00D+00  3.00D+00 -3.00D+00  4.75D-01
                    CP:  3.00D+00  2.30D+00  1.33D+00  2.66D-01  1.28D+00
                    CP:  7.47D-02 -4.29D-02 -1.39D+00
 E= -189.725064570690     Delta-E=        0.001441750343 Rises=F Damp=F
 DIIS: error= 1.07D-03 at cycle 119 NSaved=   3.
 NSaved= 3 IEnMin= 2 EnMin= -189.726506321033     IErMin= 3 ErrMin= 1.07D-03
 ErrMax= 1.07D-03  0.00D+00 EMaxC= 1.00D-01 BMatC= 6.69D-05 BMatP= 6.32D-05
 IDIUse=3 WtCom= 9.91D-01 WtEn= 8.87D-03
 Large coefficients: NSaved=  3 BigCof=   10.97 CofMax=   10.00 Det=-3.10D-07
 Inversion failed.  Reducing to  2 matrices.
 Coeff-Com:  0.176D+00 0.824D+00
 Coeff-En:   0.000D+00 0.100D+01
 Coeff:      0.174D+00 0.826D+00
 Gap=     0.337 Goal=   None    Shift=    0.000
 Gap=     0.409 Goal=   None    Shift=    0.000
 RMSDP=3.07D-04 MaxDP=1.76D-02 DE= 1.44D-03 OVMax= 2.37D-02

 Cycle 120  Pass 1  IDiag  1:
 Density matrix breaks symmetry, PCut= 1.00D-07
 Density matrix has no symmetry -- integrals replicated.
 RMSU=  7.64D-06    CP:  9.98D-01 -7.80D-01  2.55D+00 -1.22D+00  3.00D+00
                    CP: -3.00D+00  3.00D+00  3.00D+00 -3.00D+00  7.45D-01
                    CP:  2.87D+00  2.66D+00  1.56D+00  4.55D-01  1.35D+00
                    CP: -3.62D-02 -1.07D-02 -9.01D-01  7.14D-01
 E= -189.725395493253     Delta-E=       -0.000330922562 Rises=F Damp=F
 DIIS: error= 9.69D-04 at cycle 120 NSaved=   3.
 NSaved= 3 IEnMin= 1 EnMin= -189.726506321033     IErMin= 3 ErrMin= 9.69D-04
 ErrMax= 9.69D-04  0.00D+00 EMaxC= 1.00D-01 BMatC= 5.54D-05 BMatP= 6.69D-05
 IDIUse=3 WtCom= 9.91D-01 WtEn= 8.87D-03
 Coeff-Com: -0.914D+00 0.114D+01 0.773D+00
 Coeff-En:   0.000D+00 0.000D+00 0.100D+01
 Coeff:     -0.906D+00 0.113D+01 0.775D+00
 Gap=     0.341 Goal=   None    Shift=    0.000
 Gap=     0.418 Goal=   None    Shift=    0.000
 RMSDP=1.19D-03 MaxDP=6.68D-02 DE=-3.31D-04 OVMax= 8.92D-02

 Cycle 121  Pass 1  IDiag  1:
 Density matrix breaks symmetry, PCut= 1.00D-07
 Density matrix has no symmetry -- integrals replicated.
 Restarting incremental Fock formation.
 E= -189.723911341305     Delta-E=        0.001484151947 Rises=F Damp=F
 DIIS: error= 1.44D-03 at cycle 121 NSaved=   4.
 NSaved= 4 IEnMin= 1 EnMin= -189.726506321033     IErMin= 3 ErrMin= 9.69D-04
 ErrMax= 1.44D-03  0.00D+00 EMaxC= 1.00D-01 BMatC= 1.56D-04 BMatP= 5.54D-05
 IDIUse=3 WtCom= 9.91D-01 WtEn= 8.87D-03
 Rare condition: small coef for last iteration:  0.000D+00
 Coeff-Com: -0.141D+00 0.164D+01 0.477D+00-0.977D+00
 Coeff-En:   0.000D+00 0.000D+00 0.000D+00 0.100D+01
 Coeff:     -0.141D+00 0.164D+01 0.477D+00-0.977D+00
 Gap=     0.334 Goal=   None    Shift=    0.000
 Gap=     0.405 Goal=   None    Shift=    0.000
 RMSDP=1.73D-03 MaxDP=9.86D-02 DE= 1.48D-03 OVMax= 1.33D-01

 Cycle 122  Pass 1  IDiag  1:
 Density matrix breaks symmetry, PCut= 1.00D-07
 Density matrix has no symmetry -- integrals replicated.
 RMSU=  1.72D-03    CP:  9.94D-01
 E= -189.725956051146     Delta-E=       -0.002044709841 Rises=F Damp=F
 DIIS: error= 1.00D-03 at cycle 122 NSaved=   5.
 NSaved= 5 IEnMin= 1 EnMin= -189.726506321033     IErMin= 3 ErrMin= 9.69D-04
 ErrMax= 1.00D-03  0.00D+00 EMaxC= 1.00D-01 BMatC= 6.40D-05 BMatP= 5.54D-05
 IDIUse=3 WtCom= 9.91D-01 WtEn= 8.87D-03
 Coeff-Com: -0.311D+01 0.216D+01 0.643D+00-0.106D+01 0.237D+01
 Coeff-En:   0.000D+00 0.000D+00 0.000D+00 0.000D+00 0.100D+01
 Coeff:     -0.308D+01 0.214D+01 0.637D+00-0.105D+01 0.236D+01
 Gap=     0.343 Goal=   None    Shift=    0.000
 Gap=     0.413 Goal=   None    Shift=    0.000
 RMSDP=1.83D-03 MaxDP=1.08D-01 DE=-2.04D-03 OVMax= 1.35D-01

 Cycle 123  Pass 1  IDiag  1:
 Density matrix breaks symmetry, PCut= 1.00D-07
 Density matrix has no symmetry -- integrals replicated.
 RMSU=  7.99D-05    CP:  1.00D+00 -4.88D-02
 E= -189.723742476802     Delta-E=        0.002213574344 Rises=F Damp=F
 DIIS: error= 1.65D-03 at cycle 123 NSaved=   6.
 NSaved= 6 IEnMin= 1 EnMin= -189.726506321033     IErMin= 3 ErrMin= 9.69D-04
 ErrMax= 1.65D-03  0.00D+00 EMaxC= 1.00D-01 BMatC= 3.18D-04 BMatP= 5.54D-05
 IDIUse=3 WtCom= 9.91D-01 WtEn= 8.87D-03
 Rare condition: small coef for last iteration:  0.000D+00
 Coeff-Com: -0.295D+01 0.194D+01 0.843D+00-0.135D+01 0.230D+01 0.217D+00
 Coeff-En:   0.000D+00 0.000D+00 0.000D+00 0.000D+00 0.000D+00 0.100D+01
 Coeff:     -0.295D+01 0.194D+01 0.843D+00-0.135D+01 0.230D+01 0.217D+00
 Gap=     0.348 Goal=   None    Shift=    0.000
 Gap=     0.418 Goal=   None    Shift=    0.000
 RMSDP=2.42D-04 MaxDP=1.42D-02 DE= 2.21D-03 OVMax= 1.76D-02

 Cycle 124  Pass 1  IDiag  1:
 Density matrix breaks symmetry, PCut= 1.00D-07
 Density matrix has no symmetry -- integrals replicated.
 RMSU=  1.20D-05    CP:  1.00D+00  8.98D-02  1.06D+00
 E= -189.724127737607     Delta-E=       -0.000385260806 Rises=F Damp=F
 DIIS: error= 1.46D-03 at cycle 124 NSaved=   7.
 NSaved= 7 IEnMin= 1 EnMin= -189.726506321033     IErMin= 3 ErrMin= 9.69D-04
 ErrMax= 1.46D-03  0.00D+00 EMaxC= 1.00D-01 BMatC= 2.56D-04 BMatP= 5.54D-05
 IDIUse=3 WtCom= 9.91D-01 WtEn= 8.87D-03
 Coeff-Com: -0.197D+01 0.149D+01 0.400D+00-0.186D+00 0.113D+01-0.334D+01
 Coeff-Com:  0.348D+01
 Coeff-En:   0.000D+00 0.000D+00 0.000D+00 0.000D+00 0.000D+00 0.000D+00
 Coeff-En:   0.100D+01
 Coeff:     -0.196D+01 0.148D+01 0.397D+00-0.185D+00 0.112D+01-0.331D+01
 Coeff:      0.346D+01
 Gap=     0.347 Goal=   None    Shift=    0.000
 Gap=     0.418 Goal=   None    Shift=    0.000
 RMSDP=5.80D-05 MaxDP=3.99D-03 DE=-3.85D-04 OVMax= 4.06D-03

 Cycle 125  Pass 1  IDiag  1:
 Density matrix breaks symmetry, PCut= 1.00D-07
 Density matrix has no symmetry -- integrals replicated.
 RMSU=  1.02D-05    CP:  1.00D+00  1.21D-01  1.03D+00  1.73D+00
 E= -189.724219523996     Delta-E=       -0.000091786388 Rises=F Damp=F
 DIIS: error= 1.41D-03 at cycle 125 NSaved=   8.
 NSaved= 8 IEnMin= 1 EnMin= -189.726506321033     IErMin= 3 ErrMin= 9.69D-04
 ErrMax= 1.41D-03  0.00D+00 EMaxC= 1.00D-01 BMatC= 2.18D-04 BMatP= 5.54D-05
 IDIUse=3 WtCom= 9.91D-01 WtEn= 8.87D-03
 Coeff-Com: -0.187D+01 0.146D+01 0.362D+00-0.206D+00 0.108D+01-0.333D+01
 Coeff-Com:  0.313D+01 0.373D+00
 Coeff-En:   0.000D+00 0.000D+00 0.000D+00 0.000D+00 0.000D+00 0.000D+00
 Coeff-En:   0.000D+00 0.100D+01
 Coeff:     -0.186D+01 0.144D+01 0.358D+00-0.204D+00 0.107D+01-0.330D+01
 Coeff:      0.310D+01 0.378D+00
 Gap=     0.347 Goal=   None    Shift=    0.000
 Gap=     0.417 Goal=   None    Shift=    0.000
 RMSDP=8.50D-05 MaxDP=5.03D-03 DE=-9.18D-05 OVMax= 6.24D-03

 Cycle 126  Pass 1  IDiag  1:
 Density matrix breaks symmetry, PCut= 1.00D-07
 Density matrix has no symmetry -- integrals replicated.
 RMSU=  1.67D-06    CP:  1.00D+00  1.70D-01  1.04D+00  2.04D+00  1.23D+00
 E= -189.724344272920     Delta-E=       -0.000124748925 Rises=F Damp=F
 DIIS: error= 1.35D-03 at cycle 126 NSaved=   9.
 NSaved= 9 IEnMin= 1 EnMin= -189.726506321033     IErMin= 3 ErrMin= 9.69D-04
 ErrMax= 1.35D-03  0.00D+00 EMaxC= 1.00D-01 BMatC= 1.97D-04 BMatP= 5.54D-05
 IDIUse=3 WtCom= 9.91D-01 WtEn= 8.87D-03
 Coeff-Com: -0.195D+01 0.145D+01 0.393D+00-0.304D+00 0.118D+01-0.257D+01
 Coeff-Com:  0.256D+01-0.161D+01 0.186D+01
 Coeff-En:   0.000D+00 0.000D+00 0.000D+00 0.000D+00 0.000D+00 0.000D+00
 Coeff-En:   0.000D+00 0.000D+00 0.100D+01
 Coeff:     -0.193D+01 0.144D+01 0.390D+00-0.302D+00 0.117D+01-0.255D+01
 Coeff:      0.253D+01-0.160D+01 0.185D+01
 Gap=     0.347 Goal=   None    Shift=    0.000
 Gap=     0.417 Goal=   None    Shift=    0.000
 RMSDP=1.29D-05 MaxDP=7.05D-04 DE=-1.25D-04 OVMax= 1.15D-03

 Cycle 127  Pass 1  IDiag  1:
 Density matrix breaks symmetry, PCut= 1.00D-07
 Density matrix has no symmetry -- integrals replicated.
 RMSU=  1.04D-06    CP:  1.00D+00  1.77D-01  1.07D+00  2.19D+00  1.43D+00
                    CP:  1.21D+00
 E= -189.724364488854     Delta-E=       -0.000020215933 Rises=F Damp=F
 DIIS: error= 1.34D-03 at cycle 127 NSaved=  10.
 NSaved=10 IEnMin= 1 EnMin= -189.726506321033     IErMin= 3 ErrMin= 9.69D-04
 ErrMax= 1.34D-03  0.00D+00 EMaxC= 1.00D-01 BMatC= 1.95D-04 BMatP= 5.54D-05
 IDIUse=3 WtCom= 9.91D-01 WtEn= 8.87D-03
 Coeff-Com: -0.177D+01 0.135D+01 0.403D+00-0.194D+00 0.102D+01-0.301D+01
 Coeff-Com:  0.320D+01-0.111D+01-0.197D+01 0.307D+01
 Coeff-En:   0.000D+00 0.000D+00 0.000D+00 0.000D+00 0.000D+00 0.000D+00
 Coeff-En:   0.000D+00 0.000D+00 0.000D+00 0.100D+01
 Coeff:     -0.176D+01 0.134D+01 0.399D+00-0.192D+00 0.101D+01-0.298D+01
 Coeff:      0.317D+01-0.110D+01-0.195D+01 0.305D+01
 Gap=     0.346 Goal=   None    Shift=    0.000
 Gap=     0.417 Goal=   None    Shift=    0.000
 RMSDP=9.98D-05 MaxDP=5.82D-03 DE=-2.02D-05 OVMax= 7.56D-03

 Cycle 128  Pass 1  IDiag  1:
 Density matrix breaks symmetry, PCut= 1.00D-07
 Density matrix has no symmetry -- integrals replicated.
 RMSU=  9.37D-07    CP:  1.00D+00  2.34D-01  1.08D+00  2.49D+00  1.65D+00
                    CP:  2.32D+00  1.86D+00
 E= -189.724505471609     Delta-E=       -0.000140982756 Rises=F Damp=F
 DIIS: error= 1.28D-03 at cycle 128 NSaved=  11.
 NSaved=11 IEnMin= 1 EnMin= -189.726506321033     IErMin= 3 ErrMin= 9.69D-04
 ErrMax= 1.28D-03  0.00D+00 EMaxC= 1.00D-01 BMatC= 1.74D-04 BMatP= 5.54D-05
 IDIUse=3 WtCom= 9.91D-01 WtEn= 8.87D-03
 Large coefficients: NSaved= 11 BigCof=   12.34 CofMax=   10.00 Det=-7.63D-10
 Inversion failed.  Reducing to 10 matrices.
 Large coefficients: NSaved= 10 BigCof=   10.62 CofMax=   10.00 Det=-7.89D-10
 Inversion failed.  Reducing to  9 matrices.
 Large coefficients: NSaved=  9 BigCof=   11.77 CofMax=   10.00 Det=-1.08D-09
 Inversion failed.  Reducing to  8 matrices.
 Large coefficients: NSaved=  8 BigCof=   15.65 CofMax=   10.00 Det=-1.91D-09
 Inversion failed.  Reducing to  7 matrices.
 Large coefficients: NSaved=  7 BigCof=   20.22 CofMax=   10.00 Det=-3.71D-09
 Inversion failed.  Reducing to  6 matrices.
 Large coefficients: NSaved=  6 BigCof=   12.50 CofMax=   10.00 Det=-7.96D-08
 Inversion failed.  Reducing to  5 matrices.
 Large coefficients: NSaved=  5 BigCof=   16.25 CofMax=   10.00 Det=-1.50D-07
 Inversion failed.  Reducing to  4 matrices.
 Large coefficients: NSaved=  4 BigCof=   16.39 CofMax=   10.00 Det=-1.90D-07
 Inversion failed.  Reducing to  3 matrices.
 Large coefficients: NSaved=  3 BigCof=   17.05 CofMax=   10.00 Det=-2.24D-07
 Inversion failed.  Reducing to  2 matrices.
 Large coefficients: NSaved=  2 BigCof=   17.02 CofMax=   10.00 Det=-6.58D-07
 Coeff-Com: -0.160D+02 0.170D+02
 Coeff-En:   0.000D+00 0.100D+01
 Coeff:     -0.159D+02 0.169D+02
 Gap=     0.336 Goal=   None    Shift=    0.000
 Gap=     0.408 Goal=   None    Shift=    0.000
 RMSDP=1.58D-03 MaxDP=9.23D-02 DE=-1.41D-04 OVMax= 1.28D-01

 >>>>>>>>>> Convergence criterion not met.
 SCF Done:  E(UHF) =  -189.724505472     A.U. after  129 cycles
            NFock=128  Conv=0.16D-02     -V/T= 2.0008
 <Sx>= 0.0000 <Sy>= 0.0000 <Sz>= 0.5000 <S**2>= 1.0221 S= 0.6279
 <L.S>= 0.000000000000E+00
 KE= 1.895662209358D+02 PE=-6.452491830695D+02 EE= 1.640047771078D+02
 Annihilation of the first spin contaminant:
 S**2 before annihilation     1.0221,   after     0.8063
 Leave Link  502 at Mon Sep 28 17:17:52 2020, MaxMem=   327680000 cpu:            2632.8 elap:             333.5
 (Enter /applis/site/cecic/gaussian16/B.01/nehalem/g16/l801.exe)
 Windowed orbitals will be sorted by symmetry type.
 SCFChk:  SCF convergence  1.58D-03 required  1.00D-08


 SCF Error SCF Error SCF Error SCF Error SCF Error SCF Error SCF Error SCF Error

                                    ERROR!!!!

    SCF has not converged.  Gradients and post-SCF results would be GARBAGE!!

 SCF Error SCF Error SCF Error SCF Error SCF Error SCF Error SCF Error SCF Error


 Error termination via Lnk1e in /applis/site/cecic/gaussian16/B.01/nehalem/g16/l801.exe at Mon Sep 28 17:17:52 2020.
 Job cpu time:       0 days  0 hours 44 minutes  3.8 seconds.
 Elapsed time:       0 days  0 hours  5 minutes 35.4 seconds.
 File lengths (MBytes):  RWF=     70 Int=      0 D2E=      0 Chk=      6 Scr=      1
