[Molden Format]
[Title]
[Atoms] AU
C      1     6  0.14913952913664E+01 -0.25611201123512E+00  0.72195077290392E-01
O      2     8 -0.50828081443092E+00  0.13988369597802E+01 -0.25381452177865E-01
N      3     7 -0.98311447693548E+00 -0.11427249485451E+01 -0.46813625112528E-01
[GTO]
           1 0
 s           4   1.0000000000000000     
   51.049363095579913      -0.16312063210127389     
   8.7911227406887544      -0.19911024581000730     
  0.70640422258929825       0.31882047753655751     
  0.26922813413411617       0.12706504184240380     
 p           4   1.0000000000000000     
   5.8263656140800002       0.73716451545209605     
   1.5106896018720002       0.68216371614850257     
  0.53256483288000001       0.35783053929253711     
  0.21202323690600003        5.3983030275847881E-002

           2 0
 s           4   1.0000000000000000     
   69.137961906196551      -0.20478756370077797     
   11.906129132707308      -0.24997023136827334     
  0.95670827744340703       0.40025880240639616     
  0.36462520496073686       0.15952206667693555     
 p           4   1.0000000000000000     
   8.2124193257781641        1.1321556799186829     
   2.1293576997098116        1.0476840782254817     
  0.75066448202360914       0.54956508217158984     
  0.29885246543283073        8.2908486592766617E-002

           3 0
 s           4   1.0000000000000000     
   63.594024466941008      -0.19234388414721629     
   10.951417231523665      -0.23478107924953728     
  0.87999310257376984       0.37593753901700888     
  0.33538715296521110       0.14982889271862770     
 p           4   1.0000000000000000     
   7.2965040481495080       0.97658666315667420     
   1.8918745450712575       0.90372226730345739     
  0.66694432110824120       0.47404958461536373     
  0.26552202674130870        7.1516067715011844E-002

[MO]
Sym=     1a
Ene=  -0.81299485530357363     
Spin= Alpha
Occup=     2.00000000
           1  0.20629522709897324     
           2 -0.15383374478076078     
           3   6.7972910879288501E-002
           4  -7.4713517144570085E-003
           5  0.59832547112621481     
           6   6.0878746859457676E-002
           7 -0.21222956566233869     
           8   3.0665168150057613E-003
           9  0.24369565936993934     
          10   8.9420111076017869E-002
          11  0.21562227521774804     
          12   4.1918410067985426E-003
Sym=     2a
Ene=  -0.70014046651443440     
Spin= Alpha
Occup=     2.00000000
           1 -0.19844568391116862     
           2  0.10240797585986756     
           3  0.15506242449235100     
           4   4.8551026170124585E-003
           5  0.66128274658358177     
           6  -6.8848809701322150E-002
           7  0.46334062016388372     
           8  -3.6001785384820700E-003
           9 -0.36790750295579083     
          10 -0.15503359397856081     
          11  -8.5361302772696539E-004
          12  -7.4885402780498645E-003
Sym=     3a
Ene=  -0.67234329538948889     
Spin= Alpha
Occup=     2.00000000
           1 -0.35055037118663773     
           2   4.6075525244522892E-006
           3 -0.16506128155237562     
           4   9.7977876158252491E-005
           5   6.6365168101185257E-002
           6 -0.66165780971232524     
           7 -0.14149888424110552     
           8  -3.1878264075337115E-002
           9  0.27390790678047150     
          10 -0.24412629578291908     
          11  0.18783162802774747     
          12  -1.1904007322802997E-002
Sym=     4a
Ene=  -0.63226790975091851     
Spin= Alpha
Occup=     2.00000000
           1   5.0516166691759464E-009
           2  -1.5173951248796677E-002
           3   1.8602091196437312E-004
           4  0.31412122805569809     
           5  -3.8562811246477107E-008
           6  -3.5045955091283561E-002
           7   4.2963535311590911E-004
           8  0.72549859860322441     
           9   1.7311137725512679E-009
          10  -2.0440977326392062E-002
          11   2.5059905625447737E-004
          12  0.42315587824712875     
Sym=     5a
Ene=  -0.56208948016227733     
Spin= Alpha
Occup=     2.00000000
           1 -0.12444416749011120     
           2   4.9290018218941689E-002
           3  0.34033764898534746     
           4   2.1794511745828016E-003
           5 -0.21566607112810238     
           6  0.11246652408736102     
           7 -0.49089335365796116     
           8   5.7235127840758121E-003
           9 -0.46247931385393554     
          10 -0.19045442315570232     
          11  0.48719573940594818     
          12  -9.4886151718580961E-003
Sym=     6a
Ene=  -0.51246339192374424     
Spin= Alpha
Occup=     2.00000000
           1 -0.33211595203671257     
           2 -0.13520910324072463     
           3  0.37192761606259900     
           4  -6.7516744721566151E-003
           5  -5.8632701787571705E-002
           6  0.39354445357139722     
           7   3.2767808205670323E-003
           8   1.9008641142242856E-002
           9  0.52936686286504298     
          10 -0.48439101647111782     
          11 -0.25454747311748133     
          12  -2.3248272156969691E-002
Sym=     7a
Ene=  -0.46454535308525602     
Spin= Alpha
Occup=     1.00000000
           1 -0.64630087907263212     
           2 -0.61902433073592433     
           3  -6.9510081510777380E-002
           4  -2.9861445852809410E-002
           5   3.6355362854821622E-003
           6  0.11638420621777104     
           7   2.3829546466351110E-003
           8   5.6206444263142662E-003
           9 -0.19393858156519980     
          10  0.42050937164979713     
          11  -9.4547588163576852E-003
          12   2.0318744132899920E-002
Sym=     8a
Ene=  -0.42995704565795945     
Spin= Alpha
Occup=     1.00000000
           1  -3.2606302317246436E-009
           2   1.0587210801627544E-002
           3  -1.2979619746599229E-004
           4 -0.21916949586655377     
           5  -9.2383326289422041E-009
           6  -3.2534355111622178E-002
           7   3.9885090617331013E-004
           8  0.67350487145528393     
           9  -1.2669311467916137E-008
          10   3.8195018405932847E-002
          11  -4.6825322030489647E-004
          12 -0.79068816766743033     
Sym=     9a
Ene=  -0.33824418736156664     
Spin= Alpha
Occup=     1.00000000
           1  -2.4544941558392180E-009
           2   4.5744633540004458E-002
           3  -5.6081511834984239E-004
           4 -0.94697550304362099     
           5  -4.2471256953281462E-009
           6  -1.1228406756728969E-002
           7   1.3765905627884120E-004
           8  0.23244315086878883     
           9   2.6988812800684223E-009
          10  -2.3304638483893990E-002
          11   2.8570626672689680E-004
          12  0.48243731821596914     
Sym=    10a
Ene=  -0.15239631520861474     
Spin= Alpha
Occup=     0.00000000
           1  -6.1017882852913837E-004
           2 -0.11250044772321476     
           3 -0.71495302267610983     
           4  -5.0110429576040762E-003
           5  -8.2747699402919650E-002
           6  0.55880212818031705     
           7  0.38322287838911429     
           8   2.6766566443790468E-002
           9   6.3831824647485186E-002
          10 -0.43549151374827189     
          11  0.64432665732736294     
          12  -2.1418454793445760E-002
Sym=    11a
Ene=   -1.0477378897879164E-002
Spin= Alpha
Occup=     0.00000000
           1   6.4066545816992670E-002
           2  -1.4617959158260495E-002
           3  0.59003683782066452     
           4  -1.0555652688093188E-003
           5 -0.58406062893778921     
           6 -0.22192599690480261     
           7  0.73603813389997597     
           8  -1.1156259464907958E-002
           9  0.52012197329660592     
          10  0.38999215134589199     
          11  0.63198372140734149     
          12   1.8464703179332371E-002
Sym=    12a
Ene=   0.20847649422727396     
Spin= Alpha
Occup=     0.00000000
           1 -0.75852595717146898     
           2  0.97028039873056948     
           3 -0.12129479113000717     
           4   4.6942235934453666E-002
           5  0.32074504489733030     
           6  0.44050571343419676     
           7 -0.21595657201287621     
           8   2.1406978828822337E-002
           9  0.47804744293401719     
          10  0.60623459053217454     
          11  0.18265999161197546     
          12   2.9176618701272826E-002
