3
 energy: -8.748331935107 gnorm: 0.051013037279 xtb: 6.2.2 (9d81278992624c895f80dd42a50cac0aa55982e2)
C         0.80188200000000   -0.11596800000000    0.03880700000000
O        -0.25535900000000    0.73484900000000   -0.01277000000000
N        -0.54652300000000   -0.61888100000000   -0.02603700000000
3
 energy: -8.749989106141 gnorm: 0.020786151702 xtb: 6.2.2 (9d81278992624c895f80dd42a50cac0aa55982e2)
C         0.79160637603316   -0.12706490872544    0.03831713892704
O        -0.26169225440272    0.73904548669235   -0.01307843348279
N        -0.52991412163044   -0.61198057796691   -0.02523870544425
3
 energy: -8.750292053926 gnorm: 0.005415069811 xtb: 6.2.2 (9d81278992624c895f80dd42a50cac0aa55982e2)
C         0.78624498737720   -0.13535713517573    0.03806302693553
O        -0.26747143454200    0.74131746407840   -0.01335896400511
N        -0.51877355283520   -0.60596032890267   -0.02470406293042
3
 energy: -8.750307639128 gnorm: 0.002177148234 xtb: 6.2.2 (9d81278992624c895f80dd42a50cac0aa55982e2)
C         0.78802786431968   -0.13510008109177    0.03814900518777
O        -0.26801013645540    0.74070187299728   -0.01338462511377
N        -0.52001772786428   -0.60560179190551   -0.02476438007401
3
 energy: -8.750311996158 gnorm: 0.000444761250 xtb: 6.2.2 (9d81278992624c895f80dd42a50cac0aa55982e2)
C         0.78921305011582   -0.13552458673293    0.03820651152453
O        -0.26897447765117    0.74023132466857   -0.01343093426907
N        -0.52023857246465   -0.60470673793564   -0.02477557725546
