$hessian                                                                        
        0.5988653432  -0.0334539289   0.0289486262  -0.2066612372   0.1863842299
       -0.0100933666  -0.3922041060  -0.1529303010  -0.0188552596
       -0.0334539289   0.2018816312  -0.0017355851   0.1740998893  -0.1826599810
        0.0085182512  -0.1406459604  -0.0192216503  -0.0067826662
        0.0289486262  -0.0017355851   0.0013994214  -0.0100860916   0.0091116591
       -0.0004926153  -0.0188625346  -0.0073760740  -0.0009068061
       -0.2066612372   0.1740998893  -0.0100860916   0.2146792307  -0.1440922443
        0.0104556380  -0.0080179935  -0.0300076450  -0.0003695464
        0.1863842299  -0.1826599810   0.0091116591  -0.1440922443   0.5286592697
       -0.0072736081  -0.0422919856  -0.3459992888  -0.0018380510
       -0.0100933666   0.0085182512  -0.0004926153   0.0104556380  -0.0072736081
        0.0005093781  -0.0003622714  -0.0012446431  -0.0000167628
       -0.3922041060  -0.1406459604  -0.0188625346  -0.0080179935  -0.0422919856
       -0.0003622714   0.4002220995   0.1829379460   0.0192248060
       -0.1529303010  -0.0192216503  -0.0073760740  -0.0300076450  -0.3459992888
       -0.0012446431   0.1829379460   0.3652209390   0.0086207172
       -0.0188552596  -0.0067826662  -0.0009068061  -0.0003695464  -0.0018380510
       -0.0000167628   0.0192248060   0.0086207172   0.0009235689
