 Entering Gaussian System
 *********************************************
 Gaussian 98:
 frequency output generated by the xtb code
 *********************************************
                         Standard orientation:
 --------------------------------------------------------------------
  Center     Atomic     Atomic              Coordinates (Angstroms)
  Number     Number      Type              X           Y           Z
 --------------------------------------------------------------------
    1          6             0       -0.749109   -0.794717    0.221528
    2          6             0       -0.135991    0.375155    0.909784
    3          6             0        0.770055    0.736959   -0.215556
    4          6             0       -0.594827    0.388667   -0.637637
    5          6             0        0.709874   -0.706065    0.060811
 --------------------------------------------------------------------
     1 basis functions        1 primitive gaussians
     1 alpha electrons        1 beta electrons

 Harmonic frequencies (cm**-1), IR intensities (KM/Mole),
 Raman scattering activities (A**4/amu), Raman depolarization ratios,
 reduced masses (AMU), force constants (mDyne/A) and normal coordinates:
                      1                      2                      3
                        a                      a                      a 
 Frequencies --    76.5021               323.1766               615.4923
 Red. masses --    12.0107                12.0107                12.0107
 Frc consts  --     0.0000                 0.0000                 0.0000
 IR Inten    --     1.5111                 0.1643                 0.5155
 Raman Activ --     0.0000                 0.0000                 0.0000
 Depolar     --     0.0000                 0.0000                 0.0000
 Atom AN      X      Y      Z        X      Y      Z        X      Y      Z
   1   6    -0.35   0.29  -0.18    -0.04   0.21   0.42     0.10  -0.12  -0.37
   2   6     0.40  -0.34   0.21    -0.01   0.03   0.06     0.43   0.44  -0.12
   3   6    -0.35   0.29  -0.19    -0.09   0.17   0.43    -0.02   0.20   0.35
   4   6     0.18  -0.22  -0.13     0.17  -0.29  -0.40    -0.26  -0.26   0.07
   5   6     0.11  -0.03   0.29    -0.03  -0.12  -0.51    -0.26  -0.26   0.08
                      4                      5                      6
                        a                      a                      a 
 Frequencies --   794.5293               908.6364               938.3310
 Red. masses --    12.0107                12.0107                12.0107
 Frc consts  --     0.0000                 0.0000                 0.0000
 IR Inten    --     0.3071                 0.0488                 0.6992
 Raman Activ --     0.0000                 0.0000                 0.0000
 Depolar     --     0.0000                 0.0000                 0.0000
 Atom AN      X      Y      Z        X      Y      Z        X      Y      Z
   1   6    -0.26  -0.29   0.02     0.32  -0.27   0.17     0.26   0.11  -0.29
   2   6     0.00  -0.01  -0.02     0.00  -0.00  -0.01    -0.11   0.30   0.67
   3   6     0.28   0.24  -0.13    -0.32   0.27  -0.17    -0.18  -0.32  -0.17
   4   6     0.40  -0.32   0.29     0.37   0.38  -0.11     0.17  -0.17  -0.03
   5   6    -0.42   0.38  -0.15    -0.37  -0.38   0.11    -0.13   0.08  -0.18
                      7                      8                      9
                        a                      a                      a 
 Frequencies --  1020.8135              1271.2099              1407.7776
 Red. masses --    12.0107                12.0107                12.0107
 Frc consts  --     0.0000                 0.0000                 0.0000
 IR Inten    --     1.2594                 1.2549                 0.2281
 Raman Activ --     0.0000                 0.0000                 0.0000
 Depolar     --     0.0000                 0.0000                 0.0000
 Atom AN      X      Y      Z        X      Y      Z        X      Y      Z
   1   6     0.17  -0.14   0.09     0.36   0.41  -0.03     0.33   0.38  -0.03
   2   6     0.30  -0.25   0.16    -0.28  -0.28   0.08     0.07  -0.20  -0.44
   3   6     0.17  -0.14   0.09     0.39   0.34  -0.19    -0.36  -0.32   0.17
   4   6    -0.26   0.11  -0.52    -0.23  -0.24   0.07     0.20  -0.12   0.27
   5   6    -0.38   0.42   0.18    -0.24  -0.24   0.07    -0.24   0.25   0.03
