[Molden Format]
[Title]
[Atoms] AU
C      1     6 -0.14156106322201E+01 -0.15017965649707E+01  0.41862665076542E+00
C      2     6 -0.25698552352145E+00  0.70893995014274E+00  0.17192417215884E+01
C      3     6  0.14551924757444E+01  0.13926514460262E+01 -0.40734246162737E+00
C      4     6 -0.11240608411841E+01  0.73447362248589E+00 -0.12049592228051E+01
C      5     6  0.13414667568844E+01 -0.13342692255682E+01  0.11491623834640E+00
[GTO]
           1 0
 s           4   1.0000000000000000     
   51.049363095579913      -0.16312063210127389     
   8.7911227406887544      -0.19911024581000730     
  0.70640422258929825       0.31882047753655751     
  0.26922813413411617       0.12706504184240380     
 p           4   1.0000000000000000     
   5.8263656140800002       0.73716451545209605     
   1.5106896018720002       0.68216371614850257     
  0.53256483288000001       0.35783053929253711     
  0.21202323690600003        5.3983030275847881E-002

           2 0
 s           4   1.0000000000000000     
   51.049363095579913      -0.16312063210127389     
   8.7911227406887544      -0.19911024581000730     
  0.70640422258929825       0.31882047753655751     
  0.26922813413411617       0.12706504184240380     
 p           4   1.0000000000000000     
   5.8263656140800002       0.73716451545209605     
   1.5106896018720002       0.68216371614850257     
  0.53256483288000001       0.35783053929253711     
  0.21202323690600003        5.3983030275847881E-002

           3 0
 s           4   1.0000000000000000     
   51.049363095579913      -0.16312063210127389     
   8.7911227406887544      -0.19911024581000730     
  0.70640422258929825       0.31882047753655751     
  0.26922813413411617       0.12706504184240380     
 p           4   1.0000000000000000     
   5.8263656140800002       0.73716451545209605     
   1.5106896018720002       0.68216371614850257     
  0.53256483288000001       0.35783053929253711     
  0.21202323690600003        5.3983030275847881E-002

           4 0
 s           4   1.0000000000000000     
   51.049363095579913      -0.16312063210127389     
   8.7911227406887544      -0.19911024581000730     
  0.70640422258929825       0.31882047753655751     
  0.26922813413411617       0.12706504184240380     
 p           4   1.0000000000000000     
   5.8263656140800002       0.73716451545209605     
   1.5106896018720002       0.68216371614850257     
  0.53256483288000001       0.35783053929253711     
  0.21202323690600003        5.3983030275847881E-002

           5 0
 s           4   1.0000000000000000     
   51.049363095579913      -0.16312063210127389     
   8.7911227406887544      -0.19911024581000730     
  0.70640422258929825       0.31882047753655751     
  0.26922813413411617       0.12706504184240380     
 p           4   1.0000000000000000     
   5.8263656140800002       0.73716451545209605     
   1.5106896018720002       0.68216371614850257     
  0.53256483288000001       0.35783053929253711     
  0.21202323690600003        5.3983030275847881E-002

[MO]
Sym=     1a
Ene=  -0.76535711999848222     
Spin= Alpha
Occup=     2.00000000
           1  0.23884957462948919     
           2   8.7483198536219095E-002
           3   9.6168197197787006E-002
           4  -1.2689029806702633E-002
           5  0.28613333115361106     
           6   2.3064920126633439E-002
           7  -6.3629658370423781E-002
           8 -0.14281148774755423     
           9  0.23884940911116814     
          10  -9.1712215055950605E-002
          11  -8.4503138168819006E-002
          12   3.8867889960028115E-002
          13  0.25882667144677035     
          14   7.3951895112695898E-002
          15  -4.5813820272342438E-002
          16   9.6487564855470609E-002
          17  0.25882836595255726     
          18  -9.0868621491703883E-002
          19   9.2481790156772423E-002
          20   8.2544488528458210E-003
Sym=     2a
Ene=  -0.65886345726905204     
Spin= Alpha
Occup=     2.00000000
           1 -0.43998418413472118     
           2  -1.9057310336367660E-002
           3  -3.5582221055091443E-002
           4  -2.0172965379828375E-002
           5  -3.0137489295889997E-007
           6  0.21558676030110124     
           7  0.21736244779679970     
           8  -6.2027273999640579E-002
           9  0.43998437191941137     
          10  -2.7747134671433766E-002
          11  -1.1607737125061189E-002
          12   3.3638936749430720E-002
          13   2.7691496344570520E-007
          14  0.17777488304608935     
          15  0.17923893567609037     
          16  -5.1148268862449511E-002
          17   1.1710315209423696E-007
          18  0.17778020602954434     
          19  0.17924447511909922     
          20  -5.1149914398167538E-002
Sym=     3a
Ene=  -0.64068426453398053     
Spin= Alpha
Occup=     2.00000000
           1   6.5666327796323875E-006
           2  0.19098277868497418     
           3 -0.16024601853359152     
           4  0.10222994734368494     
           5  -2.2971734848114837E-005
           6  0.22477627188307842     
           7 -0.18860131982083639     
           8  0.12033311647784001     
           9   6.6961325855478347E-006
          10  0.19097877697933277     
          11 -0.16024967006891333     
          12  0.10223094983527249     
          13 -0.44376747718245274     
          14   5.7391693371299929E-002
          15  -7.3815417098250069E-002
          16  -5.9197430987902637E-002
          17  0.44377965735522362     
          18   3.0659432546191630E-002
          19  -6.9053110927287081E-005
          20  0.10632049099185313     
Sym=     4a
Ene=  -0.61895239395334900     
Spin= Alpha
Occup=     2.00000000
           1   5.2785052428049269E-002
           2   5.4539719688805798E-002
           3 -0.10390332023130811     
           4 -0.26475789188109117     
           5 -0.52410118736018096     
           6   1.4518143459401158E-002
           7  -4.0073712042534168E-002
           8  -8.9969707924866887E-002
           9   5.2784431331092632E-002
          10   2.9812534548823575E-002
          11 -0.12883395262666367     
          12 -0.25764326933844467     
          13  0.23176496591965171     
          14   9.1078281057285965E-002
          15 -0.14440571078153683     
          16 -0.18948185938668682     
          17  0.23173754953184622     
          18  -2.0255677793672006E-002
          19  -5.0991633580242786E-002
          20 -0.24909137868239151     
Sym=     5a
Ene=  -0.53144021394205898     
Spin= Alpha
Occup=     2.00000000
           1   9.3139650548027879E-006
           2  0.30598428989726806     
           3 -0.25675428335484046     
           4  0.16376221854458950     
           5  -8.2552624788217786E-009
           6   3.8714735467825092E-005
           7   3.8874297711483701E-005
           8  -1.1040895352851231E-005
           9  -9.0416908298490945E-006
          10 -0.30598558667161385     
          11  0.25675329196272328     
          12 -0.16376197336671616     
          13   2.3877712839093168E-007
          14  0.28547019443027588     
          15  0.28782149560686215     
          16  -8.2133782759089405E-002
          17  -3.4430329480918880E-007
          18 -0.28549852735846698     
          19 -0.28784976233394843     
          20   8.2141829025388455E-002
Sym=     6a
Ene=  -0.51072893449031409     
Spin= Alpha
Occup=     2.00000000
           1  -9.3617856119599871E-002
           2  -4.7663921736748736E-002
           3  0.20234293267794104     
           4  0.40630184388327156     
           5  -7.2170540470519328E-008
           6 -0.34138211171879634     
           7 -0.34419383302093604     
           8   9.8220388426924543E-002
           9   9.3618899599134858E-002
          10   8.5245198103677464E-002
          11 -0.16445221893179790     
          12 -0.41711470189945582     
          13  -2.3008634811078480E-009
          14  0.15824918243483180     
          15  0.15955229220340753     
          16  -4.5530671771217460E-002
          17  -3.7354009229464254E-008
          18  0.15818972336601111     
          19  0.15949255781312360     
          20  -4.5513551990391594E-002
Sym=     7a
Ene=  -0.49098663748314680     
Spin= Alpha
Occup=     2.00000000
           1  0.51549724448828493     
           2 -0.25227164293933863     
           3 -0.25162270995624819     
           4   7.6841755007066151E-002
           5 -0.12071470910512037     
           6   7.5726194947075181E-003
           7  -2.0864938162864392E-002
           8  -4.6798563743515015E-002
           9  0.51549743988829122     
          10  0.25082018457012245     
          11  0.25561295925240107     
          12  -6.7903635073984614E-002
          13 -0.28081828607790638     
          14  0.12244142730967164     
          15  -9.7622546167828367E-002
          16   8.3469428789834918E-002
          17 -0.28084063636493245     
          18 -0.12778068672816628     
          19  0.11233772747256789     
          20  -5.0458152839930062E-002
Sym=     8a
Ene=  -0.47030748039574333     
Spin= Alpha
Occup=     1.99996366
           1  -5.2779462083253230E-005
           2  -1.4519670149571015E-002
           3   1.2252860981933476E-002
           4  -7.7981266708920761E-003
           5  -3.8176705342452016E-005
           6  0.36846611726334644     
           7 -0.30918096022723401     
           8  0.19720502030240261     
           9  -5.2786968869312198E-005
          10  -1.4593468643480998E-002
          11   1.2177996739066966E-002
          12  -7.7766250279639381E-003
          13  0.34443150212948820     
          14  -6.9367696289757641E-002
          15  -6.2370325940618504E-002
          16 -0.45966340511805459     
          17 -0.34454149066794115     
          18 -0.19508058784705409     
          19  0.28426415491736745     
          20  0.31811018867021784     
Sym=     9a
Ene=  -0.46505855507276350     
Spin= Alpha
Occup=     1.99096566
           1  0.20710258473333676     
           2 -0.16692313673810885     
           3 -0.14422000432246623     
           4   8.5777390367983680E-002
           5   3.5463571032549615E-002
           6  -1.5834754401610935E-002
           7   4.3791627728833445E-002
           8   9.8422296103230986E-002
           9  0.20710269450868229     
          10  0.15414302121289794     
          11  0.17949073466254412     
          12  -6.5973338452777804E-003
          13  0.39024910973360771     
          14 -0.33940206199070455     
          15  0.28562432482590011     
          16 -0.17873690505277093     
          17  0.39012192275827851     
          18  0.33845415563874293     
          19 -0.28310034151318908     
          20  0.18428810416796562     
Sym=    10a
Ene=  -0.45613647387598499     
Spin= Alpha
Occup=     1.00907068
           1   4.5828532360296763E-002
           2   1.1288456888751642E-003
           3  -7.1567756753824222E-002
           4 -0.11429061980007982     
           5  0.54743401705115990     
           6  -9.8355920909381833E-002
           7  0.27138582668262917     
           8  0.60916441646798936     
           9   4.5828389860777925E-002
          10   3.7469380825668960E-002
          11  -3.4927746646442090E-002
          12 -0.12474595083209730     
          13   2.0383647126551791E-002
          14  0.12981880482274852     
          15 -0.19207933886258713     
          16 -0.22189583772594348     
          17   2.0350456454381431E-002
          18  -4.3213929207322588E-002
          19  -4.6881994391081934E-002
          20 -0.31448621439356300     
Sym=    11a
Ene=  -0.40759038281690557     
Spin= Alpha
Occup=     1.00000000
           1  0.32093795641163181     
           2 -0.42224991237464521     
           3 -0.40203785905011374     
           4  0.15862015446772057     
           5  -1.0894750800677755E-007
           6   9.1864474952876071E-002
           7   9.2621046713520228E-002
           8  -2.6430722304279237E-002
           9 -0.32093771841591645     
          10 -0.40967309256447776     
          11 -0.43673712999067016     
          12   8.0735379054931153E-002
          13  -1.6352583154350642E-008
          14  0.14778009718372290     
          15  0.14899729745012161     
          16  -4.2518236217792160E-002
          17  -4.5348323437466018E-008
          18  0.14778137329859584     
          19  0.14899857638804040     
          20  -4.2518584149074612E-002
Sym=    12a
Ene=  -0.32221903027959958     
Spin= Alpha
Occup=     0.00000000
           1   1.3307225024244085E-006
           2  0.30460018854757570     
           3 -0.25558145171312002     
           4  0.16304894037919718     
           5   5.3921657855998365E-008
           6 -0.14529632776061985     
           7  0.12191518191612062     
           8  -7.7775295193555305E-002
           9   1.3595488660019690E-006
          10  0.30459804205228097     
          11 -0.25558376036130909     
          12  0.16304954505722905     
          13  0.11646992106298219     
          14 -0.44232367272429551     
          15  0.42274466245948605     
          16  -5.5948882471561476E-002
          17 -0.11648442273249136     
          18 -0.38857726368012080     
          19  0.27444623660997031     
          20 -0.38882617766797939     
Sym=    13a
Ene=  -0.24670443921595397     
Spin= Alpha
Occup=     0.00000000
           1  -1.3190651098947967E-003
           2   7.9641134447902995E-002
           3 -0.23064092157273328     
           4 -0.51024532074126161     
           5   4.6364150968908384E-002
           6  -3.9301873326635615E-002
           7  0.10834185192694130     
           8  0.24306075887879741     
           9  -1.3191187885335989E-003
          10   8.5447971282657950E-002
          11 -0.22478672015285911     
          12 -0.51191667140680042     
          13  -3.2055963586741454E-002
          14 -0.10934273471458567     
          15  0.24981112416052809     
          16  0.49537514718127529     
          17  -3.2063618082229073E-002
          18  -5.5307156914730420E-002
          19  0.20450778918053020     
          20  0.52442870481570114     
Sym=    14a
Ene=  -0.20765002097802995     
Spin= Alpha
Occup=     0.00000000
           1   2.0475598401359091E-007
           2  0.19910547524816805     
           3 -0.16704462272711446     
           4  0.10664735757423932     
           5  -8.5517873563798641E-006
           6 -0.57651768053858388     
           7  0.48373204660192171     
           8 -0.30864557254981489     
           9   2.3627020402273329E-007
          10  0.19910450288184189     
          11 -0.16704582004134269     
          12  0.10664769443562307     
          13   5.4693732748133696E-002
          14  0.21023256607214652     
          15 -0.32541566961722979     
          16 -0.40965594998247157     
          17  -5.4688391582170440E-002
          18   5.4976017835698963E-002
          19  0.10285898501294452     
          20  0.55152952138164091     
Sym=    15a
Ene=   -3.7358504832519929E-002
Spin= Alpha
Occup=     0.00000000
           1  -2.8261717242816248E-002
           2 -0.11404263173893539     
           3  0.23265550759428927     
           4  0.57781374021098586     
           5   1.3786016030858932E-006
           6  0.56160529132222292     
           7  0.56622975889115845     
           8 -0.16158287509738714     
           9   2.8261367525018590E-002
          10   7.0490617918699566E-002
          11 -0.27656696011067228     
          12 -0.56528378821336156     
          13  -2.8383400463212665E-007
          14 -0.29334672578202864     
          15 -0.29576293130592801     
          16   8.4399040760837471E-002
          17  -5.6902586626904159E-007
          18 -0.29326844566474525     
          19 -0.29568511107695594     
          20   8.4376753579435110E-002
Sym=    16a
Ene=    5.1300609233344931E-002
Spin= Alpha
Occup=     0.00000000
           1   2.2476867179562045E-005
           2 -0.37198167128813325     
           3  0.31216086551372918     
           4 -0.19911618690969704     
           5  -6.4923352167525151E-005
           6 -0.20877533409392890     
           7  0.17519351829122351     
           8 -0.11170639484306676     
           9   2.2129803205178188E-005
          10 -0.37203140056550821     
          11  0.31213473445199447     
          12 -0.19911301559526698     
          13 -0.62672076564574886     
          14 -0.33117151074067741     
          15  0.19481166529588956     
          16 -0.46831775137549370     
          17  0.62673649702333090     
          18 -0.41768259382627387     
          19  0.43353369347653625     
          20   6.7454941456683612E-002
Sym=    17a
Ene=    5.9830812051618894E-002
Spin= Alpha
Occup=     0.00000000
           1  -3.3191965083336869E-005
           2  0.49296965251559216     
           3 -0.41368408500041853     
           4  0.26386331486750891     
           5  -2.6107135131664630E-007
           6  -6.7146390082662810E-005
           7  -7.2324043478913619E-005
           8   2.1691022346836837E-005
           9   3.3138914188827260E-005
          10 -0.49299636208056835     
          11  0.41363859263799690     
          12 -0.26384704179624197     
          13   8.6206919060147947E-006
          14 -0.50224367475635645     
          15 -0.50638761175197666     
          16  0.14451000515515003     
          17  -8.3211914533777439E-006
          18  0.50225400998725245     
          19  0.50637962454688035     
          20 -0.14450451144809143     
Sym=    18a
Ene=   0.10202894147807312     
Spin= Alpha
Occup=     0.00000000
           1   8.5278512222466268E-002
           2   1.2009327369054471E-002
           3  0.24092249863321868     
           4  0.35524664077534468     
           5 -0.83385050321197252     
           6 -0.12382575509467404     
           7  0.34164724035310184     
           8  0.76685727942888426     
           9   8.5281761137605661E-002
          10 -0.13347406309275614     
          11   9.4238863793230473E-002
          12  0.39710246241533675     
          13  0.31381898141178455     
          14  0.15389704648694061     
          15  -4.9509548719749129E-002
          16  0.36141053077390112     
          17  0.31372862947389385     
          18 -0.23678796349252720     
          19  0.27828039770852164     
          20  0.15219369056873661     
Sym=    19a
Ene=   0.21124552580042255     
Spin= Alpha
Occup=     0.00000000
           1  0.68333278485639826     
           2  0.36850983632914325     
           3  0.41594362418876979     
           4  -3.6330748848691363E-002
           5  -1.7119594362002609E-006
           6  0.38935060815628403     
           7  0.39255834952700597     
           8 -0.11201985137013196     
           9 -0.68333471088966746     
          10  0.39205486994587835     
          11  0.35088627427029462     
          12 -0.18249166694512770     
          13   2.1673819090634590E-006
          14  0.39294354220225464     
          15  0.39617803145279823     
          16 -0.11305321198747535     
          17   1.7180958281461776E-006
          18  0.39301391805719410     
          19  0.39625338162155921     
          20 -0.11307561334361521     
Sym=    20a
Ene=   0.35809860425807272     
Spin= Alpha
Occup=     0.00000000
           1 -0.60767084364446056     
           2 -0.50440527579446126     
           3 -0.48788255821506171     
           4  0.17749103101495556     
           5  0.28278702866191474     
           6   3.4593816690125595E-002
           7  -9.5436465334000367E-002
           8 -0.21419338899142090     
           9 -0.60766727933604536     
          10  0.49341404318790388     
          11  0.51815526993739502     
          12 -0.10959434131344170     
          13  0.51736733102444044     
          14  0.30896031106172572     
          15 -0.22233781800738456     
          16  0.29471259983109993     
          17  0.51743097276671679     
          18 -0.34744059930338245     
          19  0.32843248150362936     
          20  -5.6657464488054386E-002
