$hessian                                                                        
        0.2957219672   0.2107576405  -0.0269582056  -0.0331955057  -0.1155148336
       -0.0311083035  -0.0680333354  -0.0300230954  -0.0135653440   0.0026058274
       -0.0415111866   0.0218448947  -0.1970989535  -0.0237085249   0.0497869583
        0.2107576405   0.3266825445  -0.0456408261  -0.0940680415  -0.1305328829
       -0.1023148313  -0.0162947143  -0.0596932933   0.0149927577  -0.0438458348
       -0.1363515999   0.1263871862  -0.0565490499  -0.0001047684   0.0065757135
       -0.0269582056  -0.0456408261   0.0835147742   0.0021990738  -0.0623876652
       -0.0549816372   0.0084012037   0.0409200782  -0.0011613517   0.0162547410
        0.0667877177  -0.0454271755   0.0001031871   0.0003206953   0.0180553901
       -0.0331955057  -0.0940680415   0.0021990738   0.1427736122   0.0285418640
       -0.0607388079  -0.0721498814  -0.0815572072   0.0948238485  -0.0025615375
        0.0443002815  -0.0641754559  -0.0348666876   0.1027831031   0.0278913415
       -0.1155148336  -0.1305328829  -0.0623876652   0.0285418640   0.1933661836
        0.1143553573  -0.0601573410  -0.0223273023   0.0037036340   0.0445438710
        0.0172332468   0.0025570687   0.1025864396  -0.0577392451  -0.0582283948
       -0.0311083035  -0.1023148313  -0.0549816372  -0.0607388079   0.1143553573
        0.3789638788   0.1282579849   0.0436783000  -0.1243589831  -0.0636284649
        0.0020433161  -0.1534823340   0.0272175914  -0.0577621420  -0.0461409245
       -0.0680333354  -0.0162947143   0.0084012037  -0.0721498814  -0.0601573410
        0.1282579849   0.3124788478   0.1963304069  -0.0810388175  -0.1755815088
       -0.0768354568  -0.0687600648   0.0032858777  -0.0430428949   0.0131396937
       -0.0300230954  -0.0596932933   0.0409200782  -0.0815572072  -0.0223273023
        0.0436783000   0.1963304069   0.2803629826  -0.0911213129  -0.0600004976
       -0.0070940036  -0.0120443293  -0.0247496067  -0.1912483834   0.0185672640
       -0.0135653440   0.0149927577  -0.0011613517   0.0948238485   0.0037036340
       -0.1243589831  -0.0810388175  -0.0911213129   0.1132685186  -0.0119271615
       -0.0032349988   0.0035657296   0.0117074745   0.0756599200   0.0086860867
        0.0026058274  -0.0438458348   0.0162547410  -0.0025615375   0.0445438710
       -0.0636284649  -0.1755815088  -0.0600004976  -0.0119271615   0.2302939764
        0.0206485790   0.1099616901  -0.0547567575   0.0386538825  -0.0506608047
       -0.0415111866  -0.1363515999   0.0667877177   0.0443002815   0.0172332468
        0.0020433161  -0.0768354568  -0.0070940036  -0.0032349988   0.0206485790
        0.1690985796  -0.1050939670   0.0533977829  -0.0428862229   0.0394979321
        0.0218448947   0.1263871862  -0.0454271755  -0.0641754559   0.0025570687
       -0.1534823340  -0.0687600648  -0.0120443293   0.0035657296   0.1099616901
       -0.1050939670   0.2338383608   0.0011289359  -0.0118059585  -0.0384945809
       -0.1970989535  -0.0565490499   0.0001031871  -0.0348666876   0.1025864396
        0.0272175914   0.0032858777  -0.0247496067   0.0117074745  -0.0547567575
        0.0533977829   0.0011289359   0.2834365210  -0.0746855658  -0.0401571889
       -0.0237085249  -0.0001047684   0.0003206953   0.1027831031  -0.0577392451
       -0.0577621420  -0.0430428949  -0.1912483834   0.0756599200   0.0386538825
       -0.0428862229  -0.0118059585  -0.0746855658   0.2919786198  -0.0064125148
        0.0497869583   0.0065757135   0.0180553901   0.0278913415  -0.0582283948
       -0.0461409245   0.0131396937   0.0185672640   0.0086860867  -0.0506608047
        0.0394979321  -0.0384945809  -0.0401571889  -0.0064125148   0.0578940286
