5
 energy: -10.127728929519 gnorm: 0.165964037763 xtb: 6.2.2 (9d81278992624c895f80dd42a50cac0aa55982e2)
C        -0.73059900000000   -0.84390100000000    0.10985000000000
C        -0.11391100000000    0.31424500000000    0.77309100000000
C         0.78755700000000    0.68677600000000   -0.32693600000000
C        -0.75105800000000    0.57551500000000   -0.52585300000000
C         0.80801100000000   -0.73263600000000    0.30877700000000
5
 energy: -10.152705426503 gnorm: 0.090909057004 xtb: 6.2.2 (9d81278992624c895f80dd42a50cac0aa55982e2)
C        -0.70581164125380   -0.82891295805680    0.08704021720045
C        -0.12453403494213    0.34355047669407    0.83886635188867
C         0.76808149127199    0.65713617149207   -0.33701123785688
C        -0.72567202352677    0.54911606406623   -0.53012987479663
C         0.78793620845070   -0.72089075419557    0.28016354356439
5
 energy: -10.161956161075 gnorm: 0.026171187839 xtb: 6.2.2 (9d81278992624c895f80dd42a50cac0aa55982e2)
C        -0.67142796963459   -0.80588972360716    0.05889779334194
C        -0.13690032983310    0.37766470023666    0.91543557996731
C         0.73987995402609    0.61705820317318   -0.34714795273751
C        -0.69044073351974    0.51361976103305   -0.53206988677046
C         0.75888907896134   -0.70245394083573    0.24381346619873
5
 energy: -10.162450630605 gnorm: 0.004353198927 xtb: 6.2.2 (9d81278992624c895f80dd42a50cac0aa55982e2)
C        -0.67890878237461   -0.81172621856690    0.06372373382744
C        -0.13509563398520    0.37268608224909    0.90426143553148
C         0.74645466494353    0.62539331171595   -0.34636599210114
C        -0.69809141975918    0.52090223250212   -0.53314199401210
C         0.76564117117546   -0.70725640790026    0.25045181675432
5
 energy: -10.162464070025 gnorm: 0.001912098417 xtb: 6.2.2 (9d81278992624c895f80dd42a50cac0aa55982e2)
C        -0.67852898623664   -0.81164358323418    0.06314840835558
C        -0.13544743661015    0.37365665801132    0.90643812850856
C         0.74623644678838    0.62487348277530   -0.34676913090701
C        -0.69760684483194    0.52030898850684   -0.53353240558055
C         0.76534682089036   -0.70719654605927    0.24964399962343
5
 energy: -10.162471551851 gnorm: 0.003406404840 xtb: 6.2.2 (9d81278992624c895f80dd42a50cac0aa55982e2)
C        -0.67912835296936   -0.81210202215068    0.06354805045754
C        -0.13570940636009    0.37437865490436    0.90805844293295
C         0.74675603667229    0.62554408070724   -0.34669194190862
C        -0.69703383260037    0.51950497113866   -0.53436579168078
C         0.76511555525753   -0.70732668459958    0.24838024019891
5
 energy: -10.162626929058 gnorm: 0.017267844071 xtb: 6.2.2 (9d81278992624c895f80dd42a50cac0aa55982e2)
C        -0.68179529731876   -0.81297354895982    0.06716592477687
C        -0.13572887086496    0.37443198121493    0.90817815883363
C         0.74845872123950    0.62907883923540   -0.34433162647088
C        -0.69420193907595    0.51618360525844   -0.53616214053445
C         0.76326738602017   -0.70672187674895    0.24407868339483
5
 energy: -10.166462510271 gnorm: 0.068408273706 xtb: 6.2.2 (9d81278992624c895f80dd42a50cac0aa55982e2)
C        -0.69555864679087   -0.81764663913716    0.08555989266423
C        -0.13622552905604    0.37580292643249    0.91125152763966
C         0.75733986328779    0.64723874994981   -0.33245258131952
C        -0.67892705499287    0.49819557802337   -0.54609761211972
C         0.75337136755199   -0.70359161526851    0.22066777313535
5
 energy: -10.177882419857 gnorm: 0.037484174806 xtb: 6.2.2 (9d81278992624c895f80dd42a50cac0aa55982e2)
C        -0.74391516147402   -0.83436790988052    0.14970367571490
C        -0.13780658944982    0.38016481492383    0.92103179294594
C         0.78869824522477    0.71089172266987   -0.29124248390852
C        -0.62399666760643    0.43425442159008   -0.57922997942598
C         0.71702017330551   -0.69094404930326    0.13866599467365
5
 energy: -10.179271164924 gnorm: 0.018954252982 xtb: 6.2.2 (9d81278992624c895f80dd42a50cac0aa55982e2)
C        -0.75075827816543   -0.82918094164586    0.17060999501578
C        -0.13615075340249    0.37559408697904    0.91077143662682
C         0.78912026487211    0.72339807378697   -0.27242429668075
C        -0.60791528768194    0.41619657610026   -0.58662680019064
C         0.70570405437775   -0.68600879522041    0.11659866522879
5
 energy: -10.179819928773 gnorm: 0.013192581246 xtb: 6.2.2 (9d81278992624c895f80dd42a50cac0aa55982e2)
C        -0.75058196767106   -0.81983146725845    0.18492627918295
C        -0.13529723921816    0.37323381046252    0.90547237752092
C         0.78406919810819    0.72747456713746   -0.25660407926858
C        -0.60022044822634    0.40589365667696   -0.59600121284235
C         0.70203045700737   -0.68677156701849    0.10113563540707
5
 energy: -10.180268002374 gnorm: 0.014457189917 xtb: 6.2.2 (9d81278992624c895f80dd42a50cac0aa55982e2)
C        -0.75033589662518   -0.80791546394574    0.20313639476789
C        -0.13504144002784    0.37252080557669    0.90387131385599
C         0.77762440034407    0.73264390415499   -0.23647037916641
C        -0.59427629207967    0.39521361408315   -0.61278027552179
C         0.70202922838862   -0.69246385986909    0.08117194606432
5
 energy: -10.180575608817 gnorm: 0.009762860661 xtb: 6.2.2 (9d81278992624c895f80dd42a50cac0aa55982e2)
C        -0.74996074697857   -0.79558402858572    0.22176193033545
C        -0.13536151674068    0.37339744133400    0.90583978776178
C         0.77090125225467    0.73781914835184   -0.21580469344183
C        -0.59124532083911    0.38627716436636   -0.63357212003788
C         0.70566633230369   -0.70191072546648    0.06070409538248
5
 energy: -10.180641794258 gnorm: 0.003198266447 xtb: 6.2.2 (9d81278992624c895f80dd42a50cac0aa55982e2)
C        -0.74935706791506   -0.79401242338232    0.22309986175943
C        -0.13588591514991    0.37484509021524    0.90909085237668
C         0.76978800326391    0.73766043228210   -0.21397326237907
C        -0.59286270579876    0.38663804214372   -0.63792554764601
C         0.70831768559983   -0.70513214125874    0.05863709588897
5
 energy: -10.180650301699 gnorm: 0.000372196395 xtb: 6.2.2 (9d81278992624c895f80dd42a50cac0aa55982e2)
C        -0.74905084676944   -0.79456989843595    0.22165528850429
C        -0.13604128274261    0.37527648896735    0.91006154770708
C         0.76994425886698    0.73695170744654   -0.21537445685335
C        -0.59448082823035    0.38828402280605   -0.63777273548512
C         0.70962869887542   -0.70594332078399    0.06035935612711
5
 energy: -10.180650477750 gnorm: 0.000112823620 xtb: 6.2.2 (9d81278992624c895f80dd42a50cac0aa55982e2)
C        -0.74910556772148   -0.79472090027606    0.22152370209536
C        -0.13599603524446    0.37515260039756    0.90978380356386
C         0.77005166079469    0.73696388454144   -0.21555239349526
C        -0.59482724528054    0.38866473746443   -0.63763841793144
C         0.70987718745180   -0.70606132212736    0.06081230576748
