      -----------------------------------------------------------      
     |                   =====================                   |     
     |                           x T B                           |     
     |                   =====================                   |     
     |                         S. Grimme                         |     
     |          Mulliken Center for Theoretical Chemistry        |     
     |                    University of Bonn                     |     
      -----------------------------------------------------------      

   * xtb version 6.2.2 (9d81278992624c895f80dd42a50cac0aa55982e2) compiled by '@Darwin' on 04/03/2020

   xtb is free software: you can redistribute it and/or modify it under
   the terms of the GNU Lesser General Public License as published by
   the Free Software Foundation, either version 3 of the License, or
   (at your option) any later version.
   
   xtb is distributed in the hope that it will be useful,
   but WITHOUT ANY WARRANTY; without even the implied warranty of
   MERCHANTABILITY or FITNESS FOR A PARTICULAR PURPOSE.  See the
   GNU Lesser General Public License for more details.
   
   Cite this work as:
   * S. Grimme, C. Bannwarth, P. Shushkov, J. Chem. Theory Comput., 2017,
     13, 1989-2009. DOI: 10.1021/acs.jctc.7b00118
   * C. Bannwarth, S. Ehlert and S. Grimme., J. Chem. Theory Comput., 2019,
     15, 1652-1671. DOI: 10.1021/acs.jctc.8b01176
   * P. Pracht, E. Caldeweyher, S. Ehlert, S. Grimme, ChemRxiv, 2019, preprint.
     DOI: 10.26434/chemrxiv.8326202.v1
   
   for DFT-D4:
   * E. Caldeweyher, C. Bannwarth and S. Grimme, J. Chem. Phys., 2017,
     147, 034112. DOI: 10.1063/1.4993215
   * E. Caldeweyher, S. Ehlert, A. Hansen, H. Neugebauer, S. Spicher,
     C. Bannwarth and S. Grimme, J. Chem. Phys., 2019, 150, 154122.
     DOI: 10.1063/1.5090222
   
   for sTDA-xTB:
   * S. Grimme and C. Bannwarth, J. Chem. Phys., 2016, 145, 054103.
     DOI: 10.1063/1.4959605
   
   in the mass-spec context:
   * V. Asgeirsson, C. Bauer and S. Grimme, Chem. Sci., 2017, 8, 4879.
     DOI: 10.1039/c7sc00601b
   
   for metadynamics refer to:
   * S. Grimme, J. Chem. Theory Comput., 2019, 155, 2847-2862
     DOI: 10.1021/acs.jctc.9b00143
   
   with help from (in alphabetical order)
   C. Bannwarth, F. Bohle, G. Brandenburg, E. Caldeweyher, M. Checinski,
   S. Dohm, S. Ehlert, S. Ehrlich, F. März, H. Neugebauer, J. Pisarek,
   P. Pracht, P. Shushkov, and S. Spicher.
   
 * started run on 2020/05/12 at 11:44:38.979     

           -------------------------------------------------
          |                Calculation Setup                |
           -------------------------------------------------

          program call               : xtb --input C5_17_S_2.input C5_17_S_2.xyz --ohess --molden --namespace C5_17_S_2 output.out
          calculation namespace      : C5_17_S_2
          coordinate file            : C5_17_S_2.xyz
          number of atoms            :                     5
          number of electrons        :                    20
          charge                     :                     0
          spin                       :                   1.0
          first test random number   :      0.37428263120103

   ID    Z sym.   atoms
    1    6 C      1-5

           -------------------------------------------------
          |                 G F N 2 - x T B                 |
           -------------------------------------------------

        Reference                      10.1021/acs.jctc.8b01176
      * Hamiltonian:
        H0-scaling (s, p, d)           1.850000    2.230000    2.230000
        zeta-weighting                 0.500000
      * Dispersion:
        s8                             2.700000
        a1                             0.520000
        a2                             5.000000
        s9                             5.000000
      * Repulsion:
        kExp                           1.500000    1.000000
        rExp                           1.000000
      * Coulomb:
        alpha                          2.000000
        third order                    shell-resolved
        anisotropic                    true
        a3                             3.000000
        a5                             4.000000
        cn-shift                       1.200000
        cn-exp                         4.000000
        max-rad                        5.000000


          ...................................................
          :                      SETUP                      :
          :.................................................:
          :  # basis functions                  20          :
          :  # atomic orbitals                  20          :
          :  # shells                           10          :
          :  # electrons                        20          :
          :  max. iterations                   250          :
          :  Hamiltonian                  GFN2-xTB          :
          :  restarted?                      false          :
          :  GBSA solvation                  false          :
          :  PC potential                    false          :
          :  electronic temp.          300.0000000     K    :
          :  accuracy                    1.0000000          :
          :  -> integral cutoff          0.2500000E+02      :
          :  -> integral neglect         0.1000000E-07      :
          :  -> SCF convergence          0.1000000E-05 Eh   :
          :  -> wf. convergence          0.1000000E-03 e    :
          :  Broyden damping             0.4000000          :
          ...................................................

 iter      E             dE          RMSdq      gap      omega  full diag
   1    -10.2518614 -0.102519E+02  0.692E+00    0.00       0.0  T
   2    -10.2520475 -0.186096E-03  0.423E+00    0.00       1.0  T
   3    -10.2441668  0.788064E-02  0.114E+00    0.00       1.0  T
   4    -10.2530291 -0.886224E-02  0.306E-01    0.00       1.0  T
   5    -10.2530201  0.900502E-05  0.269E-01    0.00       1.0  T
   6    -10.2521082  0.911890E-03  0.494E-01    0.02       1.0  T
   7    -10.2530517 -0.943483E-03  0.281E-02    0.00       1.6  T
   8    -10.2530532 -0.154046E-05  0.467E-03    0.00       9.6  T
   9    -10.2530529  0.285419E-06  0.706E-03    0.00       6.3  T
  10    -10.2530533 -0.343606E-06  0.304E-03    0.00      14.7  T
  11    -10.2530533 -0.676131E-08  0.469E-04    0.00      95.4  T
  12    -10.2530533 -0.636623E-09  0.248E-04    0.00     180.4  T

   *** convergence criteria satisfied after 12 iterations ***

         #    Occupation            Energy/Eh            Energy/eV
      -------------------------------------------------------------
         1        2.0000           -0.7635077             -20.7761
       ...           ...                  ...                  ...
         5        2.0000           -0.5370228             -14.6131
         6        2.0000           -0.5054217             -13.7532
         7        2.0000           -0.4825764             -13.1316
         8        2.0000           -0.4825761             -13.1316
         9        2.0000           -0.4779638             -13.0061
        10        0.9999           -0.4114221             -11.1954
        11        0.5001           -0.4023175             -10.9476 (HOMO)
        12        0.5000           -0.4023172             -10.9476 (LUMO)
        13                         -0.2640078              -7.1840
        14                         -0.1463491              -3.9824
        15                         -0.1463475              -3.9823
        16                         -0.0010888              -0.0296
       ...                                ...                  ...
        20                          0.2764527               7.5227
      -------------------------------------------------------------
                  HL-Gap            0.0000002 Eh            0.0000 eV
             Fermi-level           -0.4235051 Eh          -11.5242 eV

 transition dipole moment (au) for excitation:          10          11
     X       Y       Z   
  -0.2155   0.2129  -0.1296  total (au/Debye):    0.329   0.837
 dE (eV)             :    0.248
 oscillator strength :  0.93159E-03

 SCC (total)                   0 d,  0 h,  0 min,  0.006 sec
 SCC setup                      ...        0 min,  0.000 sec (  1.592%)
 Dispersion                     ...        0 min,  0.000 sec (  0.339%)
 integral evaluation            ...        0 min,  0.001 sec ( 23.748%)
 zeroth order Hamiltonian       ...        0 min,  0.000 sec (  0.356%)
 iterations                     ...        0 min,  0.002 sec ( 26.836%)
 molecular gradient             ...        0 min,  0.002 sec ( 26.933%)
 printout                       ...        0 min,  0.001 sec ( 19.969%)

         :::::::::::::::::::::::::::::::::::::::::::::::::::::
         ::                     SUMMARY                     ::
         :::::::::::::::::::::::::::::::::::::::::::::::::::::
         :: total energy             -10.127728932467 Eh    ::
         :: gradient norm              0.165963773516 Eh/a0 ::
         :: HOMO-LUMO gap              0.000006181468 eV    ::
         ::.................................................::
         :: SCC energy               -10.253053273547 Eh    ::
         :: -> isotropic ES           -0.010992474704 Eh    ::
         :: -> anisotropic ES          0.002489968457 Eh    ::
         :: -> anisotropic XC          0.001412002461 Eh    ::
         :: -> dispersion             -0.002671244723 Eh    ::
         :: repulsion energy           0.125324325369 Eh    ::
         :: add. restraining           0.000000000000 Eh    ::
         :::::::::::::::::::::::::::::::::::::::::::::::::::::

      ----------------------------------------------------------- 
     |                   =====================                   |
     |                        A N C O P T                        |
     |                   =====================                   |
     |               Approximate Normal Coordinate               |
     |                Rational Function Optimizer                |
      ----------------------------------------------------------- 

          ...................................................
          :                      SETUP                      :
          :.................................................:
          :   optimization level            normal          :
          :   max. optcycles                   200          :
          :   ANC micro-cycles                  20          :
          :   degrees of freedom                 9          :
          :.................................................:
          :   RF solver                   davidson          :
          :   write xtbopt.log                true          :
          :   linear?                        false          :
          :   energy convergence         0.5000000E-05 Eh   :
          :   grad. convergence          0.1000000E-02 Eh/α :
          :   maximium RF displ.         1.0000000          :
          :   Hlow (freq-cutoff)         0.1000000E-01      :
          :   Hmax (freq-cutoff)         5.0000000          :
          :   S6 in model hess.         20.0000000          :
          ...................................................

generating ANC from model Hessian ...
Using Lindh-Hessian (1995)
 Shifting diagonal of input Hessian by    0.0000000000000000     
 Lowest  eigenvalues of input Hessian
   -0.000000   -0.000000   -0.000000    0.000000    0.000000    0.000000
    0.141850    0.664436    0.670155    0.670159    0.750108    0.810758
    1.290608    1.290617    1.599058
 Highest eigenvalues
    0.670159    0.750108    0.810758    1.290608    1.290617    1.599058


........................................................................
.............................. CYCLE    1 ..............................
........................................................................
   1    -10.2530533 -0.102531E+02  0.142E-04    0.00       0.0  T
   2    -10.2530533  0.930633E-11  0.134E-04    0.00     334.0  T
   3    -10.2530533  0.184803E-09  0.236E-04    0.00     189.8  T
     SCC iter.                  ...        0 min,  0.001 sec
     gradient                   ...        0 min,  0.002 sec
 * total energy  :   -10.1277289 Eh     change        0.2948683E-08 Eh
   gradient norm :     0.1659640 Eh/α   predicted     0.0000000E+00 (-100.00%)
   displ. norm   :     0.1958037 α      lambda       -0.3167726E-01
   maximum displ.:     0.1906084 α      in ANC's #5, #9, #1, ...

........................................................................
.............................. CYCLE    2 ..............................
........................................................................
   1    -10.2760182 -0.102760E+02  0.140E+00    0.00       0.0  T
   2    -10.2760341 -0.159264E-04  0.814E-01    0.00       1.0  T
   3    -10.2760259  0.819804E-05  0.695E-02    0.00       1.0  T
   4    -10.2759995  0.263633E-04  0.103E-01    0.00       1.0  T
   5    -10.2760406 -0.410916E-04  0.356E-02    0.00       1.3  T
   6    -10.2760438 -0.315887E-05  0.535E-03    0.00       8.4  T
   7    -10.2760434  0.393804E-06  0.785E-03    0.00       5.7  T
   8    -10.2760439 -0.551493E-06  0.134E-03    0.00      33.4  T
   9    -10.2760439 -0.170814E-08  0.483E-05    0.00     926.3  T
  10    -10.2760439 -0.966338E-12  0.263E-05    0.00    1702.7  T
     SCC iter.                  ...        0 min,  0.001 sec
     gradient                   ...        0 min,  0.001 sec
 * total energy  :   -10.1527054 Eh     change       -0.2497650E-01 Eh
   gradient norm :     0.0909091 Eh/α   predicted    -0.1644587E-01 ( -34.15%)
   displ. norm   :     0.2478219 α      lambda       -0.2231943E-01
   maximum displ.:     0.2455750 α      in ANC's #5, #9, #1, ...

........................................................................
.............................. CYCLE    3 ..............................
........................................................................
   1    -10.3013903 -0.103014E+02  0.172E+00    0.00       0.0  T
   2    -10.3014191 -0.288133E-04  0.994E-01    0.00       1.0  T
   3    -10.3012764  0.142698E-03  0.162E-01    0.00       1.0  T
   4    -10.3012145  0.619412E-04  0.237E-01    0.01       1.0  T
   5    -10.3014408 -0.226346E-03  0.463E-02    0.00       1.0  T
   6    -10.3014455 -0.468695E-05  0.476E-03    0.00       9.4  T
   7    -10.3014454  0.496959E-07  0.314E-03    0.00      14.2  T
   8    -10.3014455 -0.174831E-07  0.254E-03    0.00      17.6  T
   9    -10.3014455 -0.419454E-07  0.650E-05    0.00     688.1  T
  10    -10.3014455  0.202505E-12  0.313E-05    0.00    1427.8  T
     SCC iter.                  ...        0 min,  0.001 sec
     gradient                   ...        0 min,  0.002 sec
 * total energy  :   -10.1619562 Eh     change       -0.9250735E-02 Eh
   gradient norm :     0.0261712 Eh/α   predicted    -0.1184510E-01 (  28.04%)
   displ. norm   :     0.0464801 α      lambda       -0.1089001E-02
   maximum displ.:     0.0463474 α      in ANC's #5, #9, #1, ...

........................................................................
.............................. CYCLE    4 ..............................
........................................................................
   1    -10.2949262 -0.102949E+02  0.306E-01    0.00       0.0  T
   2    -10.2949254  0.787989E-06  0.181E-01    0.00       1.0  T
   3    -10.2944930  0.432367E-03  0.319E-01    0.02       1.0  T
   4    -10.2949277 -0.434664E-03  0.111E-02    0.00       4.0  T
   5    -10.2949278 -0.124139E-06  0.887E-03    0.00       5.0  T
   6    -10.2949280 -0.189991E-06  0.856E-04    0.00      52.3  T
   7    -10.2949280  0.374023E-08  0.756E-04    0.00      59.2  T
     SCC iter.                  ...        0 min,  0.001 sec
     gradient                   ...        0 min,  0.001 sec
 * total energy  :   -10.1624506 Eh     change       -0.4944695E-03 Eh
   gradient norm :     0.0043532 Eh/α   predicted    -0.5456776E-03 (  10.36%)
   displ. norm   :     0.0054272 α      lambda       -0.2067557E-04
   maximum displ.:     0.0046230 α      in ANC's #5, #9, #1, ...

........................................................................
.............................. CYCLE    5 ..............................
........................................................................
   1    -10.2947353 -0.102947E+02  0.463E-02    0.00       0.0  T
   2    -10.2946829  0.524644E-04  0.114E-01    0.00       1.0  T
   3    -10.2947287 -0.458433E-04  0.503E-02    0.00       1.0  T
   4    -10.2947364 -0.767279E-05  0.102E-02    0.00       4.4  T
   5    -10.2947370 -0.592602E-06  0.319E-03    0.00      14.0  T
   6    -10.2947370 -0.348464E-07  0.229E-03    0.00      19.5  T
   7    -10.2947370 -0.164732E-07  0.117E-03    0.00      38.2  T
   8    -10.2947370 -0.432337E-08  0.222E-04    0.00     201.8  T
   9    -10.2947370 -0.720419E-10  0.148E-04    0.00     302.8  T
     SCC iter.                  ...        0 min,  0.001 sec
     gradient                   ...        0 min,  0.002 sec
 * total energy  :   -10.1624641 Eh     change       -0.1343942E-04 Eh
   gradient norm :     0.0019121 Eh/α   predicted    -0.1033732E-04 ( -23.08%)
   displ. norm   :     0.0053473 α      lambda       -0.4992340E-05
   maximum displ.:     0.0036818 α      in ANC's #1, #9, #5, ...

........................................................................
.............................. CYCLE    6 ..............................
........................................................................
   1    -10.2938987 -0.102939E+02  0.250E-01    0.01       0.0  T
   2    -10.2877030  0.619571E-02  0.120E+00    0.06       1.0  T
   3    -10.2940152 -0.631224E-02  0.163E-01    0.01       1.0  T
   4    -10.2940913 -0.761288E-04  0.655E-02    0.01       1.0  T
   5    -10.2941043 -0.129719E-04  0.222E-02    0.01       2.0  T
   6    -10.2941059 -0.162800E-05  0.615E-03    0.00       7.3  T
   7    -10.2941060 -0.541735E-07  0.342E-03    0.00      13.1  T
   8    -10.2941061 -0.721869E-07  0.343E-04    0.00     130.5  T
   9    -10.2941061 -0.318298E-09  0.120E-04    0.00     372.9  T
     SCC iter.                  ...        0 min,  0.001 sec
     gradient                   ...        0 min,  0.001 sec
 * total energy  :   -10.1624716 Eh     change       -0.7481826E-05 Eh
   gradient norm :     0.0034064 Eh/α   predicted    -0.2495268E-05 ( -66.65%)
   displ. norm   :     0.0175761 α      lambda       -0.4978987E-04
   maximum displ.:     0.0172730 α      in ANC's #1, #2, #5, ...

........................................................................
.............................. CYCLE    7 ..............................
........................................................................
   1    -10.2909625 -0.102910E+02  0.100E+00    0.07       0.0  T
   2    -10.2535241  0.374384E-01  0.290E+00    0.22       1.0  T
   3    -10.2933531 -0.398290E-01  0.524E-01    0.05       1.0  T
   4    -10.2942703 -0.917272E-03  0.200E-02    0.02       2.2  T
   5    -10.2942708 -0.453863E-06  0.130E-02    0.02       3.4  T
   6    -10.2942711 -0.316288E-06  0.794E-03    0.02       5.6  T
   7    -10.2942711 -0.217879E-07  0.347E-03    0.02      12.9  T
   8    -10.2942712 -0.105089E-06  0.529E-04    0.02      84.6  T
   9    -10.2942712  0.984119E-09  0.399E-04    0.02     112.1  T
     SCC iter.                  ...        0 min,  0.001 sec
     gradient                   ...        0 min,  0.001 sec
 * total energy  :   -10.1626269 Eh     change       -0.1553772E-03 Eh
   gradient norm :     0.0172678 Eh/α   predicted    -0.2490236E-04 ( -83.97%)
   displ. norm   :     0.0930074 α      lambda       -0.1369948E-02
   maximum displ.:     0.0910937 α      in ANC's #1, #2, #5, ...

........................................................................
.............................. CYCLE    8 ..............................
........................................................................
   1    -10.2933129 -0.102933E+02  0.124E+00    0.38       0.0  T
   2    -10.2840749  0.923805E-02  0.137E+00    0.03       1.0  T
   3    -10.2955896 -0.115147E-01  0.825E-01    0.31       1.0  T
   4    -10.2971964 -0.160680E-02  0.162E-01    0.22       1.0  T
   5    -10.2972057 -0.922898E-05  0.122E-01    0.22       1.0  T
   6    -10.2972431 -0.374097E-04  0.671E-02    0.21       1.0  T
   7    -10.2972535 -0.103885E-04  0.178E-02    0.21       2.5  T
   8    -10.2972558 -0.237102E-05  0.376E-03    0.21      11.9  T
   9    -10.2972558  0.757622E-09  0.257E-03    0.21      17.4  T
  10    -10.2972558 -0.227804E-07  0.149E-03    0.21      30.0  T
  11    -10.2972559 -0.705940E-08  0.499E-05    0.21     895.3  T
  12    -10.2972559  0.700062E-11  0.556E-05    0.21     804.7  T
     SCC iter.                  ...        0 min,  0.002 sec
     gradient                   ...        0 min,  0.002 sec
 * total energy  :   -10.1664625 Eh     change       -0.3835581E-02 Eh
   gradient norm :     0.0684083 Eh/α   predicted    -0.6908990E-03 ( -81.99%)
   displ. norm   :     0.3272671 α      lambda       -0.1925329E-01
   maximum displ.:     0.3196133 α      in ANC's #1, #2, #5, ...

........................................................................
.............................. CYCLE    9 ..............................
........................................................................
   1    -10.2986662 -0.102987E+02  0.166E+00    1.50       0.0  T
   2    -10.3002607 -0.159456E-02  0.999E-01    1.77       1.0  T
   3    -10.3005439 -0.283119E-03  0.595E-01    1.59       1.0  T
   4    -10.3011140 -0.570109E-03  0.142E-01    1.67       1.0  T
   5    -10.3012521 -0.138158E-03  0.351E-02    1.67       1.3  T
   6    -10.3012485  0.367638E-05  0.242E-02    1.67       1.8  T
   7    -10.3012529 -0.440033E-05  0.565E-03    1.67       7.9  T
   8    -10.3012531 -0.208895E-06  0.630E-04    1.67      71.0  T
   9    -10.3012531  0.640357E-08  0.839E-04    1.67      53.3  T
     SCC iter.                  ...        0 min,  0.001 sec
     gradient                   ...        0 min,  0.001 sec
 * total energy  :   -10.1778824 Eh     change       -0.1141991E-01 Eh
   gradient norm :     0.0374842 Eh/α   predicted    -0.1065770E-01 (  -6.67%)
   displ. norm   :     0.0931390 α      lambda       -0.2093059E-02
   maximum displ.:     0.0859728 α      in ANC's #1, #9, #5, ...

........................................................................
.............................. CYCLE   10 ..............................
........................................................................
   1    -10.3087021 -0.103087E+02  0.544E-01    2.01       0.0  T
   2    -10.3087510 -0.489168E-04  0.349E-01    2.07       1.0  T
   3    -10.3087064  0.446460E-04  0.238E-01    2.02       1.0  T
   4    -10.3089108 -0.204449E-03  0.503E-02    2.04       1.0  T
   5    -10.3089257 -0.148489E-04  0.116E-02    2.05       3.9  T
   6    -10.3089255  0.129486E-06  0.472E-03    2.05       9.5  T
   7    -10.3089255  0.606788E-07  0.506E-03    2.05       8.8  T
   8    -10.3089257 -0.257488E-06  0.433E-04    2.05     103.4  T
   9    -10.3089257 -0.185189E-09  0.519E-05    2.05     862.2  T
     SCC iter.                  ...        0 min,  0.001 sec
     gradient                   ...        0 min,  0.001 sec
 * total energy  :   -10.1792712 Eh     change       -0.1388745E-02 Eh
   gradient norm :     0.0189543 Eh/α   predicted    -0.1055607E-02 ( -23.99%)
   displ. norm   :     0.0634006 α      lambda       -0.7812883E-03
   maximum displ.:     0.0523572 α      in ANC's #1, #2, #9, ...

........................................................................
.............................. CYCLE   11 ..............................
........................................................................
   1    -10.3144249 -0.103144E+02  0.405E-01    2.19       0.0  T
   2    -10.3143998  0.251071E-04  0.268E-01    2.21       1.0  T
   3    -10.3142772  0.122549E-03  0.204E-01    2.19       1.0  T
   4    -10.3145002 -0.222963E-03  0.136E-02    2.20       3.3  T
   5    -10.3145005 -0.342338E-06  0.822E-03    2.20       5.4  T
   6    -10.3145002  0.387009E-06  0.796E-03    2.20       5.6  T
   7    -10.3145005 -0.310696E-06  0.428E-03    2.20      10.5  T
   8    -10.3145006 -0.142633E-06  0.470E-04    2.20      95.3  T
   9    -10.3145006 -0.878089E-10  0.190E-04    2.20     235.8  T
     SCC iter.                  ...        0 min,  0.001 sec
     gradient                   ...        0 min,  0.001 sec
 * total energy  :   -10.1798199 Eh     change       -0.5487638E-03 Eh
   gradient norm :     0.0131926 Eh/α   predicted    -0.3922140E-03 ( -28.53%)
   displ. norm   :     0.0804479 α      lambda       -0.6106497E-03
   maximum displ.:     0.0648055 α      in ANC's #1, #2, #9, ...

........................................................................
.............................. CYCLE   12 ..............................
........................................................................
   1    -10.3165989 -0.103166E+02  0.541E-01    2.33       0.0  T
   2    -10.3164868  0.112044E-03  0.366E-01    2.34       1.0  T
   3    -10.3160490  0.437758E-03  0.322E-01    2.31       1.0  T
   4    -10.3166862 -0.637159E-03  0.285E-02    2.33       1.6  T
   5    -10.3166896 -0.340165E-05  0.133E-02    2.33       3.4  T
   6    -10.3166895  0.867040E-07  0.811E-03    2.33       5.5  T
   7    -10.3166892  0.278791E-06  0.783E-03    2.33       5.7  T
   8    -10.3166897 -0.478285E-06  0.133E-03    2.33      33.6  T
   9    -10.3166897 -0.436940E-08  0.382E-04    2.33     117.1  T
  10    -10.3166897 -0.103681E-08  0.161E-04    2.33     277.5  T
     SCC iter.                  ...        0 min,  0.001 sec
     gradient                   ...        0 min,  0.002 sec
 * total energy  :   -10.1802680 Eh     change       -0.4480736E-03 Eh
   gradient norm :     0.0144572 Eh/α   predicted    -0.3073015E-03 ( -31.42%)
   displ. norm   :     0.0854705 α      lambda       -0.5099932E-03
   maximum displ.:     0.0644436 α      in ANC's #1, #2, #5, ...

........................................................................
.............................. CYCLE   13 ..............................
........................................................................
   1    -10.3153166 -0.103153E+02  0.590E-01    2.41       0.0  T
   2    -10.3151624  0.154186E-03  0.399E-01    2.41       1.0  T
   3    -10.3141461  0.101626E-02  0.425E-01    2.38       1.0  T
   4    -10.3153759 -0.122977E-02  0.505E-02    2.41       1.0  T
   5    -10.3153853 -0.942908E-05  0.218E-02    2.40       2.1  T
   6    -10.3153861 -0.715595E-06  0.142E-02    2.40       3.2  T
   7    -10.3153861 -0.395669E-07  0.351E-03    2.40      12.7  T
   8    -10.3153861 -0.475949E-07  0.233E-03    2.40      19.2  T
   9    -10.3153862 -0.236942E-07  0.331E-04    2.40     135.2  T
  10    -10.3153862  0.213989E-09  0.261E-04    2.40     171.3  T
     SCC iter.                  ...        0 min,  0.001 sec
     gradient                   ...        0 min,  0.002 sec
 * total energy  :   -10.1805756 Eh     change       -0.3076064E-03 Eh
   gradient norm :     0.0097629 Eh/α   predicted    -0.2568606E-03 ( -16.50%)
   displ. norm   :     0.0153011 α      lambda       -0.1040854E-03
   maximum displ.:     0.0122382 α      in ANC's #2, #9, #1, ...

........................................................................
.............................. CYCLE   14 ..............................
........................................................................
   1    -10.3133691 -0.103134E+02  0.104E-01    2.37       0.0  T
   2    -10.3133613  0.773483E-05  0.739E-02    2.36       1.0  T
   3    -10.3133371  0.242431E-04  0.850E-02    2.37       1.0  T
   4    -10.3133738 -0.367506E-04  0.203E-02    2.37       2.2  T
   5    -10.3133761 -0.222681E-05  0.557E-03    2.36       8.0  T
   6    -10.3133761 -0.552368E-07  0.158E-03    2.36      28.3  T
   7    -10.3133761 -0.828288E-08  0.477E-04    2.36      93.8  T
   8    -10.3133761 -0.173876E-08  0.194E-04    2.36     230.8  T
     SCC iter.                  ...        0 min,  0.001 sec
     gradient                   ...        0 min,  0.001 sec
 * total energy  :   -10.1806418 Eh     change       -0.6618544E-04 Eh
   gradient norm :     0.0031983 Eh/α   predicted    -0.5205377E-04 ( -21.35%)
   displ. norm   :     0.0077520 α      lambda       -0.1607717E-04
   maximum displ.:     0.0063846 α      in ANC's #1, #9, #5, ...

........................................................................
.............................. CYCLE   15 ..............................
........................................................................
   1    -10.3124797 -0.103125E+02  0.452E-02    2.33       0.0  T
   2    -10.3124761  0.361896E-05  0.383E-02    2.33       1.2  T
   3    -10.3124771 -0.985815E-06  0.299E-02    2.33       1.5  T
   4    -10.3124812 -0.411316E-05  0.595E-03    2.33       7.5  T
   5    -10.3124814 -0.215321E-06  0.121E-03    2.33      37.1  T
   6    -10.3124814  0.535882E-08  0.889E-04    2.33      50.3  T
   7    -10.3124814 -0.540018E-08  0.214E-04    2.33     209.3  T
     SCC iter.                  ...        0 min,  0.001 sec
     gradient                   ...        0 min,  0.002 sec
 * total energy  :   -10.1806503 Eh     change       -0.8507440E-05 Eh
   gradient norm :     0.0003722 Eh/α   predicted    -0.8038804E-05 (  -5.51%)
   displ. norm   :     0.0016309 α      lambda       -0.2989742E-06
   maximum displ.:     0.0011984 α      in ANC's #5, #1, #9, ...

........................................................................
.............................. CYCLE   16 ..............................
........................................................................
   1    -10.3123757 -0.103124E+02  0.904E-03    2.32       0.0  T
   2    -10.3123756  0.372742E-07  0.636E-03    2.32       7.0  T
   3    -10.3123753  0.362330E-06  0.754E-03    2.32       5.9  T
   4    -10.3123757 -0.416731E-06  0.547E-04    2.32      81.8  T
   5    -10.3123757 -0.971882E-09  0.284E-04    2.32     157.7  T
     SCC iter.                  ...        0 min,  0.000 sec
     gradient                   ...        0 min,  0.001 sec
 * total energy  :   -10.1806505 Eh     change       -0.1760516E-06 Eh
   gradient norm :     0.0001128 Eh/α   predicted    -0.1502323E-06 ( -14.67%)
   displ. norm   :     0.0002805 α      lambda       -0.1967620E-07
   maximum displ.:     0.0001820 α      in ANC's #2, #5, #9, ...

   *** GEOMETRY OPTIMIZATION CONVERGED AFTER 16 ITERATIONS ***

------------------------------------------------------------------------
 total energy gain   :        -0.0529215 Eh      -33.2088 kcal/mol
 total RMSD          :         0.3750867 a0        0.1985 Å
 total power (kW/mol):        -8.6840936 (step)-2179.8460 (real)
------------------------------------------------------------------------

 ANCopt (total)                0 d,  0 h,  0 min,  0.064 sec
 optimizer setup                ...        0 min,  0.000 sec (  0.104%)
 model hessian                  ...        0 min,  0.000 sec (  0.155%)
 ANC generation                 ...        0 min,  0.000 sec (  0.083%)
 coordinate transformation      ...        0 min,  0.000 sec (  0.056%)
 single point calculation       ...        0 min,  0.062 sec ( 97.747%)
 optimization log               ...        0 min,  0.000 sec (  0.564%)
 hessian update                 ...        0 min,  0.000 sec (  0.055%)
 rational function              ...        0 min,  0.000 sec (  0.525%)

================
 final structure:
================
5
 xtb: 6.2.2 (9d81278992624c895f80dd42a50cac0aa55982e2)
C        -0.74910556772148   -0.79472090027606    0.22152370209536
C        -0.13599603524446    0.37515260039756    0.90978380356386
C         0.77005166079469    0.73696388454144   -0.21555239349526
C        -0.59482724528054    0.38866473746443   -0.63763841793144
C         0.70987718745180   -0.70606132212736    0.06081230576748

 Bond Distances (Angstroems)
 ---------------------------
C1-C2=1.4894         C1-C4=1.4705         C1-C5=1.4705         C2-C1=1.4894         C2-C3=1.4894         C2-C4=1.6141         
C2-C5=1.6141         C3-C2=1.4894         C3-C4=1.4705         C3-C5=1.4705         C4-C1=1.4705         C4-C2=1.6141         
C4-C3=1.4705         C4-C5=1.8408         C5-C1=1.4705         C5-C2=1.6141         C5-C3=1.4705         C5-C4=1.8408         
 C  C  Rav=1.5477 sigma=0.1180  Rmin=1.4705  Rmax=1.8408     9

 selected bond angles (degree)
 --------------------
C4-C1-C2= 66.09                C5-C1-C2= 66.09                C5-C1-C4= 77.50                C3-C2-C1= 95.28                
C4-C2-C1= 56.39                C4-C2-C3= 56.39                C5-C2-C1= 56.39                C5-C2-C3= 56.39                
C5-C2-C4= 69.53                C4-C3-C2= 66.09                C5-C3-C2= 66.09                C5-C3-C4= 77.50                
C2-C4-C1= 57.52                C3-C4-C1= 96.91                C3-C4-C2= 57.52                C5-C4-C1= 51.25                
C5-C4-C2= 55.23                C5-C4-C3= 51.25                C2-C5-C1= 57.52                C3-C5-C1= 96.91                
C3-C5-C2= 57.52                C4-C5-C1= 51.25                C4-C5-C2= 55.23                C4-C5-C3= 51.25                

 selected dihedral angles (degree)
 ---------------------------------
C3-C2-C1-C4=316.79            C3-C2-C1-C5= 43.21            C4-C2-C1-C5= 86.42            C5-C2-C1-C4=273.58            
C4-C3-C2-C1= 43.21            C4-C3-C2-C5= 86.42            C5-C3-C2-C1=316.79            C5-C3-C2-C4=273.58            
C2-C4-C1-C5=290.84            C3-C4-C1-C2= 44.07            C3-C4-C1-C5=334.92            C5-C4-C1-C2= 69.16            
C1-C4-C2-C3=125.06            C1-C4-C2-C5= 62.53            C3-C4-C2-C1=234.94            C3-C4-C2-C5=297.47            
C5-C4-C2-C1=297.47            C5-C4-C2-C3= 62.53            C1-C4-C3-C2=315.93            C1-C4-C3-C5= 25.08            
C2-C4-C3-C5= 69.16            C5-C4-C3-C2=290.84            C2-C5-C1-C4= 69.16            C3-C5-C1-C2=315.93            
C3-C5-C1-C4= 25.09            C4-C5-C1-C2=290.84            C1-C5-C2-C3=234.94            C1-C5-C2-C4=297.47            
C3-C5-C2-C1=125.06            C3-C5-C2-C4= 62.53            C4-C5-C2-C1= 62.53            C4-C5-C2-C3=297.47            
C1-C5-C3-C2= 44.07            C1-C5-C3-C4=334.92            C2-C5-C3-C4=290.84            C4-C5-C3-C2= 69.16            
C1-C5-C4-C2= 73.67            C1-C5-C4-C3=147.34            C2-C5-C4-C1=286.33            C2-C5-C4-C3= 73.67            
C3-C5-C4-C1=212.66            C3-C5-C4-C2=286.33            
           -------------------------------------------------
          |                Final Singlepoint                |
           -------------------------------------------------

          ...................................................
          :                      SETUP                      :
          :.................................................:
          :  # basis functions                  20          :
          :  # atomic orbitals                  20          :
          :  # shells                           10          :
          :  # electrons                        20          :
          :  max. iterations                   250          :
          :  Hamiltonian                  GFN2-xTB          :
          :  restarted?                      false          :
          :  GBSA solvation                  false          :
          :  PC potential                    false          :
          :  electronic temp.          300.0000000     K    :
          :  accuracy                    1.0000000          :
          :  -> integral cutoff          0.2500000E+02      :
          :  -> integral neglect         0.1000000E-07      :
          :  -> SCF convergence          0.1000000E-05 Eh   :
          :  -> wf. convergence          0.1000000E-03 e    :
          :  Broyden damping             0.4000000          :
          ...................................................

 iter      E             dE          RMSdq      gap      omega  full diag
   1    -10.3123757 -0.103124E+02  0.278E-04    2.32       0.0  T
   2    -10.3123757  0.252762E-08  0.648E-04    2.32      69.1  T
   3    -10.3123757 -0.306130E-08  0.252E-05    2.32    1776.8  T

   *** convergence criteria satisfied after 3 iterations ***

         #    Occupation            Energy/Eh            Energy/eV
      -------------------------------------------------------------
         1        2.0000           -0.7653570             -20.8264
       ...           ...                  ...                  ...
         5        2.0000           -0.5314402             -14.4612
         6        2.0000           -0.5107288             -13.8976
         7        2.0000           -0.4909866             -13.3604
         8        2.0000           -0.4703074             -12.7977
         9        1.9910           -0.4650586             -12.6549
        10        1.0091           -0.4561362             -12.4121
        11        1.0000           -0.4075903             -11.0911 (HOMO)
        12                         -0.3222190              -8.7680 (LUMO)
        13                         -0.2467044              -6.7132
        14                         -0.2076499              -5.6504
        15                         -0.0373584              -1.0166
        16                          0.0513006               1.3960
       ...                                ...                  ...
        20                          0.3580987               9.7444
      -------------------------------------------------------------
                  HL-Gap            0.0853713 Eh            2.3231 eV
             Fermi-level           -0.4127501 Eh          -11.2315 eV

 transition dipole moment (au) for excitation:          10          11
     X       Y       Z   
   0.0686   0.0692  -0.0197  total (au/Debye):    0.099   0.253
 dE (eV)             :    1.321
 oscillator strength :  0.45253E-03

 SCC (total)                   0 d,  0 h,  0 min,  0.004 sec
 SCC setup                      ...        0 min,  0.000 sec (  1.014%)
 Dispersion                     ...        0 min,  0.000 sec (  0.363%)
 integral evaluation            ...        0 min,  0.001 sec ( 31.313%)
 zeroth order Hamiltonian       ...        0 min,  0.000 sec (  0.358%)
 iterations                     ...        0 min,  0.000 sec (  8.570%)
 molecular gradient             ...        0 min,  0.001 sec ( 33.255%)
 printout                       ...        0 min,  0.001 sec ( 24.979%)

         :::::::::::::::::::::::::::::::::::::::::::::::::::::
         ::                     SUMMARY                     ::
         :::::::::::::::::::::::::::::::::::::::::::::::::::::
         :: total energy             -10.180650477479 Eh    ::
         :: gradient norm              0.000111503145 Eh/a0 ::
         :: HOMO-LUMO gap              2.323070896706 eV    ::
         ::.................................................::
         :: SCC energy               -10.312375697367 Eh    ::
         :: -> isotropic ES           -0.009036703569 Eh    ::
         :: -> anisotropic ES          0.002532530839 Eh    ::
         :: -> anisotropic XC          0.002222583222 Eh    ::
         :: -> dispersion             -0.002369534882 Eh    ::
         :: repulsion energy           0.131725206400 Eh    ::
         :: add. restraining           0.000000000000 Eh    ::
         :::::::::::::::::::::::::::::::::::::::::::::::::::::

           ------------------------------------------------- 
          |                Numerical Hessian                |
           ------------------------------------------------- 
step length          :   0.00500
SCC accuracy         :   0.30000
Hessian scale factor :   1.00000
frozen atoms in %    :   0.00000    0
RMS gradient         :   0.00011
estimated CPU  time      0.00 min
estimated wall time      0.00 min

writing file <hessian>.

 projected vibrational frequencies (cm-1)
eigval :       -0.00    -0.00    -0.00     0.00     0.00     0.00
eigval :       76.50   323.18   615.49   794.53   908.64   938.33
eigval :     1020.81  1271.21  1407.78
           -------------------------------------------------
          |                Property Printout                |
           -------------------------------------------------

    * Orbital Energies and Occupations

         #    Occupation            Energy/Eh            Energy/eV
      -------------------------------------------------------------
         1        2.0000           -0.7653571             -20.8264
         2        2.0000           -0.6588635             -17.9286
         3        2.0000           -0.6406843             -17.4339
         4        2.0000           -0.6189524             -16.8426
         5        2.0000           -0.5314402             -14.4612
         6        2.0000           -0.5107289             -13.8976
         7        2.0000           -0.4909866             -13.3604
         8        2.0000           -0.4703075             -12.7977
         9        1.9910           -0.4650586             -12.6549
        10        1.0091           -0.4561365             -12.4121
        11        1.0000           -0.4075904             -11.0911 (HOMO)
        12                         -0.3222190              -8.7680 (LUMO)
        13                         -0.2467044              -6.7132
        14                         -0.2076500              -5.6504
        15                         -0.0373585              -1.0166
        16                          0.0513006               1.3960
        17                          0.0598308               1.6281
        18                          0.1020289               2.7763
        19                          0.2112455               5.7483
        20                          0.3580986               9.7444
      -------------------------------------------------------------
                  HL-Gap            0.0853714 Eh            2.3231 eV
             Fermi-level           -0.4127501 Eh          -11.2315 eV

     #   Z        covCN         q      C6AA      α(0)
     1   6 C      3.075    -0.016    28.329     8.727
     2   6 C      3.877     0.084    19.146     6.221
     3   6 C      3.075    -0.016    28.329     8.727
     4   6 C      3.703    -0.026    21.192     6.582
     5   6 C      3.703    -0.026    21.192     6.582

 Mol. C6AA /au·bohr⁶  :        585.474006
 Mol. C8AA /au·bohr⁸  :      16932.925683
 Mol. α(0) /au        :         36.838226


Wiberg/Mayer (AO) data.
largest (>0.10) Wiberg bond orders for each atom
          total WBO             WBO to atom ...
     1  C   2.949        C    5 0.915    C    4 0.915    C    2 0.868    C    3 0.250
     2  C   2.983        C    1 0.868    C    3 0.868    C    5 0.623    C    4 0.623
     3  C   2.949        C    5 0.915    C    4 0.915    C    2 0.868    C    1 0.250
     4  C   3.005        C    3 0.915    C    1 0.915    C    2 0.623    C    5 0.552
     5  C   3.005        C    3 0.915    C    1 0.915    C    2 0.623    C    4 0.552

MOs/occ written to file <molden.input>


molecular dipole:
                 x           y           z       tot (Debye)
 q only:       -0.028       0.077       0.172
   full:       -0.088       0.242       0.542       1.525
molecular quadrupole (traceless):
                xx          xy          yy          xz          yz          zz
 q only:       -0.199      -0.021      -0.117      -0.086       0.222       0.317
  q+dip:       -0.786       0.189      -0.411      -0.461       0.903       1.197
   full:       -1.151      -0.618      -0.729      -0.293       1.282       1.880

           -------------------------------------------------
          |                Geometry Summary                 |
           -------------------------------------------------

      molecular mass/u    :       60.0536795
   center of mass at/Å    :        0.0000002      -0.0000001       0.0677858
  moments of inertia/u·Å² :        0.3463272E+02   0.4337906E+02   0.4944486E+02
rotational constants/cm⁻¹ :        0.4867545E+00   0.3886122E+00   0.3409380E+00

 * 6 selected distances

     #   Z        #   Z                                     value/Å
     1   6 C      2   6 C                                 1.4893654
     2   6 C      3   6 C                                 1.4893661 (max)
     1   6 C      4   6 C                                 1.4704975
     3   6 C      4   6 C                                 1.4704976
     1   6 C      5   6 C                                 1.4704827 (min)
     3   6 C      5   6 C                                 1.4704830

 * 1 distinct bonds (by element types)

   Z      Z             #   av. dist./Å        max./Å        min./Å
   6 C    6 C           6     1.4767821     1.4893661     1.4704827

           -------------------------------------------------
          |               Frequency Printout                |
Molecule has the following symmetry elements: (C2) 2*(sigma) 
It seems to be the C2v point group
           -------------------------------------------------
 projected vibrational frequencies (cm-1)
eigval :       -0.00    -0.00    -0.00     0.00     0.00     0.00
eigval :       76.50   323.18   615.49   794.53   908.64   938.33
eigval :     1020.81  1271.21  1407.78
 reduced masses (amu)
   1: 12.01   2: 12.01   3: 12.01   4: 12.01   5: 12.01   6: 12.01   7: 12.01   8: 12.01
   9: 12.01  10: 12.01  11: 12.01  12: 12.01  13: 12.01  14: 12.01  15: 12.01
 IR intensities (amu)
   1:  0.08   2:  0.11   3:  0.15   4:  0.12   5:  0.17   6:  0.12   7:  1.51   8:  0.16
   9:  0.52  10:  0.31  11:  0.05  12:  0.70  13:  1.26  14:  1.25  15:  0.23
 Raman intensities (amu)
   1:  0.00   2:  0.00   3:  0.00   4:  0.00   5:  0.00   6:  0.00   7:  0.00   8:  0.00
   9:  0.00  10:  0.00  11:  0.00  12:  0.00  13:  0.00  14:  0.00  15:  0.00
 output can be read by thermo (or use thermo option).
 writing <g98.out> molden fake output.
 recommended (thermochemical) frequency scaling factor: 1.0
           -------------------------------------------------
          |             Thermodynamic Functions             |
           -------------------------------------------------

c2v symmetry found (for desy threshold:  0.10E+00) used in thermo

          ...................................................
          :                      SETUP                      :
          :.................................................:
          :  # frequencies                           9      :
          :  # imaginary freq.                       0      :
          :  linear?                             false      :
          :  only rotor calc.                    false      :
          :  symmetry                              c2v      :
          :  rotational number                       2      :
          :  scaling factor                  1.0000000      :
          :  rotor cutoff                   50.0000000 cm⁻¹ :
          :  imag. cutoff                  -20.0000000 cm⁻¹ :
          :.................................................:

    mode    ω/cm⁻¹     T·S(HO)/kcal·mol⁻¹    T·S(FR)/kcal·mol⁻¹   T·S(vib)
   ------------------------------------------------------------------------
       1     76.50    -0.00000 ( 84.57%)     0.00257 ( 15.43%)     0.00039
   ------------------------------------------------------------------------

   temp. (K)  partition function   enthalpy   heat capacity  entropy
                                   cal/mol     cal/K/mol   cal/K/mol   J/K/mol
 298.15  VIB   4.57                  976.998      6.812      6.164
         ROT  0.104E+05              888.752      2.981     21.364
         INT  0.476E+05             1865.750      9.793     27.529
         TR   0.450E+27             1481.254      4.968     38.181
         TOT                        3347.0038    14.7609    65.7092   274.9275

   temp. (K)  partition function   enthalpy   heat capacity  entropy
                                   cal/mol     cal/K/mol   cal/K/mol   J/K/mol
 120.00  VIB   1.70                  166.543      2.589      2.443
         ROT  0.266E+04              357.707      2.981     18.651
         INT  0.452E+04              524.249      5.570     21.094
         TR   0.115E+27              596.178      4.968     33.661
         TOT                        1120.4275    10.5385    54.7554   229.0964

   temp. (K)  partition function   enthalpy   heat capacity  entropy
                                   cal/mol     cal/K/mol   cal/K/mol   J/K/mol
 100.00  VIB   1.51                  118.236      2.244      2.027
         ROT  0.202E+04              298.089      2.981     18.108
         INT  0.306E+04              416.325      5.224     20.135
         TR   0.875E+26              496.815      4.968     32.756
         TOT                         913.1398    10.1926    52.8905   221.2939

   temp. (K)  partition function   enthalpy   heat capacity  entropy
                                   cal/mol     cal/K/mol   cal/K/mol   J/K/mol
  80.00  VIB   1.34                   76.736      1.907      1.591
         ROT  0.145E+04              238.471      2.981     17.443
         INT  0.194E+04              315.207      4.888     19.034
         TR   0.626E+26              397.452      4.968     31.648
         TOT                         712.6589     9.8565    50.6817   212.0521

   temp. (K)  partition function   enthalpy   heat capacity  entropy
                                   cal/mol     cal/K/mol   cal/K/mol   J/K/mol
  60.00  VIB   1.19                   41.969      1.564      1.121
         ROT   940.                  178.853      2.981     16.585
         INT  0.112E+04              220.822      4.545     17.706
         TR   0.406E+26              298.089      4.968     30.219
         TOT                         518.9109     9.5132    47.9252   200.5190

   temp. (K)  partition function   enthalpy   heat capacity  entropy
                                   cal/mol     cal/K/mol   cal/K/mol   J/K/mol
  40.00  VIB   1.07                   14.919      1.098      0.599
         ROT   512.                  119.236      2.981     15.376
         INT   546.                  134.155      4.079     15.975
         TR   0.221E+26              198.726      4.968     28.206
         TOT                         332.8805     9.0471    44.1812   184.8539

   temp. (K)  partition function   enthalpy   heat capacity  entropy
                                   cal/mol     cal/K/mol   cal/K/mol   J/K/mol
  20.00  VIB   1.00                    0.894      0.247      0.111
         ROT   181.                   59.618      2.981     13.310
         INT   182.                   60.512      3.228     13.421
         TR   0.782E+25               99.363      4.968     24.764
         TOT                         159.8753     8.1962    38.1846   159.7645

   temp. (K)  partition function   enthalpy   heat capacity  entropy
                                   cal/mol     cal/K/mol   cal/K/mol   J/K/mol
  10.00  VIB   1.00                    0.004      0.004     -0.041
         ROT   63.9                   29.809      2.981     11.244
         INT   63.9                   29.813      2.985     11.203
         TR   0.277E+25               49.681      4.968     21.322
         TOT                          79.4940     7.9530    32.5254   136.0862

       T/K    H(0)-H(T)+PV         H(T)/Eh          T*S/Eh         G(T)/Eh
   ------------------------------------------------------------------------
    298.15    0.533379E-02    0.220931E-01    0.312206E-01   -0.912752E-02
    120.00    0.178551E-02    0.185448E-01    0.104710E-01    0.807380E-02
    100.00    0.145518E-02    0.182144E-01    0.842864E-02    0.978581E-02
     80.00    0.113569E-02    0.178950E-01    0.646131E-02    0.114337E-01
     60.00    0.826937E-03    0.175862E-01    0.458242E-02    0.130038E-01
     40.00    0.530479E-03    0.172897E-01    0.281629E-02    0.144735E-01
     20.00    0.254777E-03    0.170140E-01    0.121702E-02    0.157970E-01
     10.00    0.126682E-03    0.168860E-01    0.518325E-03    0.163676E-01 (used)
   ------------------------------------------------------------------------

         :::::::::::::::::::::::::::::::::::::::::::::::::::::
         ::                  THERMODYNAMIC                  ::
         :::::::::::::::::::::::::::::::::::::::::::::::::::::
         :: total free energy         -10.164282852176 Eh   ::
         ::.................................................::
         :: total energy              -10.180650477607 Eh   ::
         :: zero point energy           0.016759268605 Eh   ::
         :: G(RRHO) w/o ZPVE           -0.000391643173 Eh   ::
         :: G(RRHO) contrib.            0.016367625432 Eh   ::
         :::::::::::::::::::::::::::::::::::::::::::::::::::::

optimized geometry written to: xtbopt.xyz


           -------------------------------------------------
          | TOTAL ENERGY              -10.180650477607 Eh   |
          | TOTAL ENTHALPY            -10.163764527205 Eh   |
          | TOTAL FREE ENERGY         -10.164282852176 Eh   |
          | GRADIENT NORM               0.000111371028 Eh/α |
          | HOMO-LUMO GAP               2.323072746132 eV   |
           -------------------------------------------------

------------------------------------------------------------------------
 * finished run on 2020/05/12 at 11:44:39.190     
------------------------------------------------------------------------
 total:
 * wall-time:     0 d,  0 h,  0 min,  0.210 sec
 *  cpu-time:     0 d,  0 h,  0 min,  0.209 sec
 * ratio c/w:     0.998 speedup
 SCF:
 * wall-time:     0 d,  0 h,  0 min,  0.006 sec
 *  cpu-time:     0 d,  0 h,  0 min,  0.006 sec
 * ratio c/w:     0.996 speedup
 ANC optimizer:
 * wall-time:     0 d,  0 h,  0 min,  0.069 sec
 *  cpu-time:     0 d,  0 h,  0 min,  0.069 sec
 * ratio c/w:     0.999 speedup
 numerical hessian:
 * wall-time:     0 d,  0 h,  0 min,  0.116 sec
 *  cpu-time:     0 d,  0 h,  0 min,  0.115 sec
 * ratio c/w:     0.997 speedup

