$hessian                                                                        
        0.6523879903  -0.3356447418   0.0485288750  -0.3749116789   0.1507319832
       -0.0874146108  -0.0241794214  -0.0188425455  -0.0505507314  -0.0806125945
        0.0534830149  -0.0046450657  -0.1726842955   0.1502722892   0.0940815330
       -0.3356447418   0.2459645733   0.0179165631   0.1523299906  -0.0932137645
        0.0438651276   0.0164615053   0.0019013853   0.0256529500   0.0293331500
       -0.0097013821  -0.0106065117   0.1375200958  -0.1449508120  -0.0768281291
        0.0485288750   0.0179165631   0.1121545769  -0.0845732454   0.0423364500
       -0.0424497538   0.0073935076  -0.0091284715  -0.0118017583  -0.0444948538
        0.0133029919  -0.0072280203   0.0731457165  -0.0644275335  -0.0506750445
       -0.3749116789   0.1523299906  -0.0845732454   0.6567015441  -0.2795207419
        0.1315223844  -0.1900587627   0.2240109178   0.1906946750  -0.0787203904
       -0.0973341056  -0.2210195150  -0.0130107121   0.0005139390  -0.0166242990
        0.1507319832  -0.0932137645   0.0423364500  -0.2795207419   0.1865511164
       -0.0442748808   0.1042224990  -0.1065578699  -0.0599870512   0.0102149218
        0.0132412056   0.0558158232   0.0143513380  -0.0000206875   0.0061096588
       -0.0874146108   0.0438651276  -0.0424497538   0.1315223844  -0.0442748808
        0.1026767588  -0.0057890263   0.0570797763   0.0797521095  -0.0445134406
       -0.0493032357  -0.1386272884   0.0061946933  -0.0073667874  -0.0013518261
       -0.0241794214   0.0164615053   0.0073935076  -0.1900587627   0.1042224990
       -0.0057890263   0.1847734917  -0.1374022623  -0.0517045697   0.0289537167
        0.0138889426   0.0509331775   0.0005109758   0.0028293154  -0.0008330890
       -0.0188425455   0.0019013853  -0.0091284715   0.2240109178  -0.1065578699
        0.0570797763  -0.1374022623   0.2028115805   0.1887503363  -0.0682601015
       -0.1022367802  -0.2338902587   0.0004939914   0.0040816844  -0.0028113824
       -0.0505507314   0.0256529500  -0.0118017583   0.1906946750  -0.0599870512
        0.0797521095  -0.0517045697   0.1887503363   0.2650292967  -0.0837750129
       -0.1537924231  -0.3337244702  -0.0046643610  -0.0006238120   0.0007448223
       -0.0806125945   0.0293331500  -0.0444948538  -0.0787203904   0.0102149218
       -0.0445134406   0.0289537167  -0.0682601015  -0.0837750129   0.1322148347
        0.0294841547   0.1705756993  -0.0018355664  -0.0007721250   0.0022076079
        0.0534830149  -0.0097013821   0.0133029919  -0.0973341056   0.0132412056
       -0.0493032357   0.0138889426  -0.1022367802  -0.1537924231   0.0294841547
        0.1024649100   0.1869156340   0.0004779934  -0.0037679533   0.0028770329
       -0.0046450657  -0.0106065117  -0.0072280203  -0.2210195150   0.0558158232
       -0.1386272884   0.0509331775  -0.2338902587  -0.3337244702   0.1705756993
        0.1869156340   0.4780410062   0.0041557039   0.0017653132   0.0015387726
       -0.1726842955   0.1375200958   0.0731457165  -0.0130107121   0.0143513380
        0.0061946933   0.0005109758   0.0004939914  -0.0046643610  -0.0018355664
        0.0004779934   0.0041557039   0.1870195982  -0.1528434186  -0.0788317529
        0.1502722892  -0.1449508120  -0.0644275335   0.0005139390  -0.0000206875
       -0.0073667874   0.0028293154   0.0040816844  -0.0006238120  -0.0007721250
       -0.0037679533   0.0017653132  -0.1528434186   0.1446577685   0.0706528198
        0.0940815330  -0.0768281291  -0.0506750445  -0.0166242990   0.0061096588
       -0.0013518261  -0.0008330890  -0.0028113824   0.0007448223   0.0022076079
        0.0028770329   0.0015387726  -0.0788317529   0.0706528198   0.0497432757
