5
 energy: -9.521837976504 gnorm: 0.000336388275 xtb: 6.2.2 (9d81278992624c895f80dd42a50cac0aa55982e2)
C         0.99633140263713   -0.33957457619844    0.41049679338461
C        -0.16386447596399    0.13153406516155    0.05589652850539
C        -1.32194513557805    0.96705588823301    0.30072556582994
N        -1.24395306464580    0.24886008815402   -0.80027150012577
H         1.73343127355420   -1.00787546534840    0.03315361240583
