$hessian                                                                        
        0.4321305941   0.1388030611   0.0717291751  -0.0890695615  -0.1007279691
       -0.0522057780  -0.1894758061   0.0104870538   0.0630413308  -0.1129683892
       -0.0479130137  -0.0172482527  -0.0406168373  -0.0006491320  -0.0653164752
        0.1388030611   0.1509042511   0.0492009499  -0.0763280165  -0.1530847400
       -0.0268471653  -0.0530628839  -0.0076647816   0.0196653253   0.0195832470
        0.0175172011   0.0068889195  -0.0289954078  -0.0076719306  -0.0489080293
        0.0717291751   0.0492009499   0.2542266897  -0.0522605804  -0.0354423776
        0.0402193381   0.1185522817  -0.0139665856  -0.0378750484  -0.0172598060
       -0.0170043460  -0.0702103016  -0.1207610704   0.0172123593  -0.1863606778
       -0.0890695615  -0.0763280165  -0.0522605804   0.1203953804  -0.0358249582
        0.0011066482   0.0177350052   0.0524284780   0.0628301477  -0.0704775761
        0.0492459356  -0.0540367347   0.0214167519   0.0104785611   0.0423605192
       -0.1007279691  -0.1530847400  -0.0354423776  -0.0358249582   0.4902063660
       -0.0129647601   0.0733485374  -0.1218303584  -0.0874062172   0.0612058469
       -0.0936688953   0.0217823152   0.0019985430  -0.1216223722   0.1140310397
       -0.0522057780  -0.0268471653   0.0402193381   0.0011066482  -0.0129647601
        0.1176895298   0.0468499006  -0.0480818598  -0.1084949811  -0.0540213798
        0.0175496973   0.0629237560   0.0582706090   0.0703440879  -0.1123376427
       -0.1894758061  -0.0530628839   0.1185522817   0.0177350052   0.0733485374
        0.0468499006   0.2569242114  -0.0212789021  -0.0825940251  -0.0448370734
        0.0057168799  -0.0953127264  -0.0403463371  -0.0047236314   0.0125045692
        0.0104870538  -0.0076647816  -0.0139665856   0.0524284780  -0.1218303584
       -0.0480818598  -0.0212789021   0.0960349041   0.0942671660  -0.0118349120
        0.0072090933  -0.0615293787  -0.0298017177   0.0262511426   0.0293106581
        0.0630413308   0.0196653253  -0.0378750484   0.0628301477  -0.0874062172
       -0.1084949811  -0.0825940251   0.0942671660   0.4189245988  -0.0840064681
        0.0151991920  -0.1665800998   0.0407290147  -0.0417254661  -0.1059744695
       -0.1129683892   0.0195832470  -0.0172598060  -0.0704775761   0.0612058469
       -0.0540213798  -0.0448370734  -0.0118349120  -0.0840064681   0.4088592026
       -0.0212484314   0.0827766465  -0.1805761639  -0.0477057504   0.0725110074
       -0.0479130137   0.0175172011  -0.0170043460   0.0492459356  -0.0936688953
        0.0175496973   0.0057168799   0.0072090933   0.0151991920  -0.0212484314
        0.0616811222  -0.0074290625   0.0141986297   0.0072614787  -0.0083154809
       -0.0172482527   0.0068889195  -0.0702103016  -0.0540367347   0.0217823152
        0.0629237560  -0.0953127264  -0.0615293787  -0.1665800998   0.0827766465
       -0.0074290625   0.2045903566   0.0838210673   0.0402872065  -0.0307237111
       -0.0406168373  -0.0289954078  -0.1207610704   0.0214167519   0.0019985430
        0.0582706090  -0.0403463371  -0.0298017177   0.0407290147  -0.1805761639
        0.0141986297   0.0838210673   0.2401225865   0.0425999527  -0.0620596206
       -0.0006491320  -0.0076719306   0.0172123593   0.0104785611  -0.1216223722
        0.0703440879  -0.0047236314   0.0262511426  -0.0417254661  -0.0477057504
        0.0072614787   0.0402872065   0.0425999527   0.0957816815  -0.0861181876
       -0.0653164752  -0.0489080293  -0.1863606778   0.0423605192   0.1140310397
       -0.1123376427   0.0125045692   0.0293106581  -0.1059744695   0.0725110074
       -0.0083154809  -0.0307237111  -0.0620596206  -0.0861181876   0.4353965011
