 Entering Gaussian System, Link 0=g16
 Input=C5H3_2X.com
 Output=C5H3_2X.log
 Initial command:
 /home/spantaleone/g16/l1.exe "/scratch/cnt0027/pag0797/spantaleone/GAUSSIAN/gauss_scratch/Gau-8862.inp" -scrdir="/scratch/cnt0027/pag0797/spantaleone/GAUSSIAN/gauss_scratch/"
 Entering Link 1 = /home/spantaleone/g16/l1.exe PID=      8863.
  
 Copyright (c) 1988-2017, Gaussian, Inc.  All Rights Reserved.
  
 This is part of the Gaussian(R) 16 program.  It is based on
 the Gaussian(R) 09 system (copyright 2009, Gaussian, Inc.),
 the Gaussian(R) 03 system (copyright 2003, Gaussian, Inc.),
 the Gaussian(R) 98 system (copyright 1998, Gaussian, Inc.),
 the Gaussian(R) 94 system (copyright 1995, Gaussian, Inc.),
 the Gaussian 92(TM) system (copyright 1992, Gaussian, Inc.),
 the Gaussian 90(TM) system (copyright 1990, Gaussian, Inc.),
 the Gaussian 88(TM) system (copyright 1988, Gaussian, Inc.),
 the Gaussian 86(TM) system (copyright 1986, Carnegie Mellon
 University), and the Gaussian 82(TM) system (copyright 1983,
 Carnegie Mellon University). Gaussian is a federally registered
 trademark of Gaussian, Inc.
  
 This software contains proprietary and confidential information,
 including trade secrets, belonging to Gaussian, Inc.
  
 This software is provided under written license and may be
 used, copied, transmitted, or stored only in accord with that
 written license.
  
 The following legend is applicable only to US Government
 contracts under FAR:
  
                    RESTRICTED RIGHTS LEGEND
  
 Use, reproduction and disclosure by the US Government is
 subject to restrictions as set forth in subparagraphs (a)
 and (c) of the Commercial Computer Software - Restricted
 Rights clause in FAR 52.227-19.
  
 Gaussian, Inc.
 340 Quinnipiac St., Bldg. 40, Wallingford CT 06492
  
  
 ---------------------------------------------------------------
 Warning -- This program may not be used in any manner that
 competes with the business of Gaussian, Inc. or will provide
 assistance to any competitor of Gaussian, Inc.  The licensee
 of this program is prohibited from giving any competitor of
 Gaussian, Inc. access to this program.  By using this program,
 the user acknowledges that Gaussian, Inc. is engaged in the
 business of creating and licensing software in the field of
 computational chemistry and represents and warrants to the
 licensee that it is not a competitor of Gaussian, Inc. and that
 it will not use this program in any manner prohibited above.
 ---------------------------------------------------------------
  

 Cite this work as:
 Gaussian 16, Revision B.01,
 M. J. Frisch, G. W. Trucks, H. B. Schlegel, G. E. Scuseria, 
 M. A. Robb, J. R. Cheeseman, G. Scalmani, V. Barone, 
 G. A. Petersson, H. Nakatsuji, X. Li, M. Caricato, A. V. Marenich, 
 J. Bloino, B. G. Janesko, R. Gomperts, B. Mennucci, H. P. Hratchian, 
 J. V. Ortiz, A. F. Izmaylov, J. L. Sonnenberg, D. Williams-Young, 
 F. Ding, F. Lipparini, F. Egidi, J. Goings, B. Peng, A. Petrone, 
 T. Henderson, D. Ranasinghe, V. G. Zakrzewski, J. Gao, N. Rega, 
 G. Zheng, W. Liang, M. Hada, M. Ehara, K. Toyota, R. Fukuda, 
 J. Hasegawa, M. Ishida, T. Nakajima, Y. Honda, O. Kitao, H. Nakai, 
 T. Vreven, K. Throssell, J. A. Montgomery, Jr., J. E. Peralta, 
 F. Ogliaro, M. J. Bearpark, J. J. Heyd, E. N. Brothers, K. N. Kudin, 
 V. N. Staroverov, T. A. Keith, R. Kobayashi, J. Normand, 
 K. Raghavachari, A. P. Rendell, J. C. Burant, S. S. Iyengar, 
 J. Tomasi, M. Cossi, J. M. Millam, M. Klene, C. Adamo, R. Cammi, 
 J. W. Ochterski, R. L. Martin, K. Morokuma, O. Farkas, 
 J. B. Foresman, and D. J. Fox, Gaussian, Inc., Wallingford CT, 2016.
 
 ******************************************
 Gaussian 16:  ES64L-G16RevB.01 20-Dec-2017
                12-Oct-2020 
 ******************************************
 %nosave
 %nproc=8
 Will use up to    8 processors via shared memory.
 %mem=2gb
 %chk=input
 ----------------------------------------------------------------
 #P M062X/cc-pvtz nosymm opt(noeigentest) optcyc=120 freq scf=xqc
 ----------------------------------------------------------------
 1/6=120,11=1,18=20,19=15,26=3,38=1/1,3;
 2/9=110,12=2,15=1,17=6,18=5,40=1/2;
 3/5=16,6=1,11=2,25=1,30=1,71=1,74=-55/1,2,3;
 4//1;
 5/5=2,8=3,13=1,38=5/2,8;
 6/7=2,8=2,9=2,10=2,28=1/1;
 7/30=1/1,2,3,16;
 1/6=120,11=1,18=20,19=15,26=3/3(2);
 2/9=110,15=1/2;
 99//99;
 2/9=110,15=1/2;
 3/5=16,6=1,11=2,25=1,30=1,71=1,74=-55/1,2,3;
 4/5=5,16=3,69=1/1;
 5/5=2,8=3,13=1,38=5/2,8;
 7/30=1/1,2,3,16;
 1/6=120,11=1,18=20,19=15,26=3/3(-5);
 2/9=110,15=1/2;
 6/7=2,8=2,9=2,10=2,19=2,28=1/1;
 99/9=1/99;
 Leave Link    1 at Mon Oct 12 17:20:56 2020, MaxMem=   268435456 cpu:               0.4 elap:               0.1
 (Enter /home/spantaleone/g16/l101.exe)
 -----
 Title
 -----
 Symbolic Z-matrix:
 Charge =  0 Multiplicity = 2
 C
 C                    1    B1
 C                    2    B2       1    A2
 C                    3    B3       2    A3       1    D3       0
 C                    4    B4       3    A4       2    D4       0
 H                    5    B5       4    A5       3    D5       0
 H                    1    B6       2    A6       3    D6       0
 H                    1    B7       2    A7       3    D7       0
       Variables:
  B1                    1.463                    
  B2                    1.20538                  
  A2                  179.97438                  
  B3                    1.41176                  
  A3                  179.97438                  
  D3                  347.18307                  
  B4                    1.20531                  
  A4                  179.97438                  
  D4                    7.09917                  
  B5                    1.05834                  
  A5                  179.97438                  
  D5                    1.53374                  
  B6                    1.10945                  
  A6                  109.4886                   
  D6                   79.52201                  
  B7                    1.10944                  
  A7                  109.50055                  
  D7                  199.5581                   
 
 ITRead=  0  0  0  0  0  0  0  0
 MicOpt= -1 -1 -1 -1 -1 -1 -1 -1
 NAtoms=      8 NQM=        8 NQMF=       0 NMMI=      0 NMMIF=      0
                NMic=       0 NMicF=      0.
                    Isotopes and Nuclear Properties:
 (Nuclear quadrupole moments (NQMom) in fm**2, nuclear magnetic moments (NMagM)
  in nuclear magnetons)

  Atom         1           2           3           4           5           6           7           8
 IAtWgt=          12          12          12          12          12           1           1           1
 AtmWgt=  12.0000000  12.0000000  12.0000000  12.0000000  12.0000000   1.0078250   1.0078250   1.0078250
 NucSpn=           0           0           0           0           0           1           1           1
 AtZEff=  -0.0000000  -0.0000000  -0.0000000  -0.0000000  -0.0000000  -0.0000000  -0.0000000  -0.0000000
 NQMom=    0.0000000   0.0000000   0.0000000   0.0000000   0.0000000   0.0000000   0.0000000   0.0000000
 NMagM=    0.0000000   0.0000000   0.0000000   0.0000000   0.0000000   2.7928460   2.7928460   2.7928460
 AtZNuc=   6.0000000   6.0000000   6.0000000   6.0000000   6.0000000   1.0000000   1.0000000   1.0000000
 Leave Link  101 at Mon Oct 12 17:20:56 2020, MaxMem=   268435456 cpu:               2.0 elap:               0.3
 (Enter /home/spantaleone/g16/l103.exe)

 GradGradGradGradGradGradGradGradGradGradGradGradGradGradGradGradGradGrad
 Berny optimization.
 Initialization pass.
                           ----------------------------
                           !    Initial Parameters    !
                           ! (Angstroms and Degrees)  !
 --------------------------                            --------------------------
 ! Name  Definition              Value          Derivative Info.                !
 --------------------------------------------------------------------------------
 ! R1    R(1,2)                  1.463          estimate D2E/DX2                !
 ! R2    R(1,7)                  1.1095         estimate D2E/DX2                !
 ! R3    R(1,8)                  1.1094         estimate D2E/DX2                !
 ! R4    R(2,3)                  1.2054         estimate D2E/DX2                !
 ! R5    R(3,4)                  1.4118         estimate D2E/DX2                !
 ! R6    R(4,5)                  1.2053         estimate D2E/DX2                !
 ! R7    R(5,6)                  1.0583         estimate D2E/DX2                !
 ! A1    A(2,1,7)              109.4886         estimate D2E/DX2                !
 ! A2    A(2,1,8)              109.5005         estimate D2E/DX2                !
 ! A3    A(7,1,8)              109.4773         estimate D2E/DX2                !
 ! A4    L(1,2,3,7,-1)         179.9953         estimate D2E/DX2                !
 ! A5    L(2,3,4,7,-1)         179.9898         estimate D2E/DX2                !
 ! A6    L(3,4,5,7,-1)         179.9928         estimate D2E/DX2                !
 ! A7    L(4,5,6,7,-1)         179.9934         estimate D2E/DX2                !
 ! A8    L(1,2,3,7,-2)         179.9492         estimate D2E/DX2                !
 ! A9    L(2,3,4,7,-2)         179.9278         estimate D2E/DX2                !
 ! A10   L(3,4,5,7,-2)         179.8927         estimate D2E/DX2                !
 ! A11   L(4,5,6,7,-2)         179.8641         estimate D2E/DX2                !
 ! D1    D(2,1,8,7)           -120.043          estimate D2E/DX2                !
 --------------------------------------------------------------------------------
 Trust Radius=3.00D-01 FncErr=1.00D-07 GrdErr=1.00D-06 EigMax=2.50D+02 EigMin=1.00D-04
 Number of steps in this run=    100 maximum allowed number of steps=    100.
 GradGradGradGradGradGradGradGradGradGradGradGradGradGradGradGradGradGrad

 Leave Link  103 at Mon Oct 12 17:20:57 2020, MaxMem=   268435456 cpu:               0.1 elap:               0.0
 (Enter /home/spantaleone/g16/l202.exe)
                          Input orientation:                          
 ---------------------------------------------------------------------
 Center     Atomic      Atomic             Coordinates (Angstroms)
 Number     Number       Type             X           Y           Z
 ---------------------------------------------------------------------
      1          6           0        0.000000    0.000000    0.000000
      2          6           0        0.000000    0.000000    1.463000
      3          6           0        0.000539    0.000000    2.668380
      4          6           0        0.001786   -0.000140    4.080139
      5          6           0        0.003387   -0.000313    5.285448
      6          1           0        0.005264   -0.000500    6.343787
      7          1           0        0.190203   -1.028447   -0.370134
      8          1           0       -0.985461    0.350095   -0.370349
 ---------------------------------------------------------------------
                    Distance matrix (angstroms):
                    1          2          3          4          5
     1  C    0.000000
     2  C    1.463000   0.000000
     3  C    2.668380   1.205380   0.000000
     4  C    4.080140   2.617140   1.411760   0.000000
     5  C    5.285449   3.822450   2.617070   1.205310   0.000000
     6  H    6.343789   4.880789   3.675410   2.263650   1.058340
     7  H    1.109450   2.110512   3.213447   4.571416   5.751310
     8  H    1.109440   2.110655   3.213819   4.572107   5.752273
                    6          7          8
     6  H    0.000000
     7  H    6.794675   0.000000
     8  H    6.795886   1.811784   0.000000
 Symmetry turned off by external request.
 Stoichiometry    C5H3(2)
 Framework group  C1[X(C5H3)]
 Deg. of freedom    18
 Full point group                 C1      NOp   1
 Rotational constants (GHZ):         235.7599521           2.0905999           2.0805761
 Leave Link  202 at Mon Oct 12 17:20:57 2020, MaxMem=   268435456 cpu:               0.1 elap:               0.0
 (Enter /home/spantaleone/g16/l301.exe)
 Standard basis: CC-pVTZ (5D, 7F)
 Ernie: Thresh=  0.10000D-02 Tol=  0.10000D-05 Strict=F.
 Ernie:  15 primitive shells out of 154 were deleted.
   192 basis functions,   311 primitive gaussians,   220 cartesian basis functions
    17 alpha electrons       16 beta electrons
       nuclear repulsion energy       113.1469851786 Hartrees.
 IExCor= 4336 DFT=T Ex+Corr=M062X ExCW=0 ScaHFX=  0.540000
 ScaDFX=  1.000000  1.000000  1.000000  1.000000 ScalE2=  1.000000  1.000000
 IRadAn=      5 IRanWt=     -1 IRanGd=            0 ICorTp=0 IEmpDi=  4
 NAtoms=    8 NActive=    8 NUniq=    8 SFac= 1.00D+00 NAtFMM=   60 NAOKFM=F Big=F
 Integral buffers will be    131072 words long.
 Raffenetti 2 integral format.
 Two-electron integral symmetry is turned off.
 Leave Link  301 at Mon Oct 12 17:20:57 2020, MaxMem=   268435456 cpu:               0.5 elap:               0.1
 (Enter /home/spantaleone/g16/l302.exe)
 NPDir=0 NMtPBC=     1 NCelOv=     1 NCel=       1 NClECP=     1 NCelD=      1
         NCelK=      1 NCelE2=     1 NClLst=     1 CellRange=     0.0.
 One-electron integrals computed using PRISM.
 GSVD:  received Info=                   1 from GESDD.
 NBasis=   192 RedAO= T EigKep=  1.49D-05  NBF=   192
 NBsUse=   192 1.00D-06 EigRej= -1.00D+00 NBFU=   192
 Precomputing XC quadrature grid using
 IXCGrd= 4 IRadAn=           5 IRanWt=          -1 IRanGd=           0 AccXCQ= 0.00D+00.
 Generated NRdTot=       0 NPtTot=           0 NUsed=           0 NTot=          32
 NSgBfM=   220   220   220   220   220 MxSgAt=     8 MxSgA2=     8.
 Leave Link  302 at Mon Oct 12 17:20:57 2020, MaxMem=   268435456 cpu:               1.8 elap:               0.2
 (Enter /home/spantaleone/g16/l303.exe)
 DipDrv:  MaxL=1.
 Leave Link  303 at Mon Oct 12 17:20:57 2020, MaxMem=   268435456 cpu:               0.4 elap:               0.1
 (Enter /home/spantaleone/g16/l401.exe)
 ExpMin= 1.03D-01 ExpMax= 8.24D+03 ExpMxC= 2.81D+02 IAcc=3 IRadAn=         5 AccDes= 0.00D+00
 Harris functional with IExCor= 1009 and IRadAn=       5 diagonalized for initial guess.
 HarFok:  IExCor= 1009 AccDes= 0.00D+00 IRadAn=         5 IDoV= 1 UseB2=F ITyADJ=14
 ICtDFT=  3500011 ScaDFX=  1.000000  1.000000  1.000000  1.000000
 FoFCou: FMM=F IPFlag=           0 FMFlag=      100000 FMFlg1=           0
         NFxFlg=           0 DoJE=T BraDBF=F KetDBF=T FulRan=T
         wScrn=  0.000000 ICntrl=       500 IOpCl=  0 I1Cent=   200000004 NGrid=           0
         NMat0=    1 NMatS0=      1 NMatT0=    0 NMatD0=    1 NMtDS0=    0 NMtDT0=    0
 Symmetry not used in FoFCou.
 Harris En= -192.049696517279    
 JPrj=0 DoOrth=F DoCkMO=F.
 Initial guess <Sx>= 0.0000 <Sy>= 0.0000 <Sz>= 0.5000 <S**2>= 0.7500 S= 0.5000
 Leave Link  401 at Mon Oct 12 17:20:58 2020, MaxMem=   268435456 cpu:               6.0 elap:               0.8
 (Enter /home/spantaleone/g16/l502.exe)
 Two-electron integral symmetry not used.
 UHF open shell SCF:
 Using DIIS extrapolation, IDIIS=  1040.
 NGot=   268435456 LenX=   268335398 LenY=   268286557
 Requested convergence on RMS density matrix=1.00D-08 within  32 cycles.
 Requested convergence on MAX density matrix=1.00D-06.
 Requested convergence on             energy=1.00D-06.
 No special actions if energy rises.
 Fock matrices will be formed incrementally for  20 cycles.
 Integral accuracy reduced to 1.0D-05 until final iterations.

 Cycle   1  Pass 0  IDiag  1:
 FoFJK:  IHMeth= 1 ICntrl=       0 DoSepK=F KAlg= 0 I1Cent=           0 FoldK=F
 IRaf= 930000000 NMat=       1 IRICut=       1 DoRegI=T DoRafI=F ISym2E= 0 IDoP0=0 IntGTp=1.
 FoFCou: FMM=F IPFlag=           0 FMFlag=      100000 FMFlg1=           0
         NFxFlg=           0 DoJE=F BraDBF=F KetDBF=F FulRan=T
         wScrn=  0.000000 ICntrl=         0 IOpCl=  1 I1Cent=           0 NGrid=           0
         NMat0=    1 NMatS0=      1 NMatT0=    0 NMatD0=    1 NMtDS0=    0 NMtDT0=    0
 Symmetry not used in FoFCou.
 E= -191.988829239359    
 DIIS: error= 3.20D-02 at cycle   1 NSaved=   1.
 NSaved= 1 IEnMin= 1 EnMin= -191.988829239359     IErMin= 1 ErrMin= 3.20D-02
 ErrMax= 3.20D-02  0.00D+00 EMaxC= 1.00D-01 BMatC= 5.85D-01 BMatP= 5.85D-01
 IDIUse=3 WtCom= 6.80D-01 WtEn= 3.20D-01
 Coeff-Com:  0.100D+01
 Coeff-En:   0.100D+01
 Coeff:      0.100D+01
 Gap=     0.327 Goal=   None    Shift=    0.000
 Gap=     0.201 Goal=   None    Shift=    0.000
 GapD=    0.201 DampG=1.000 DampE=0.500 DampFc=0.5000 IDamp=-1.
 Damping current iteration by 5.00D-01
 RMSDP=3.45D-03 MaxDP=9.92D-02              OVMax= 1.37D-01

 Cycle   2  Pass 0  IDiag  1:
 RMSU=  1.72D-03    CP:  9.89D-01
 E= -192.059246161699     Delta-E=       -0.070416922340 Rises=F Damp=T
 DIIS: error= 8.44D-03 at cycle   2 NSaved=   2.
 NSaved= 2 IEnMin= 2 EnMin= -192.059246161699     IErMin= 2 ErrMin= 8.44D-03
 ErrMax= 8.44D-03  0.00D+00 EMaxC= 1.00D-01 BMatC= 5.31D-02 BMatP= 5.85D-01
 IDIUse=3 WtCom= 9.16D-01 WtEn= 8.44D-02
 Coeff-Com: -0.320D+00 0.132D+01
 Coeff-En:   0.000D+00 0.100D+01
 Coeff:     -0.293D+00 0.129D+01
 Gap=     0.300 Goal=   None    Shift=    0.000
 Gap=     0.233 Goal=   None    Shift=    0.000
 RMSDP=2.46D-03 MaxDP=8.73D-02 DE=-7.04D-02 OVMax= 9.00D-02

 Cycle   3  Pass 0  IDiag  1:
 RMSU=  2.02D-03    CP:  1.02D+00  1.78D+00
 E= -192.118740422733     Delta-E=       -0.059494261033 Rises=F Damp=F
 DIIS: error= 2.55D-03 at cycle   3 NSaved=   3.
 NSaved= 3 IEnMin= 3 EnMin= -192.118740422733     IErMin= 3 ErrMin= 2.55D-03
 ErrMax= 2.55D-03  0.00D+00 EMaxC= 1.00D-01 BMatC= 2.24D-03 BMatP= 5.31D-02
 IDIUse=3 WtCom= 9.74D-01 WtEn= 2.55D-02
 Coeff-Com: -0.673D-01 0.197D+00 0.871D+00
 Coeff-En:   0.000D+00 0.000D+00 0.100D+01
 Coeff:     -0.656D-01 0.192D+00 0.874D+00
 Gap=     0.302 Goal=   None    Shift=    0.000
 Gap=     0.224 Goal=   None    Shift=    0.000
 RMSDP=4.11D-04 MaxDP=1.96D-02 DE=-5.95D-02 OVMax= 2.46D-02

 Cycle   4  Pass 0  IDiag  1:
 RMSU=  3.13D-04    CP:  1.02D+00  1.83D+00  1.12D+00
 E= -192.119583967657     Delta-E=       -0.000843544924 Rises=F Damp=F
 DIIS: error= 2.72D-03 at cycle   4 NSaved=   4.
 NSaved= 4 IEnMin= 4 EnMin= -192.119583967657     IErMin= 3 ErrMin= 2.55D-03
 ErrMax= 2.72D-03  0.00D+00 EMaxC= 1.00D-01 BMatC= 1.25D-03 BMatP= 2.24D-03
 IDIUse=3 WtCom= 9.73D-01 WtEn= 2.72D-02
 Coeff-Com: -0.178D-01 0.354D-01 0.424D+00 0.558D+00
 Coeff-En:   0.000D+00 0.000D+00 0.000D+00 0.100D+01
 Coeff:     -0.173D-01 0.345D-01 0.413D+00 0.570D+00
 Gap=     0.300 Goal=   None    Shift=    0.000
 Gap=     0.230 Goal=   None    Shift=    0.000
 RMSDP=1.14D-04 MaxDP=6.22D-03 DE=-8.44D-04 OVMax= 1.91D-02

 Cycle   5  Pass 0  IDiag  1:
 RMSU=  9.85D-05    CP:  1.03D+00  1.84D+00  1.15D+00  1.01D+00
 E= -192.120055359112     Delta-E=       -0.000471391455 Rises=F Damp=F
 DIIS: error= 1.00D-03 at cycle   5 NSaved=   5.
 NSaved= 5 IEnMin= 5 EnMin= -192.120055359112     IErMin= 5 ErrMin= 1.00D-03
 ErrMax= 1.00D-03  0.00D+00 EMaxC= 1.00D-01 BMatC= 2.86D-04 BMatP= 1.25D-03
 IDIUse=3 WtCom= 9.90D-01 WtEn= 1.00D-02
 Coeff-Com:  0.923D-02-0.332D-01-0.790D-01 0.241D+00 0.862D+00
 Coeff-En:   0.000D+00 0.000D+00 0.000D+00 0.000D+00 0.100D+01
 Coeff:      0.914D-02-0.328D-01-0.782D-01 0.238D+00 0.864D+00
 Gap=     0.301 Goal=   None    Shift=    0.000
 Gap=     0.233 Goal=   None    Shift=    0.000
 RMSDP=1.19D-04 MaxDP=5.09D-03 DE=-4.71D-04 OVMax= 1.20D-02

 Cycle   6  Pass 0  IDiag  1:
 RMSU=  5.70D-05    CP:  1.03D+00  1.84D+00  1.17D+00  1.29D+00  1.19D+00
 E= -192.120250813753     Delta-E=       -0.000195454641 Rises=F Damp=F
 DIIS: error= 4.73D-04 at cycle   6 NSaved=   6.
 NSaved= 6 IEnMin= 6 EnMin= -192.120250813753     IErMin= 6 ErrMin= 4.73D-04
 ErrMax= 4.73D-04  0.00D+00 EMaxC= 1.00D-01 BMatC= 9.24D-05 BMatP= 2.86D-04
 IDIUse=3 WtCom= 9.95D-01 WtEn= 4.73D-03
 Coeff-Com:  0.114D-01-0.313D-01-0.239D+00-0.810D-01 0.438D+00 0.902D+00
 Coeff-En:   0.000D+00 0.000D+00 0.000D+00 0.000D+00 0.000D+00 0.100D+01
 Coeff:      0.113D-01-0.311D-01-0.238D+00-0.807D-01 0.436D+00 0.902D+00
 Gap=     0.303 Goal=   None    Shift=    0.000
 Gap=     0.234 Goal=   None    Shift=    0.000
 RMSDP=9.38D-05 MaxDP=4.53D-03 DE=-1.95D-04 OVMax= 1.07D-02

 Cycle   7  Pass 0  IDiag  1:
 RMSU=  3.09D-05    CP:  1.03D+00  1.83D+00  1.19D+00  1.50D+00  1.58D+00
                    CP:  1.45D+00
 E= -192.120328656604     Delta-E=       -0.000077842851 Rises=F Damp=F
 DIIS: error= 2.01D-04 at cycle   7 NSaved=   7.
 NSaved= 7 IEnMin= 7 EnMin= -192.120328656604     IErMin= 7 ErrMin= 2.01D-04
 ErrMax= 2.01D-04  0.00D+00 EMaxC= 1.00D-01 BMatC= 1.28D-05 BMatP= 9.24D-05
 IDIUse=3 WtCom= 9.98D-01 WtEn= 2.01D-03
 Coeff-Com:  0.118D-02-0.293D-02-0.637D-01-0.495D-01-0.152D-01 0.306D+00
 Coeff-Com:  0.824D+00
 Coeff-En:   0.000D+00 0.000D+00 0.000D+00 0.000D+00 0.000D+00 0.000D+00
 Coeff-En:   0.100D+01
 Coeff:      0.118D-02-0.292D-02-0.636D-01-0.494D-01-0.152D-01 0.305D+00
 Coeff:      0.825D+00
 Gap=     0.303 Goal=   None    Shift=    0.000
 Gap=     0.234 Goal=   None    Shift=    0.000
 RMSDP=2.92D-05 MaxDP=9.10D-04 DE=-7.78D-05 OVMax= 3.11D-03

 Cycle   8  Pass 0  IDiag  1:
 RMSU=  1.70D-05    CP:  1.03D+00  1.83D+00  1.19D+00  1.56D+00  1.63D+00
                    CP:  1.63D+00  1.26D+00
 E= -192.120336836660     Delta-E=       -0.000008180056 Rises=F Damp=F
 DIIS: error= 1.75D-04 at cycle   8 NSaved=   8.
 NSaved= 8 IEnMin= 8 EnMin= -192.120336836660     IErMin= 8 ErrMin= 1.75D-04
 ErrMax= 1.75D-04  0.00D+00 EMaxC= 1.00D-01 BMatC= 5.63D-06 BMatP= 1.28D-05
 IDIUse=3 WtCom= 9.98D-01 WtEn= 1.75D-03
 Coeff-Com: -0.164D-02 0.464D-02 0.476D-02-0.980D-02-0.842D-01 0.991D-02
 Coeff-Com:  0.471D+00 0.605D+00
 Coeff-En:   0.000D+00 0.000D+00 0.000D+00 0.000D+00 0.000D+00 0.000D+00
 Coeff-En:   0.000D+00 0.100D+01
 Coeff:     -0.164D-02 0.463D-02 0.475D-02-0.978D-02-0.840D-01 0.990D-02
 Coeff:      0.471D+00 0.606D+00
 Gap=     0.303 Goal=   None    Shift=    0.000
 Gap=     0.234 Goal=   None    Shift=    0.000
 RMSDP=9.70D-06 MaxDP=3.31D-04 DE=-8.18D-06 OVMax= 1.02D-03

 Initial convergence to 1.0D-05 achieved.  Increase integral accuracy.
 Cycle   9  Pass 1  IDiag  1:
 E= -192.120347826665     Delta-E=       -0.000010990005 Rises=F Damp=F
 DIIS: error= 9.84D-05 at cycle   1 NSaved=   1.
 NSaved= 1 IEnMin= 1 EnMin= -192.120347826665     IErMin= 1 ErrMin= 9.84D-05
 ErrMax= 9.84D-05  0.00D+00 EMaxC= 1.00D-01 BMatC= 2.88D-06 BMatP= 2.88D-06
 IDIUse=1 WtCom= 1.00D+00 WtEn= 0.00D+00
 Coeff-Com:  0.100D+01
 Coeff:      0.100D+01
 Gap=     0.303 Goal=   None    Shift=    0.000
 Gap=     0.234 Goal=   None    Shift=    0.000
 RMSDP=9.70D-06 MaxDP=3.31D-04 DE=-1.10D-05 OVMax= 6.32D-04

 Cycle  10  Pass 1  IDiag  1:
 RMSU=  1.64D-04    CP:  1.00D+00
 E= -192.120348171237     Delta-E=       -0.000000344572 Rises=F Damp=F
 DIIS: error= 8.65D-05 at cycle   2 NSaved=   2.
 NSaved= 2 IEnMin= 2 EnMin= -192.120348171237     IErMin= 2 ErrMin= 8.65D-05
 ErrMax= 8.65D-05  0.00D+00 EMaxC= 1.00D-01 BMatC= 1.57D-06 BMatP= 2.88D-06
 IDIUse=1 WtCom= 1.00D+00 WtEn= 0.00D+00
 Coeff-Com:  0.389D+00 0.611D+00
 Coeff:      0.389D+00 0.611D+00
 Gap=     0.303 Goal=   None    Shift=    0.000
 Gap=     0.234 Goal=   None    Shift=    0.000
 RMSDP=5.36D-06 MaxDP=2.53D-04 DE=-3.45D-07 OVMax= 4.02D-04

 Cycle  11  Pass 1  IDiag  1:
 RMSU=  3.65D-06    CP:  1.00D+00  1.02D+00
 E= -192.120348467379     Delta-E=       -0.000000296142 Rises=F Damp=F
 DIIS: error= 5.43D-05 at cycle   3 NSaved=   3.
 NSaved= 3 IEnMin= 3 EnMin= -192.120348467379     IErMin= 3 ErrMin= 5.43D-05
 ErrMax= 5.43D-05  0.00D+00 EMaxC= 1.00D-01 BMatC= 7.85D-07 BMatP= 1.57D-06
 IDIUse=1 WtCom= 1.00D+00 WtEn= 0.00D+00
 Coeff-Com: -0.381D-01 0.412D+00 0.626D+00
 Coeff:     -0.381D-01 0.412D+00 0.626D+00
 Gap=     0.303 Goal=   None    Shift=    0.000
 Gap=     0.234 Goal=   None    Shift=    0.000
 RMSDP=5.07D-06 MaxDP=1.93D-04 DE=-2.96D-07 OVMax= 2.63D-04

 Cycle  12  Pass 1  IDiag  1:
 RMSU=  2.39D-06    CP:  1.00D+00  1.05D+00  9.91D-01
 E= -192.120348714321     Delta-E=       -0.000000246942 Rises=F Damp=F
 DIIS: error= 1.50D-05 at cycle   4 NSaved=   4.
 NSaved= 4 IEnMin= 4 EnMin= -192.120348714321     IErMin= 4 ErrMin= 1.50D-05
 ErrMax= 1.50D-05  0.00D+00 EMaxC= 1.00D-01 BMatC= 3.62D-08 BMatP= 7.85D-07
 IDIUse=1 WtCom= 1.00D+00 WtEn= 0.00D+00
 Coeff-Com: -0.387D-01 0.834D-01 0.160D+00 0.796D+00
 Coeff:     -0.387D-01 0.834D-01 0.160D+00 0.796D+00
 Gap=     0.303 Goal=   None    Shift=    0.000
 Gap=     0.234 Goal=   None    Shift=    0.000
 RMSDP=1.25D-06 MaxDP=4.82D-05 DE=-2.47D-07 OVMax= 1.58D-04

 Cycle  13  Pass 1  IDiag  1:
 RMSU=  8.62D-07    CP:  1.00D+00  1.05D+00  1.07D+00  1.30D+00
 E= -192.120348746684     Delta-E=       -0.000000032363 Rises=F Damp=F
 DIIS: error= 9.26D-06 at cycle   5 NSaved=   5.
 NSaved= 5 IEnMin= 5 EnMin= -192.120348746684     IErMin= 5 ErrMin= 9.26D-06
 ErrMax= 9.26D-06  0.00D+00 EMaxC= 1.00D-01 BMatC= 1.52D-08 BMatP= 3.62D-08
 IDIUse=1 WtCom= 1.00D+00 WtEn= 0.00D+00
 Coeff-Com:  0.438D-02-0.231D+00-0.354D+00 0.367D+00 0.121D+01
 Coeff:      0.438D-02-0.231D+00-0.354D+00 0.367D+00 0.121D+01
 Gap=     0.303 Goal=   None    Shift=    0.000
 Gap=     0.234 Goal=   None    Shift=    0.000
 RMSDP=1.94D-06 MaxDP=6.98D-05 DE=-3.24D-08 OVMax= 2.28D-04

 Cycle  14  Pass 1  IDiag  1:
 RMSU=  7.74D-07    CP:  1.00D+00  1.05D+00  1.20D+00  1.80D+00  2.20D+00
 E= -192.120348770632     Delta-E=       -0.000000023948 Rises=F Damp=F
 DIIS: error= 4.64D-06 at cycle   6 NSaved=   6.
 NSaved= 6 IEnMin= 6 EnMin= -192.120348770632     IErMin= 6 ErrMin= 4.64D-06
 ErrMax= 4.64D-06  0.00D+00 EMaxC= 1.00D-01 BMatC= 3.93D-09 BMatP= 1.52D-08
 IDIUse=1 WtCom= 1.00D+00 WtEn= 0.00D+00
 Coeff-Com:  0.607D-02-0.125D+00-0.199D+00 0.103D+00 0.664D+00 0.551D+00
 Coeff:      0.607D-02-0.125D+00-0.199D+00 0.103D+00 0.664D+00 0.551D+00
 Gap=     0.303 Goal=   None    Shift=    0.000
 Gap=     0.234 Goal=   None    Shift=    0.000
 RMSDP=2.89D-07 MaxDP=1.09D-05 DE=-2.39D-08 OVMax= 5.01D-05

 Cycle  15  Pass 1  IDiag  1:
 RMSU=  1.78D-07    CP:  1.00D+00  1.05D+00  1.21D+00  1.85D+00  2.39D+00
                    CP:  1.10D+00
 E= -192.120348772450     Delta-E=       -0.000000001818 Rises=F Damp=F
 DIIS: error= 1.56D-06 at cycle   7 NSaved=   7.
 NSaved= 7 IEnMin= 7 EnMin= -192.120348772450     IErMin= 7 ErrMin= 1.56D-06
 ErrMax= 1.56D-06  0.00D+00 EMaxC= 1.00D-01 BMatC= 4.46D-10 BMatP= 3.93D-09
 IDIUse=1 WtCom= 1.00D+00 WtEn= 0.00D+00
 Coeff-Com:  0.356D-03 0.294D-01 0.413D-01-0.832D-01-0.155D+00 0.142D+00
 Coeff-Com:  0.102D+01
 Coeff:      0.356D-03 0.294D-01 0.413D-01-0.832D-01-0.155D+00 0.142D+00
 Coeff:      0.102D+01
 Gap=     0.303 Goal=   None    Shift=    0.000
 Gap=     0.234 Goal=   None    Shift=    0.000
 RMSDP=3.14D-07 MaxDP=9.88D-06 DE=-1.82D-09 OVMax= 2.66D-05

 Cycle  16  Pass 1  IDiag  1:
 RMSU=  1.16D-07    CP:  1.00D+00  1.05D+00  1.21D+00  1.89D+00  2.60D+00
                    CP:  1.33D+00  1.38D+00
 E= -192.120348772943     Delta-E=       -0.000000000492 Rises=F Damp=F
 DIIS: error= 6.76D-07 at cycle   8 NSaved=   8.
 NSaved= 8 IEnMin= 8 EnMin= -192.120348772943     IErMin= 8 ErrMin= 6.76D-07
 ErrMax= 6.76D-07  0.00D+00 EMaxC= 1.00D-01 BMatC= 7.36D-11 BMatP= 4.46D-10
 IDIUse=1 WtCom= 1.00D+00 WtEn= 0.00D+00
 Coeff-Com: -0.127D-02 0.330D-01 0.508D-01-0.429D-01-0.169D+00-0.565D-01
 Coeff-Com:  0.236D+00 0.950D+00
 Coeff:     -0.127D-02 0.330D-01 0.508D-01-0.429D-01-0.169D+00-0.565D-01
 Coeff:      0.236D+00 0.950D+00
 Gap=     0.303 Goal=   None    Shift=    0.000
 Gap=     0.234 Goal=   None    Shift=    0.000
 RMSDP=1.23D-07 MaxDP=4.44D-06 DE=-4.92D-10 OVMax= 1.02D-05

 Cycle  17  Pass 1  IDiag  1:
 RMSU=  4.39D-08    CP:  1.00D+00  1.05D+00  1.21D+00  1.91D+00  2.66D+00
                    CP:  1.41D+00  1.66D+00  1.41D+00
 E= -192.120348773046     Delta-E=       -0.000000000103 Rises=F Damp=F
 DIIS: error= 3.79D-07 at cycle   9 NSaved=   9.
 NSaved= 9 IEnMin= 9 EnMin= -192.120348773046     IErMin= 9 ErrMin= 3.79D-07
 ErrMax= 3.79D-07  0.00D+00 EMaxC= 1.00D-01 BMatC= 1.91D-11 BMatP= 7.36D-11
 IDIUse=1 WtCom= 1.00D+00 WtEn= 0.00D+00
 Coeff-Com: -0.172D-03-0.366D-02-0.532D-02 0.111D-01 0.224D-01-0.202D-01
 Coeff-Com: -0.193D+00 0.735D-01 0.112D+01
 Coeff:     -0.172D-03-0.366D-02-0.532D-02 0.111D-01 0.224D-01-0.202D-01
 Coeff:     -0.193D+00 0.735D-01 0.112D+01
 Gap=     0.303 Goal=   None    Shift=    0.000
 Gap=     0.234 Goal=   None    Shift=    0.000
 RMSDP=6.46D-08 MaxDP=2.82D-06 DE=-1.03D-10 OVMax= 4.90D-06

 Cycle  18  Pass 1  IDiag  1:
 RMSU=  2.91D-08    CP:  1.00D+00  1.05D+00  1.21D+00  1.92D+00  2.69D+00
                    CP:  1.42D+00  1.73D+00  1.68D+00  1.53D+00
 E= -192.120348773077     Delta-E=       -0.000000000032 Rises=F Damp=F
 DIIS: error= 2.17D-07 at cycle  10 NSaved=  10.
 NSaved=10 IEnMin=10 EnMin= -192.120348773077     IErMin=10 ErrMin= 2.17D-07
 ErrMax= 2.17D-07  0.00D+00 EMaxC= 1.00D-01 BMatC= 6.16D-12 BMatP= 1.91D-11
 IDIUse=1 WtCom= 1.00D+00 WtEn= 0.00D+00
 Coeff-Com:  0.367D-03-0.101D-01-0.157D-01 0.130D-01 0.536D-01 0.192D-01
 Coeff-Com: -0.930D-01-0.261D+00 0.115D+00 0.118D+01
 Coeff:      0.367D-03-0.101D-01-0.157D-01 0.130D-01 0.536D-01 0.192D-01
 Coeff:     -0.930D-01-0.261D+00 0.115D+00 0.118D+01
 Gap=     0.303 Goal=   None    Shift=    0.000
 Gap=     0.234 Goal=   None    Shift=    0.000
 RMSDP=4.03D-08 MaxDP=1.53D-06 DE=-3.16D-11 OVMax= 3.39D-06

 Cycle  19  Pass 1  IDiag  1:
 RMSU=  1.09D-08    CP:  1.00D+00  1.05D+00  1.21D+00  1.92D+00  2.70D+00
                    CP:  1.43D+00  1.78D+00  1.81D+00  1.99D+00  1.74D+00
 E= -192.120348773091     Delta-E=       -0.000000000014 Rises=F Damp=F
 DIIS: error= 8.40D-08 at cycle  11 NSaved=  11.
 NSaved=11 IEnMin=11 EnMin= -192.120348773091     IErMin=11 ErrMin= 8.40D-08
 ErrMax= 8.40D-08  0.00D+00 EMaxC= 1.00D-01 BMatC= 1.63D-12 BMatP= 6.16D-12
 IDIUse=1 WtCom= 1.00D+00 WtEn= 0.00D+00
 Coeff-Com:  0.479D-04 0.135D-02 0.196D-02-0.438D-02-0.752D-02 0.741D-02
 Coeff-Com:  0.771D-01-0.222D-01-0.411D+00 0.434D-02 0.135D+01
 Coeff:      0.479D-04 0.135D-02 0.196D-02-0.438D-02-0.752D-02 0.741D-02
 Coeff:      0.771D-01-0.222D-01-0.411D+00 0.434D-02 0.135D+01
 Gap=     0.303 Goal=   None    Shift=    0.000
 Gap=     0.234 Goal=   None    Shift=    0.000
 RMSDP=2.47D-08 MaxDP=8.01D-07 DE=-1.38D-11 OVMax= 2.10D-06

 Cycle  20  Pass 1  IDiag  1:
 RMSU=  6.19D-09    CP:  1.00D+00  1.05D+00  1.21D+00  1.92D+00  2.71D+00
                    CP:  1.43D+00  1.80D+00  1.88D+00  2.28D+00  2.26D+00
                    CP:  1.68D+00
 E= -192.120348773093     Delta-E=       -0.000000000002 Rises=F Damp=F
 DIIS: error= 3.15D-08 at cycle  12 NSaved=  12.
 NSaved=12 IEnMin=12 EnMin= -192.120348773093     IErMin=12 ErrMin= 3.15D-08
 ErrMax= 3.15D-08  0.00D+00 EMaxC= 1.00D-01 BMatC= 2.40D-13 BMatP= 1.63D-12
 IDIUse=1 WtCom= 1.00D+00 WtEn= 0.00D+00
 Coeff-Com: -0.572D-04 0.200D-02 0.304D-02-0.297D-02-0.112D-01-0.223D-02
 Coeff-Com:  0.266D-01 0.459D-01-0.819D-01-0.238D+00 0.232D+00 0.103D+01
 Coeff:     -0.572D-04 0.200D-02 0.304D-02-0.297D-02-0.112D-01-0.223D-02
 Coeff:      0.266D-01 0.459D-01-0.819D-01-0.238D+00 0.232D+00 0.103D+01
 Gap=     0.303 Goal=   None    Shift=    0.000
 Gap=     0.234 Goal=   None    Shift=    0.000
 RMSDP=8.66D-09 MaxDP=2.64D-07 DE=-2.39D-12 OVMax= 8.73D-07

 SCF Done:  E(UM062X) =  -192.120348773     A.U. after   20 cycles
            NFock= 20  Conv=0.87D-08     -V/T= 2.0071
 <Sx>= 0.0000 <Sy>= 0.0000 <Sz>= 0.5000 <S**2>= 0.7736 S= 0.5117
 <L.S>= 0.000000000000E+00
 KE= 1.907701641659D+02 PE=-6.712856807277D+02 EE= 1.752481826101D+02
 Annihilation of the first spin contaminant:
 S**2 before annihilation     0.7736,   after     0.7503
 Leave Link  502 at Mon Oct 12 17:21:45 2020, MaxMem=   268435456 cpu:             378.9 elap:              47.4
 (Enter /home/spantaleone/g16/l508.exe)
 QCSCF skips out because SCF is already converged.
 Leave Link  508 at Mon Oct 12 17:21:45 2020, MaxMem=   268435456 cpu:               0.0 elap:               0.0
 (Enter /home/spantaleone/g16/l601.exe)
 Copying SCF densities to generalized density rwf, IOpCl= 1 IROHF=0.

 **********************************************************************

            Population analysis using the SCF Density.

 **********************************************************************

 Alpha  occ. eigenvalues --  -10.59890 -10.57568 -10.57478 -10.57103 -10.56221
 Alpha  occ. eigenvalues --   -0.91366  -0.86884  -0.80549  -0.68790  -0.59888
 Alpha  occ. eigenvalues --   -0.53498  -0.51780  -0.44288  -0.41938  -0.37867
 Alpha  occ. eigenvalues --   -0.32092  -0.29053
 Alpha virt. eigenvalues --    0.01288   0.02548   0.08096   0.08849   0.12914
 Alpha virt. eigenvalues --    0.18239   0.19371   0.19380   0.19517   0.23115
 Alpha virt. eigenvalues --    0.25920   0.30244   0.30794   0.31897   0.33582
 Alpha virt. eigenvalues --    0.33595   0.38713   0.39575   0.41144   0.43107
 Alpha virt. eigenvalues --    0.47346   0.47951   0.47994   0.48751   0.55571
 Alpha virt. eigenvalues --    0.56901   0.57733   0.58508   0.59794   0.64083
 Alpha virt. eigenvalues --    0.66335   0.67324   0.72299   0.73052   0.74268
 Alpha virt. eigenvalues --    0.80474   0.82232   0.83540   0.86660   0.88741
 Alpha virt. eigenvalues --    0.90535   0.91208   0.93979   0.94686   0.97315
 Alpha virt. eigenvalues --    1.01306   1.06086   1.06761   1.09573   1.18038
 Alpha virt. eigenvalues --    1.19444   1.20977   1.21960   1.24295   1.30473
 Alpha virt. eigenvalues --    1.30638   1.38850   1.39942   1.40409   1.45178
 Alpha virt. eigenvalues --    1.51127   1.54377   1.54817   1.68842   1.71871
 Alpha virt. eigenvalues --    1.85857   1.98623   2.01452   2.07450   2.20264
 Alpha virt. eigenvalues --    2.21866   2.23615   2.29128   2.31188   2.31496
 Alpha virt. eigenvalues --    2.33140   2.41916   2.42531   2.44277   2.44358
 Alpha virt. eigenvalues --    2.45699   2.46069   2.48812   2.51489   2.52273
 Alpha virt. eigenvalues --    2.54899   2.55820   2.57324   2.62207   2.62965
 Alpha virt. eigenvalues --    2.72231   2.72991   2.73478   2.75955   2.77774
 Alpha virt. eigenvalues --    2.78647   2.80849   2.81132   2.83078   2.84191
 Alpha virt. eigenvalues --    2.84257   2.84712   2.87780   2.88586   2.92581
 Alpha virt. eigenvalues --    2.92864   2.94022   2.96726   2.98247   2.98673
 Alpha virt. eigenvalues --    3.01939   3.02001   3.03498   3.05090   3.05805
 Alpha virt. eigenvalues --    3.12635   3.13256   3.18534   3.20414   3.20931
 Alpha virt. eigenvalues --    3.22862   3.26273   3.27407   3.27884   3.31390
 Alpha virt. eigenvalues --    3.33582   3.37908   3.41859   3.44518   3.45844
 Alpha virt. eigenvalues --    3.55905   3.59186   3.61675   3.68937   3.73989
 Alpha virt. eigenvalues --    3.79767   3.85079   3.89011   3.91583   3.92129
 Alpha virt. eigenvalues --    3.95133   3.96107   4.04888   4.05935   4.11340
 Alpha virt. eigenvalues --    4.27714   4.27734   4.31574   4.43706   4.46266
 Alpha virt. eigenvalues --    4.48169   4.60418   4.73058   4.75974   4.86787
 Alpha virt. eigenvalues --    4.89445   5.03683   5.05878   5.08312   5.10723
 Alpha virt. eigenvalues --    5.11671   5.42458   5.58269   5.62404   5.64997
 Alpha virt. eigenvalues --    5.68822   5.86652   5.92908   5.96596   6.28060
 Alpha virt. eigenvalues --    7.75738  10.31570  12.04716  16.56278  17.74215
  Beta  occ. eigenvalues --  -10.59078 -10.57628 -10.57406 -10.57125 -10.56125
  Beta  occ. eigenvalues --   -0.90700  -0.86096  -0.78245  -0.68281  -0.59593
  Beta  occ. eigenvalues --   -0.52433  -0.50612  -0.42214  -0.41493  -0.33755
  Beta  occ. eigenvalues --   -0.31860
  Beta virt. eigenvalues --   -0.08416   0.01353   0.04571   0.07872   0.08741
  Beta virt. eigenvalues --    0.13362   0.17752   0.18688   0.19621   0.20216
  Beta virt. eigenvalues --    0.23826   0.26016   0.29975   0.30156   0.31945
  Beta virt. eigenvalues --    0.32725   0.33202   0.38523   0.39063   0.42044
  Beta virt. eigenvalues --    0.43278   0.47457   0.47776   0.48892   0.48899
  Beta virt. eigenvalues --    0.55335   0.57067   0.57997   0.58664   0.59695
  Beta virt. eigenvalues --    0.63405   0.66213   0.67060   0.72662   0.73091
  Beta virt. eigenvalues --    0.74323   0.80339   0.82369   0.83498   0.86747
  Beta virt. eigenvalues --    0.88655   0.90286   0.90983   0.94141   0.94531
  Beta virt. eigenvalues --    0.97170   1.01305   1.06283   1.06636   1.09648
  Beta virt. eigenvalues --    1.18206   1.19687   1.21068   1.22320   1.24407
  Beta virt. eigenvalues --    1.30710   1.31325   1.39019   1.40016   1.40417
  Beta virt. eigenvalues --    1.46363   1.51530   1.54312   1.54926   1.68957
  Beta virt. eigenvalues --    1.71739   1.86451   1.99842   2.01643   2.08798
  Beta virt. eigenvalues --    2.21984   2.23005   2.23795   2.29245   2.31765
  Beta virt. eigenvalues --    2.32063   2.33924   2.42566   2.43084   2.44983
  Beta virt. eigenvalues --    2.45316   2.46084   2.46611   2.49891   2.52136
  Beta virt. eigenvalues --    2.52820   2.55758   2.55963   2.57799   2.63498
  Beta virt. eigenvalues --    2.64300   2.72748   2.73733   2.74609   2.76609
  Beta virt. eigenvalues --    2.79373   2.80913   2.82585   2.83416   2.84255
  Beta virt. eigenvalues --    2.85238   2.85278   2.85562   2.88708   2.92283
  Beta virt. eigenvalues --    2.93418   2.93893   2.95147   2.98414   2.99590
  Beta virt. eigenvalues --    3.00081   3.02388   3.02431   3.03904   3.05255
  Beta virt. eigenvalues --    3.07847   3.13496   3.14638   3.19301   3.21469
  Beta virt. eigenvalues --    3.21683   3.24505   3.27744   3.28532   3.28609
  Beta virt. eigenvalues --    3.32048   3.34425   3.38567   3.42780   3.45017
  Beta virt. eigenvalues --    3.46344   3.57427   3.60556   3.62743   3.70437
  Beta virt. eigenvalues --    3.74787   3.81056   3.85959   3.89622   3.92446
  Beta virt. eigenvalues --    3.93134   3.95739   3.96429   4.05948   4.06849
  Beta virt. eigenvalues --    4.11701   4.28497   4.29671   4.32594   4.45077
  Beta virt. eigenvalues --    4.46884   4.49830   4.62370   4.74270   4.78982
  Beta virt. eigenvalues --    4.88715   4.92636   5.05862   5.07914   5.10038
  Beta virt. eigenvalues --    5.12908   5.12910   5.43251   5.63868   5.64432
  Beta virt. eigenvalues --    5.68865   5.71358   5.87969   5.94290   5.96951
  Beta virt. eigenvalues --    6.28665   7.76623  10.32904  12.05591  16.56217
  Beta virt. eigenvalues --   17.74188
          Condensed to atoms (all electrons):
               1          2          3          4          5          6
     1  C    5.206558   0.436868  -0.116352   0.001658   0.000900   0.000004
     2  C    0.436868   5.766395  -0.131672  -0.047660   0.063317   0.000061
     3  C   -0.116352  -0.131672   5.527627   0.801963  -0.306461  -0.008405
     4  C    0.001658  -0.047660   0.801963   5.117047   0.233082  -0.088086
     5  C    0.000900   0.063317  -0.306461   0.233082   5.855091   0.481591
     6  H    0.000004   0.000061  -0.008405  -0.088086   0.481591   0.492430
     7  H    0.403340  -0.057430   0.001140   0.000420   0.000036   0.000000
     8  H    0.403337  -0.057400   0.001129   0.000416   0.000035   0.000000
               7          8
     1  C    0.403340   0.403337
     2  C   -0.057430  -0.057400
     3  C    0.001140   0.001129
     4  C    0.000420   0.000416
     5  C    0.000036   0.000035
     6  H    0.000000   0.000000
     7  H    0.543280  -0.041674
     8  H   -0.041674   0.543261
          Atomic-Atomic Spin Densities.
               1          2          3          4          5          6
     1  C    0.979502  -0.046174  -0.009077  -0.001023  -0.000055  -0.000001
     2  C   -0.046174  -0.233322   0.019055  -0.042070  -0.007746  -0.000068
     3  C   -0.009077   0.019055   0.337835   0.017826  -0.003984   0.000310
     4  C   -0.001023  -0.042070   0.017826  -0.053949   0.001996  -0.002068
     5  C   -0.000055  -0.007746  -0.003984   0.001996   0.172634   0.002500
     6  H   -0.000001  -0.000068   0.000310  -0.002068   0.002500  -0.001830
     7  H   -0.010037   0.005901  -0.000214  -0.000018  -0.000001  -0.000000
     8  H   -0.010045   0.005904  -0.000213  -0.000018  -0.000001   0.000000
               7          8
     1  C   -0.010037  -0.010045
     2  C    0.005901   0.005904
     3  C   -0.000214  -0.000213
     4  C   -0.000018  -0.000018
     5  C   -0.000001  -0.000001
     6  H   -0.000000   0.000000
     7  H   -0.024917   0.003799
     8  H    0.003799  -0.024907
 Mulliken charges and spin densities:
               1          2
     1  C   -0.336312   0.903090
     2  C    0.027521  -0.298520
     3  C    0.231032   0.361537
     4  C   -0.018840  -0.079324
     5  C   -0.327591   0.165342
     6  H    0.122405  -0.001156
     7  H    0.150888  -0.025488
     8  H    0.150897  -0.025481
 Sum of Mulliken charges =  -0.00000   1.00000
 Mulliken charges and spin densities with hydrogens summed into heavy atoms:
               1          2
     1  C   -0.034526   0.852121
     2  C    0.027521  -0.298520
     3  C    0.231032   0.361537
     4  C   -0.018840  -0.079324
     5  C   -0.205186   0.164186
 Electronic spatial extent (au):  <R**2>=           1365.1649
 Charge=             -0.0000 electrons
 Dipole moment (field-independent basis, Debye):
    X=             -0.4944    Y=             -0.4235    Z=             -0.0900  Tot=              0.6572
 Quadrupole moment (field-independent basis, Debye-Ang):
   XX=            -30.4425   YY=            -30.3022   ZZ=            -18.5797
   XY=             -0.4386   XZ=              0.3637   YZ=              0.2926
 Traceless Quadrupole moment (field-independent basis, Debye-Ang):
   XX=             -4.0010   YY=             -3.8607   ZZ=              7.8618
   XY=             -0.4386   XZ=              0.3637   YZ=              0.2926
 Octapole moment (field-independent basis, Debye-Ang**2):
  XXX=              0.4654  YYY=              0.2454  ZZZ=           -118.1326  XYY=              0.5870
  XXY=              0.7901  XXZ=            -82.7294  XZZ=              0.6799  YZZ=              0.4745
  YYZ=            -82.8491  XYZ=              0.3741
 Hexadecapole moment (field-independent basis, Debye-Ang**3):
 XXXX=            -38.8084 YYYY=            -39.2229 ZZZZ=          -1023.6948 XXXY=              0.5758
 XXXZ=             -0.5475 YYYX=              0.7225 YYYZ=              0.1497 ZZZX=              0.6156
 ZZZY=             -0.0257 XXYY=            -13.3037 XXZZ=           -355.5920 YYZZ=           -356.0038
 XXYZ=             -0.2702 YYXZ=             -0.3785 ZZXY=              1.2815
 N-N= 1.131469851786D+02 E-N=-6.712856794026D+02  KE= 1.907701641659D+02
                          Isotropic Fermi Contact Couplings
        Atom                 a.u.       MegaHertz       Gauss      10(-4) cm-1
     1  C(13)              0.38838     436.60853     155.79278     145.63693
     2  C(13)             -0.04905     -55.14537     -19.67724     -18.39451
     3  C(13)              0.04967      55.83596      19.92366      18.62487
     4  C(13)             -0.02568     -28.86673     -10.30037      -9.62891
     5  C(13)              0.02064      23.20850       8.28137       7.74152
     6  H(1)              -0.00198      -8.86194      -3.16216      -2.95603
     7  H(1)              -0.00619     -27.66722      -9.87235      -9.22879
     8  H(1)              -0.00619     -27.66047      -9.86994      -9.22654
 --------------------------------------------------------
       Center         ----  Spin Dipole Couplings  ----
                      3XX-RR        3YY-RR        3ZZ-RR
 --------------------------------------------------------
     1   Atom        0.254524      0.067124     -0.321648
     2   Atom       -0.079278     -0.061786      0.141064
     3   Atom        0.119219      0.056817     -0.176036
     4   Atom       -0.031008     -0.025048      0.056056
     5   Atom        0.051381      0.027537     -0.078918
     6   Atom       -0.005444     -0.006460      0.011904
     7   Atom       -0.020830      0.054834     -0.034004
     8   Atom        0.051315     -0.017327     -0.033987
 --------------------------------------------------------
                        XY            XZ            YZ
 --------------------------------------------------------
     1   Atom        0.585868     -0.291754     -0.248788
     2   Atom       -0.054650     -0.008653     -0.007401
     3   Atom        0.194981      0.017247      0.014751
     4   Atom       -0.018634      0.000170      0.000080
     5   Atom        0.074545     -0.001554     -0.001256
     6   Atom        0.003176     -0.000005     -0.000038
     7   Atom       -0.005211     -0.019715      0.028618
     8   Atom       -0.016737      0.025162     -0.023991
 --------------------------------------------------------


 ---------------------------------------------------------------------------------
              Anisotropic Spin Dipole Couplings in Principal Axis System
 ---------------------------------------------------------------------------------

       Atom             a.u.   MegaHertz   Gauss  10(-4) cm-1        Axes

              Baa    -0.4443   -59.623   -21.275   -19.888  0.2324  0.1971  0.9524
     1 C(13)  Bbb    -0.4325   -58.036   -20.709   -19.359 -0.6487  0.7611  0.0007
              Bcc     0.8768   117.659    41.984    39.247  0.7247  0.6180 -0.3047
 
              Baa    -0.1264   -16.957    -6.051    -5.656  0.7602  0.6483  0.0425
     2 C(13)  Bbb    -0.0152    -2.038    -0.727    -0.680 -0.6488  0.7609  0.0001
              Bcc     0.1415    18.994     6.778     6.336 -0.0323 -0.0277  0.9991
 
              Baa    -0.1771   -23.772    -8.482    -7.929 -0.0370 -0.0322  0.9988
     3 C(13)  Bbb    -0.1094   -14.686    -5.240    -4.899 -0.6489  0.7609  0.0005
              Bcc     0.2866    38.458    13.723    12.828  0.7600  0.6481  0.0490
 
              Baa    -0.0469    -6.293    -2.246    -2.099  0.7609  0.6489 -0.0018
     4 C(13)  Bbb    -0.0092    -1.229    -0.438    -0.410 -0.6489  0.7609  0.0008
              Bcc     0.0561     7.522     2.684     2.509  0.0018  0.0006  1.0000
 
              Baa    -0.0789   -10.593    -3.780    -3.533  0.0086  0.0058  0.9999
     5 C(13)  Bbb    -0.0360    -4.835    -1.725    -1.613 -0.6489  0.7609  0.0012
              Bcc     0.1150    15.428     5.505     5.146  0.7609  0.6488 -0.0103
 
              Baa    -0.0092    -4.892    -1.746    -1.632 -0.6489  0.7609  0.0012
     6 H(1)   Bbb    -0.0027    -1.460    -0.521    -0.487  0.7609  0.6489  0.0019
              Bcc     0.0119     6.351     2.266     2.119 -0.0007 -0.0022  1.0000
 
              Baa    -0.0524   -27.944    -9.971    -9.321  0.4950 -0.2016  0.8452
     7 H(1)   Bbb    -0.0122    -6.526    -2.329    -2.177  0.8596  0.2556 -0.4424
              Bcc     0.0646    34.471    12.300    11.498 -0.1268  0.9455  0.2998
 
              Baa    -0.0524   -27.944    -9.971    -9.321 -0.1210  0.5207  0.8451
     8 H(1)   Bbb    -0.0122    -6.525    -2.328    -2.177  0.3881  0.8084 -0.4425
              Bcc     0.0646    34.470    12.300    11.498  0.9136 -0.2745  0.3000
 

 ---------------------------------------------------------------------------------

 No NMR shielding tensors so no spin-rotation constants.
 Leave Link  601 at Mon Oct 12 17:21:46 2020, MaxMem=   268435456 cpu:               2.5 elap:               0.4
 (Enter /home/spantaleone/g16/l701.exe)
 ... and contract with generalized density number  0.
 Compute integral first derivatives.
 Leave Link  701 at Mon Oct 12 17:21:46 2020, MaxMem=   268435456 cpu:               1.4 elap:               0.2
 (Enter /home/spantaleone/g16/l702.exe)
 L702 exits ... SP integral derivatives will be done elsewhere.
 Leave Link  702 at Mon Oct 12 17:21:46 2020, MaxMem=   268435456 cpu:               0.3 elap:               0.0
 (Enter /home/spantaleone/g16/l703.exe)
 Integral derivatives from FoFJK, PRISM(SPDF).
 Compute integral first derivatives, UseDBF=F ICtDFT=           0.
 Calling FoFJK, ICntrl=      2127 FMM=F ISym2X=0 I1Cent= 0 IOpClX= 1 NMat=1 NMatS=1 NMatT=0.
 FoFJK:  IHMeth= 1 ICntrl=    2127 DoSepK=F KAlg= 0 I1Cent=           0 FoldK=F
 IRaf=         0 NMat=       1 IRICut=       1 DoRegI=T DoRafI=F ISym2E= 0 IDoP0=0 IntGTp=1.
 FoFCou: FMM=F IPFlag=           0 FMFlag=      100000 FMFlg1=         800
         NFxFlg=           0 DoJE=F BraDBF=F KetDBF=F FulRan=T
         wScrn=  0.000000 ICntrl=      2127 IOpCl=  1 I1Cent=           0 NGrid=           0
         NMat0=    1 NMatS0=      1 NMatT0=    0 NMatD0=    1 NMtDS0=    0 NMtDT0=    0
 Symmetry not used in FoFCou.
 Leave Link  703 at Mon Oct 12 17:21:51 2020, MaxMem=   268435456 cpu:              41.6 elap:               5.2
 (Enter /home/spantaleone/g16/l716.exe)
 Dipole        =-1.94517244D-01-1.66632424D-01-3.53995414D-02
 -------------------------------------------------------------------
 Center     Atomic                   Forces (Hartrees/Bohr)
 Number     Number              X              Y              Z
 -------------------------------------------------------------------
      1        6          -0.039459771   -0.033656765    0.046505860
      2        6           0.007434240    0.006341463   -0.052941308
      3        6           0.001389102    0.001148405    0.047671298
      4        6          -0.000150499   -0.000116766   -0.025470474
      5        6          -0.000085958   -0.000066027   -0.013590497
      6        1           0.000015912    0.000023925    0.003459144
      7        1           0.010933557    0.018433084   -0.002826026
      8        1           0.019923417    0.007892681   -0.002807997
 -------------------------------------------------------------------
 Cartesian Forces:  Max     0.052941308 RMS     0.022179760
 Leave Link  716 at Mon Oct 12 17:21:51 2020, MaxMem=   268435456 cpu:               0.3 elap:               0.0
 (Enter /home/spantaleone/g16/l103.exe)

 GradGradGradGradGradGradGradGradGradGradGradGradGradGradGradGradGradGrad
 Berny optimization.
 FormGI is forming the generalized inverse of G from B-inverse, IUseBI=4.
 Internal  Forces:  Max     0.040871988 RMS     0.016131752
 Search for a local minimum.
 Step number   1 out of a maximum of  100
 All quantities printed in internal units (Hartrees-Bohrs-Radians)
 RMS Force = .16132D-01 SwitMx=.10000D-02 MixMth= 1
 Mixed Optimization -- RFO/linear search
 Second derivative matrix not updated -- first step.
 The second derivative matrix:
                          R1        R2        R3        R4        R5
           R1           0.36591
           R2           0.00000   0.32658
           R3           0.00000   0.00000   0.32659
           R4           0.00000   0.00000   0.00000   1.02166
           R5           0.00000   0.00000   0.00000   0.00000   0.43726
           R6           0.00000   0.00000   0.00000   0.00000   0.00000
           R7           0.00000   0.00000   0.00000   0.00000   0.00000
           A1           0.00000   0.00000   0.00000   0.00000   0.00000
           A2           0.00000   0.00000   0.00000   0.00000   0.00000
           A3           0.00000   0.00000   0.00000   0.00000   0.00000
           A4           0.00000   0.00000   0.00000   0.00000   0.00000
           A5           0.00000   0.00000   0.00000   0.00000   0.00000
           A6           0.00000   0.00000   0.00000   0.00000   0.00000
           A7           0.00000   0.00000   0.00000   0.00000   0.00000
           A8           0.00000   0.00000   0.00000   0.00000   0.00000
           A9           0.00000   0.00000   0.00000   0.00000   0.00000
           A10          0.00000   0.00000   0.00000   0.00000   0.00000
           A11          0.00000   0.00000   0.00000   0.00000   0.00000
           D1           0.00000   0.00000   0.00000   0.00000   0.00000
                          R6        R7        A1        A2        A3
           R6           1.02200
           R7           0.00000   0.38744
           A1           0.00000   0.00000   0.16000
           A2           0.00000   0.00000   0.00000   0.16000
           A3           0.00000   0.00000   0.00000   0.00000   0.16000
           A4           0.00000   0.00000   0.00000   0.00000   0.00000
           A5           0.00000   0.00000   0.00000   0.00000   0.00000
           A6           0.00000   0.00000   0.00000   0.00000   0.00000
           A7           0.00000   0.00000   0.00000   0.00000   0.00000
           A8           0.00000   0.00000   0.00000   0.00000   0.00000
           A9           0.00000   0.00000   0.00000   0.00000   0.00000
           A10          0.00000   0.00000   0.00000   0.00000   0.00000
           A11          0.00000   0.00000   0.00000   0.00000   0.00000
           D1           0.00000   0.00000   0.00000   0.00000   0.00000
                          A4        A5        A6        A7        A8
           A4           0.04663
           A5           0.00000   0.01933
           A6           0.00000   0.00000   0.04664
           A7           0.00000   0.00000   0.00000   0.00654
           A8           0.00000   0.00000   0.00000   0.00000   0.04663
           A9           0.00000   0.00000   0.00000   0.00000   0.00000
           A10          0.00000   0.00000   0.00000   0.00000   0.00000
           A11          0.00000   0.00000   0.00000   0.00000   0.00000
           D1           0.00000   0.00000   0.00000   0.00000   0.00000
                          A9        A10       A11       D1
           A9           0.01933
           A10          0.00000   0.04664
           A11          0.00000   0.00000   0.00654
           D1           0.00000   0.00000   0.00000   0.00230
 ITU=  0
     Eigenvalues ---    0.00654   0.00654   0.01933   0.01933   0.04663
     Eigenvalues ---    0.04663   0.04664   0.04664   0.05076   0.16000
     Eigenvalues ---    0.16000   0.32658   0.32659   0.36591   0.38744
     Eigenvalues ---    0.43726   1.02166   1.02200
 RFO step:  Lambda=-2.34198613D-02 EMin= 6.53631227D-03
 Linear search not attempted -- first point.
 Iteration  1 RMS(Cart)=  0.07657984 RMS(Int)=  0.02988813
 Iteration  2 RMS(Cart)=  0.02322865 RMS(Int)=  0.01343517
 Iteration  3 RMS(Cart)=  0.00163184 RMS(Int)=  0.01335683
 Iteration  4 RMS(Cart)=  0.00005196 RMS(Int)=  0.01335676
 Iteration  5 RMS(Cart)=  0.00000226 RMS(Int)=  0.01335676
 Iteration  6 RMS(Cart)=  0.00000009 RMS(Int)=  0.01335676
 ITry= 1 IFail=0 DXMaxC= 1.57D-01 DCOld= 1.00D+10 DXMaxT= 3.00D-01 DXLimC= 3.00D+00 Rises=F
 Variable       Old X    -DE/DX   Delta X   Delta X   Delta X     New X
                                 (Linear)    (Quad)   (Total)
    R1        2.76467  -0.04087   0.00000  -0.10498  -0.10498   2.65969
    R2        2.09656  -0.01427   0.00000  -0.04077  -0.04077   2.05579
    R3        2.09654  -0.01427   0.00000  -0.04077  -0.04077   2.05577
    R4        2.27784   0.01207   0.00000   0.01155   0.01155   2.28939
    R5        2.66784  -0.03560   0.00000  -0.07728  -0.07728   2.59056
    R6        2.27771  -0.01013   0.00000  -0.00969  -0.00969   2.26801
    R7        1.99997   0.00346   0.00000   0.00842   0.00842   2.00839
    A1        1.91094   0.00257   0.00000   0.12587   0.08935   2.00028
    A2        1.91115   0.01822   0.00000   0.15534   0.12662   2.03776
    A3        1.91074   0.01843   0.00000   0.15652   0.12781   2.03855
    A4        3.14151   0.00138   0.00000   0.01970   0.01970   3.16121
    A5        3.14142  -0.00036   0.00000  -0.00831  -0.00831   3.13311
    A6        3.14147  -0.00003   0.00000  -0.00036  -0.00036   3.14110
    A7        3.14148   0.00005   0.00000   0.00153   0.00153   3.14300
    A8        3.14071  -0.00115   0.00000  -0.01639  -0.01639   3.12432
    A9        3.14033   0.00023   0.00000   0.00532   0.00532   3.14565
   A10        3.13972   0.00003   0.00000   0.00039   0.00039   3.14011
   A11        3.13922  -0.00001   0.00000  -0.00017  -0.00017   3.13905
    D1       -2.09515  -0.02563   0.00000  -0.34558  -0.36573  -2.46087
         Item               Value     Threshold  Converged?
 Maximum Force            0.040872     0.000450     NO 
 RMS     Force            0.016132     0.000300     NO 
 Maximum Displacement     0.157249     0.001800     NO 
 RMS     Displacement     0.095302     0.001200     NO 
 Predicted change in Energy=-1.539721D-02
 Lowest energy point so far.  Saving SCF results.
 GradGradGradGradGradGradGradGradGradGradGradGradGradGradGradGradGradGrad

 Leave Link  103 at Mon Oct 12 17:21:51 2020, MaxMem=   268435456 cpu:               0.2 elap:               0.0
 (Enter /home/spantaleone/g16/l202.exe)
                          Input orientation:                          
 ---------------------------------------------------------------------
 Center     Atomic      Atomic             Coordinates (Angstroms)
 Number     Number       Type             X           Y           Z
 ---------------------------------------------------------------------
      1          6           0       -0.083212   -0.063306    0.072487
      2          6           0       -0.057442   -0.059002    1.479692
      3          6           0       -0.035219   -0.029652    2.690624
      4          6           0       -0.007191   -0.007832    4.061028
      5          6           0        0.017925    0.010872    5.260801
      6          1           0        0.040020    0.028994    6.323212
      7          1           0        0.271589   -0.984698   -0.384268
      8          1           0       -0.930751    0.425319   -0.403305
 ---------------------------------------------------------------------
                    Distance matrix (angstroms):
                    1          2          3          4          5
     1  C    0.000000
     2  C    1.407447   0.000000
     3  C    2.618793   1.211492   0.000000
     4  C    3.989651   2.582332   1.370864   0.000000
     5  C    5.189830   3.782506   2.571046   1.200182   0.000000
     6  H    6.252621   4.845300   3.633841   2.262976   1.062795
     7  H    1.087875   2.107017   3.234378   4.559895   5.737796
     8  H    1.087867   2.131411   3.252902   4.579395   5.757938
                    6          7          8
     6  H    0.000000
     7  H    6.787598   0.000000
     8  H    6.807753   1.853141   0.000000
 Symmetry turned off by external request.
 Stoichiometry    C5H3(2)
 Framework group  C1[X(C5H3)]
 Deg. of freedom    18
 Full point group                 C1      NOp   1
 Rotational constants (GHZ):         265.3331570           2.1547764           2.1405586
 Leave Link  202 at Mon Oct 12 17:21:51 2020, MaxMem=   268435456 cpu:               0.0 elap:               0.0
 (Enter /home/spantaleone/g16/l301.exe)
 Standard basis: CC-pVTZ (5D, 7F)
 Ernie: Thresh=  0.10000D-02 Tol=  0.10000D-05 Strict=F.
 Ernie:  15 primitive shells out of 154 were deleted.
   192 basis functions,   311 primitive gaussians,   220 cartesian basis functions
    17 alpha electrons       16 beta electrons
       nuclear repulsion energy       114.7275624383 Hartrees.
 IExCor= 4336 DFT=T Ex+Corr=M062X ExCW=0 ScaHFX=  0.540000
 ScaDFX=  1.000000  1.000000  1.000000  1.000000 ScalE2=  1.000000  1.000000
 IRadAn=      5 IRanWt=     -1 IRanGd=            0 ICorTp=0 IEmpDi=  4
 NAtoms=    8 NActive=    8 NUniq=    8 SFac= 1.00D+00 NAtFMM=   60 NAOKFM=F Big=F
 Integral buffers will be    131072 words long.
 Raffenetti 2 integral format.
 Two-electron integral symmetry is turned off.
 Leave Link  301 at Mon Oct 12 17:21:51 2020, MaxMem=   268435456 cpu:               0.3 elap:               0.0
 (Enter /home/spantaleone/g16/l302.exe)
 NPDir=0 NMtPBC=     1 NCelOv=     1 NCel=       1 NClECP=     1 NCelD=      1
         NCelK=      1 NCelE2=     1 NClLst=     1 CellRange=     0.0.
 One-electron integrals computed using PRISM.
 NBasis=   192 RedAO= T EigKep=  1.44D-05  NBF=   192
 NBsUse=   192 1.00D-06 EigRej= -1.00D+00 NBFU=   192
 Precomputing XC quadrature grid using
 IXCGrd= 4 IRadAn=           5 IRanWt=          -1 IRanGd=           0 AccXCQ= 0.00D+00.
 Generated NRdTot=       0 NPtTot=           0 NUsed=           0 NTot=          32
 NSgBfM=   220   220   220   220   220 MxSgAt=     8 MxSgA2=     8.
 Leave Link  302 at Mon Oct 12 17:21:52 2020, MaxMem=   268435456 cpu:               1.6 elap:               0.2
 (Enter /home/spantaleone/g16/l303.exe)
 DipDrv:  MaxL=1.
 Leave Link  303 at Mon Oct 12 17:21:52 2020, MaxMem=   268435456 cpu:               0.3 elap:               0.0
 (Enter /home/spantaleone/g16/l401.exe)
 Initial guess from the checkpoint file:  "input.chk"
 B after Tr=    -0.105394   -0.088616    0.019054
         Rot=    0.999973    0.004649   -0.005695    0.000132 Ang=   0.84 deg.
 Guess basis will be translated and rotated to current coordinates.
 JPrj=2 DoOrth=T DoCkMO=T.
 Initial guess <Sx>= 0.0000 <Sy>= 0.0000 <Sz>= 0.5000 <S**2>= 0.7733 S= 0.5116
 Generating alternative initial guess.
 ExpMin= 1.03D-01 ExpMax= 8.24D+03 ExpMxC= 2.81D+02 IAcc=3 IRadAn=         5 AccDes= 0.00D+00
 Harris functional with IExCor= 1009 and IRadAn=       5 diagonalized for initial guess.
 HarFok:  IExCor= 1009 AccDes= 0.00D+00 IRadAn=         5 IDoV= 1 UseB2=F ITyADJ=14
 ICtDFT=  3500011 ScaDFX=  1.000000  1.000000  1.000000  1.000000
 FoFCou: FMM=F IPFlag=           0 FMFlag=      100000 FMFlg1=           0
         NFxFlg=           0 DoJE=T BraDBF=F KetDBF=T FulRan=T
         wScrn=  0.000000 ICntrl=       500 IOpCl=  0 I1Cent=   200000004 NGrid=           0
         NMat0=    1 NMatS0=      1 NMatT0=    0 NMatD0=    1 NMtDS0=    0 NMtDT0=    0
 Symmetry not used in FoFCou.
 Harris En= -192.076754281271    
 Leave Link  401 at Mon Oct 12 17:21:53 2020, MaxMem=   268435456 cpu:               6.7 elap:               0.8
 (Enter /home/spantaleone/g16/l502.exe)
 Two-electron integral symmetry not used.
 UHF open shell SCF:
 Using DIIS extrapolation, IDIIS=  1040.
 NGot=   268435456 LenX=   268335398 LenY=   268286557
 Requested convergence on RMS density matrix=1.00D-08 within  32 cycles.
 Requested convergence on MAX density matrix=1.00D-06.
 Requested convergence on             energy=1.00D-06.
 No special actions if energy rises.
 Fock matrices will be formed incrementally for  20 cycles.
 Integral accuracy reduced to 1.0D-05 until final iterations.

 Cycle   1  Pass 0  IDiag  1:
 FoFJK:  IHMeth= 1 ICntrl=       0 DoSepK=F KAlg= 0 I1Cent=           0 FoldK=F
 IRaf= 930000000 NMat=       1 IRICut=       1 DoRegI=T DoRafI=F ISym2E= 0 IDoP0=0 IntGTp=1.
 FoFCou: FMM=F IPFlag=           0 FMFlag=      100000 FMFlg1=           0
         NFxFlg=           0 DoJE=F BraDBF=F KetDBF=F FulRan=T
         wScrn=  0.000000 ICntrl=         0 IOpCl=  1 I1Cent=           0 NGrid=           0
         NMat0=    1 NMatS0=      1 NMatT0=    0 NMatD0=    1 NMtDS0=    0 NMtDT0=    0
 Symmetry not used in FoFCou.
 E= -192.126325060537    
 DIIS: error= 8.30D-03 at cycle   1 NSaved=   1.
 NSaved= 1 IEnMin= 1 EnMin= -192.126325060537     IErMin= 1 ErrMin= 8.30D-03
 ErrMax= 8.30D-03  0.00D+00 EMaxC= 1.00D-01 BMatC= 4.56D-02 BMatP= 4.56D-02
 IDIUse=3 WtCom= 9.17D-01 WtEn= 8.30D-02
 Coeff-Com:  0.100D+01
 Coeff-En:   0.100D+01
 Coeff:      0.100D+01
 Gap=     1.144 Goal=   None    Shift=    0.000
 Gap=     1.127 Goal=   None    Shift=    0.000
 GapD=    1.127 DampG=2.000 DampE=1.000 DampFc=2.0000 IDamp=-1.
 RMSDP=2.06D-03 MaxDP=8.18D-02              OVMax= 4.20D-02

 Cycle   2  Pass 0  IDiag  1:
 RMSU=  2.05D-03    CP:  9.83D-01
 E= -192.135359891937     Delta-E=       -0.009034831399 Rises=F Damp=F
 DIIS: error= 2.12D-03 at cycle   2 NSaved=   2.
 NSaved= 2 IEnMin= 2 EnMin= -192.135359891937     IErMin= 2 ErrMin= 2.12D-03
 ErrMax= 2.12D-03  0.00D+00 EMaxC= 1.00D-01 BMatC= 2.00D-03 BMatP= 4.56D-02
 IDIUse=3 WtCom= 9.79D-01 WtEn= 2.12D-02
 Coeff-Com: -0.764D-03 0.100D+01
 Coeff-En:   0.000D+00 0.100D+01
 Coeff:     -0.748D-03 0.100D+01
 Gap=     0.282 Goal=   None    Shift=    0.000
 Gap=     0.238 Goal=   None    Shift=    0.000
 RMSDP=2.50D-04 MaxDP=7.66D-03 DE=-9.03D-03 OVMax= 2.99D-02

 Cycle   3  Pass 0  IDiag  1:
 RMSU=  2.33D-04    CP:  9.79D-01  1.04D+00
 E= -192.135988948678     Delta-E=       -0.000629056741 Rises=F Damp=F
 DIIS: error= 2.52D-03 at cycle   3 NSaved=   3.
 NSaved= 3 IEnMin= 3 EnMin= -192.135988948678     IErMin= 2 ErrMin= 2.12D-03
 ErrMax= 2.52D-03  0.00D+00 EMaxC= 1.00D-01 BMatC= 2.02D-03 BMatP= 2.00D-03
 IDIUse=3 WtCom= 9.75D-01 WtEn= 2.52D-02
 Coeff-Com: -0.355D-01 0.519D+00 0.517D+00
 Coeff-En:   0.000D+00 0.000D+00 0.100D+01
 Coeff:     -0.346D-01 0.506D+00 0.529D+00
 Gap=     0.283 Goal=   None    Shift=    0.000
 Gap=     0.236 Goal=   None    Shift=    0.000
 RMSDP=1.26D-04 MaxDP=2.93D-03 DE=-6.29D-04 OVMax= 1.58D-02

 Cycle   4  Pass 0  IDiag  1:
 RMSU=  1.24D-04    CP:  9.79D-01  1.04D+00  9.35D-01
 E= -192.136565584932     Delta-E=       -0.000576636254 Rises=F Damp=F
 DIIS: error= 9.17D-04 at cycle   4 NSaved=   4.
 NSaved= 4 IEnMin= 4 EnMin= -192.136565584932     IErMin= 4 ErrMin= 9.17D-04
 ErrMax= 9.17D-04  0.00D+00 EMaxC= 1.00D-01 BMatC= 3.00D-04 BMatP= 2.00D-03
 IDIUse=3 WtCom= 9.91D-01 WtEn= 9.17D-03
 Coeff-Com: -0.116D-01-0.323D-01 0.230D+00 0.814D+00
 Coeff-En:   0.000D+00 0.000D+00 0.000D+00 0.100D+01
 Coeff:     -0.115D-01-0.320D-01 0.228D+00 0.816D+00
 Gap=     0.283 Goal=   None    Shift=    0.000
 Gap=     0.235 Goal=   None    Shift=    0.000
 RMSDP=9.00D-05 MaxDP=2.37D-03 DE=-5.77D-04 OVMax= 1.00D-02

 Cycle   5  Pass 0  IDiag  1:
 RMSU=  6.83D-05    CP:  9.79D-01  1.05D+00  1.12D+00  1.31D+00
 E= -192.136735630278     Delta-E=       -0.000170045346 Rises=F Damp=F
 DIIS: error= 5.71D-04 at cycle   5 NSaved=   5.
 NSaved= 5 IEnMin= 5 EnMin= -192.136735630278     IErMin= 5 ErrMin= 5.71D-04
 ErrMax= 5.71D-04  0.00D+00 EMaxC= 1.00D-01 BMatC= 6.86D-05 BMatP= 3.00D-04
 IDIUse=3 WtCom= 9.94D-01 WtEn= 5.71D-03
 Coeff-Com:  0.623D-02-0.169D+00-0.505D-01 0.336D+00 0.877D+00
 Coeff-En:   0.000D+00 0.000D+00 0.000D+00 0.000D+00 0.100D+01
 Coeff:      0.620D-02-0.168D+00-0.502D-01 0.334D+00 0.878D+00
 Gap=     0.282 Goal=   None    Shift=    0.000
 Gap=     0.235 Goal=   None    Shift=    0.000
 RMSDP=6.98D-05 MaxDP=1.85D-03 DE=-1.70D-04 OVMax= 7.50D-03

 Cycle   6  Pass 0  IDiag  1:
 RMSU=  3.03D-05    CP:  9.78D-01  1.05D+00  1.28D+00  1.62D+00  1.47D+00
 E= -192.136800052787     Delta-E=       -0.000064422509 Rises=F Damp=F
 DIIS: error= 4.18D-04 at cycle   6 NSaved=   6.
 NSaved= 6 IEnMin= 6 EnMin= -192.136800052787     IErMin= 6 ErrMin= 4.18D-04
 ErrMax= 4.18D-04  0.00D+00 EMaxC= 1.00D-01 BMatC= 1.60D-05 BMatP= 6.86D-05
 IDIUse=3 WtCom= 9.96D-01 WtEn= 4.18D-03
 Coeff-Com:  0.463D-02-0.673D-01-0.582D-01-0.202D-03 0.334D+00 0.787D+00
 Coeff-En:   0.000D+00 0.000D+00 0.000D+00 0.000D+00 0.000D+00 0.100D+01
 Coeff:      0.461D-02-0.670D-01-0.579D-01-0.201D-03 0.333D+00 0.788D+00
 Gap=     0.282 Goal=   None    Shift=    0.000
 Gap=     0.234 Goal=   None    Shift=    0.000
 RMSDP=3.23D-05 MaxDP=1.23D-03 DE=-6.44D-05 OVMax= 4.86D-03

 Cycle   7  Pass 0  IDiag  1:
 RMSU=  1.74D-05    CP:  9.78D-01  1.05D+00  1.33D+00  1.73D+00  1.68D+00
                    CP:  1.38D+00
 E= -192.136817683262     Delta-E=       -0.000017630474 Rises=F Damp=F
 DIIS: error= 2.39D-04 at cycle   7 NSaved=   7.
 NSaved= 7 IEnMin= 7 EnMin= -192.136817683262     IErMin= 7 ErrMin= 2.39D-04
 ErrMax= 2.39D-04  0.00D+00 EMaxC= 1.00D-01 BMatC= 9.33D-06 BMatP= 1.60D-05
 IDIUse=3 WtCom= 9.98D-01 WtEn= 2.39D-03
 Coeff-Com:  0.483D-04 0.281D-01-0.567D-02-0.119D+00-0.195D+00 0.474D+00
 Coeff-Com:  0.818D+00
 Coeff-En:   0.000D+00 0.000D+00 0.000D+00 0.000D+00 0.000D+00 0.000D+00
 Coeff-En:   0.100D+01
 Coeff:      0.482D-04 0.281D-01-0.565D-02-0.119D+00-0.194D+00 0.473D+00
 Coeff:      0.818D+00
 Gap=     0.282 Goal=   None    Shift=    0.000
 Gap=     0.234 Goal=   None    Shift=    0.000
 RMSDP=2.68D-05 MaxDP=9.46D-04 DE=-1.76D-05 OVMax= 3.24D-03

 Cycle   8  Pass 0  IDiag  1:
 RMSU=  1.06D-05    CP:  9.78D-01  1.05D+00  1.37D+00  1.78D+00  1.84D+00
                    CP:  1.88D+00  1.50D+00
 E= -192.136827114803     Delta-E=       -0.000009431542 Rises=F Damp=F
 DIIS: error= 9.33D-05 at cycle   8 NSaved=   8.
 NSaved= 8 IEnMin= 8 EnMin= -192.136827114803     IErMin= 8 ErrMin= 9.33D-05
 ErrMax= 9.33D-05  0.00D+00 EMaxC= 1.00D-01 BMatC= 2.38D-06 BMatP= 9.33D-06
 IDIUse=1 WtCom= 1.00D+00 WtEn= 0.00D+00
 Coeff-Com: -0.178D-02 0.402D-01 0.242D-01-0.588D-01-0.246D+00-0.319D-01
 Coeff-Com:  0.363D+00 0.911D+00
 Coeff:     -0.178D-02 0.402D-01 0.242D-01-0.588D-01-0.246D+00-0.319D-01
 Coeff:      0.363D+00 0.911D+00
 Gap=     0.282 Goal=   None    Shift=    0.000
 Gap=     0.234 Goal=   None    Shift=    0.000
 RMSDP=1.87D-05 MaxDP=7.05D-04 DE=-9.43D-06 OVMax= 2.55D-03

 Cycle   9  Pass 0  IDiag  1:
 RMSU=  5.09D-06    CP:  9.78D-01  1.05D+00  1.40D+00  1.81D+00  1.94D+00
                    CP:  2.25D+00  1.98D+00  1.61D+00
 E= -192.136830626766     Delta-E=       -0.000003511963 Rises=F Damp=F
 DIIS: error= 5.74D-05 at cycle   9 NSaved=   9.
 NSaved= 9 IEnMin= 9 EnMin= -192.136830626766     IErMin= 9 ErrMin= 5.74D-05
 ErrMax= 5.74D-05  0.00D+00 EMaxC= 1.00D-01 BMatC= 4.89D-07 BMatP= 2.38D-06
 IDIUse=1 WtCom= 1.00D+00 WtEn= 0.00D+00
 Coeff-Com: -0.299D-03-0.338D-02 0.967D-02 0.334D-01 0.225D-01-0.182D+00
 Coeff-Com: -0.244D+00 0.206D+00 0.116D+01
 Coeff:     -0.299D-03-0.338D-02 0.967D-02 0.334D-01 0.225D-01-0.182D+00
 Coeff:     -0.244D+00 0.206D+00 0.116D+01
 Gap=     0.282 Goal=   None    Shift=    0.000
 Gap=     0.234 Goal=   None    Shift=    0.000
 RMSDP=1.30D-05 MaxDP=6.16D-04 DE=-3.51D-06 OVMax= 1.51D-03

 Failed to achieve initial convergence to 1.0D-08 in 10 cycles.
 Switch to full accuracy anyway.
 Cycle  10  Pass 1  IDiag  1:
 E= -192.136827819016     Delta-E=        0.000002807749 Rises=F Damp=F
 DIIS: error= 1.09D-04 at cycle   1 NSaved=   1.
 NSaved= 1 IEnMin= 1 EnMin= -192.136827819016     IErMin= 1 ErrMin= 1.09D-04
 ErrMax= 1.09D-04  0.00D+00 EMaxC= 1.00D-01 BMatC= 2.20D-06 BMatP= 2.20D-06
 IDIUse=3 WtCom= 9.99D-01 WtEn= 1.09D-03
 Coeff-Com:  0.100D+01
 Coeff-En:   0.100D+01
 Coeff:      0.100D+01
 Gap=     0.282 Goal=   None    Shift=    0.000
 Gap=     0.234 Goal=   None    Shift=    0.000
 RMSDP=1.30D-05 MaxDP=6.16D-04 DE= 2.81D-06 OVMax= 1.92D-04

 Cycle  11  Pass 1  IDiag  1:
 RMSU=  1.29D-04    CP:  1.00D+00
 E= -192.136828079987     Delta-E=       -0.000000260971 Rises=F Damp=F
 DIIS: error= 1.93D-05 at cycle   2 NSaved=   2.
 NSaved= 2 IEnMin= 2 EnMin= -192.136828079987     IErMin= 2 ErrMin= 1.93D-05
 ErrMax= 1.93D-05  0.00D+00 EMaxC= 1.00D-01 BMatC= 3.85D-08 BMatP= 2.20D-06
 IDIUse=1 WtCom= 1.00D+00 WtEn= 0.00D+00
 Coeff-Com: -0.227D-01 0.102D+01
 Coeff:     -0.227D-01 0.102D+01
 Gap=     0.282 Goal=   None    Shift=    0.000
 Gap=     0.234 Goal=   None    Shift=    0.000
 RMSDP=6.25D-06 MaxDP=2.44D-04 DE=-2.61D-07 OVMax= 1.82D-04

 Cycle  12  Pass 1  IDiag  1:
 RMSU=  2.99D-06    CP:  1.00D+00  1.04D+00
 E= -192.136828118825     Delta-E=       -0.000000038838 Rises=F Damp=F
 DIIS: error= 1.43D-05 at cycle   3 NSaved=   3.
 NSaved= 3 IEnMin= 3 EnMin= -192.136828118825     IErMin= 3 ErrMin= 1.43D-05
 ErrMax= 1.43D-05  0.00D+00 EMaxC= 1.00D-01 BMatC= 2.80D-08 BMatP= 3.85D-08
 IDIUse=1 WtCom= 1.00D+00 WtEn= 0.00D+00
 Coeff-Com: -0.179D-01 0.424D+00 0.594D+00
 Coeff:     -0.179D-01 0.424D+00 0.594D+00
 Gap=     0.282 Goal=   None    Shift=    0.000
 Gap=     0.234 Goal=   None    Shift=    0.000
 RMSDP=7.04D-07 MaxDP=3.63D-05 DE=-3.88D-08 OVMax= 8.83D-05

 Cycle  13  Pass 1  IDiag  1:
 RMSU=  5.70D-07    CP:  1.00D+00  1.04D+00  1.10D+00
 E= -192.136828134516     Delta-E=       -0.000000015691 Rises=F Damp=F
 DIIS: error= 1.12D-05 at cycle   4 NSaved=   4.
 NSaved= 4 IEnMin= 4 EnMin= -192.136828134516     IErMin= 4 ErrMin= 1.12D-05
 ErrMax= 1.12D-05  0.00D+00 EMaxC= 1.00D-01 BMatC= 1.19D-08 BMatP= 2.80D-08
 IDIUse=1 WtCom= 1.00D+00 WtEn= 0.00D+00
 Coeff-Com:  0.686D-02-0.473D+00 0.229D+00 0.124D+01
 Coeff:      0.686D-02-0.473D+00 0.229D+00 0.124D+01
 Gap=     0.282 Goal=   None    Shift=    0.000
 Gap=     0.234 Goal=   None    Shift=    0.000
 RMSDP=1.32D-06 MaxDP=5.78D-05 DE=-1.57D-08 OVMax= 1.46D-04

 Cycle  14  Pass 1  IDiag  1:
 RMSU=  7.09D-07    CP:  1.00D+00  1.05D+00  1.35D+00  2.29D+00
 E= -192.136828154628     Delta-E=       -0.000000020112 Rises=F Damp=F
 DIIS: error= 5.43D-06 at cycle   5 NSaved=   5.
 NSaved= 5 IEnMin= 5 EnMin= -192.136828154628     IErMin= 5 ErrMin= 5.43D-06
 ErrMax= 5.43D-06  0.00D+00 EMaxC= 1.00D-01 BMatC= 3.80D-09 BMatP= 1.19D-08
 IDIUse=1 WtCom= 1.00D+00 WtEn= 0.00D+00
 Coeff-Com:  0.103D-01-0.381D+00-0.111D+00 0.540D+00 0.942D+00
 Coeff:      0.103D-01-0.381D+00-0.111D+00 0.540D+00 0.942D+00
 Gap=     0.282 Goal=   None    Shift=    0.000
 Gap=     0.234 Goal=   None    Shift=    0.000
 RMSDP=8.46D-07 MaxDP=3.48D-05 DE=-2.01D-08 OVMax= 8.55D-05

 Cycle  15  Pass 1  IDiag  1:
 RMSU=  2.82D-07    CP:  1.00D+00  1.05D+00  1.46D+00  3.00D+00  1.66D+00
 E= -192.136828161154     Delta-E=       -0.000000006526 Rises=F Damp=F
 DIIS: error= 2.48D-06 at cycle   6 NSaved=   6.
 NSaved= 6 IEnMin= 6 EnMin= -192.136828161154     IErMin= 6 ErrMin= 2.48D-06
 ErrMax= 2.48D-06  0.00D+00 EMaxC= 1.00D-01 BMatC= 9.90D-10 BMatP= 3.80D-09
 IDIUse=1 WtCom= 1.00D+00 WtEn= 0.00D+00
 Coeff-Com:  0.832D-03 0.395D-01-0.119D+00-0.261D+00 0.388D+00 0.952D+00
 Coeff:      0.832D-03 0.395D-01-0.119D+00-0.261D+00 0.388D+00 0.952D+00
 Gap=     0.282 Goal=   None    Shift=    0.000
 Gap=     0.234 Goal=   None    Shift=    0.000
 RMSDP=4.63D-07 MaxDP=1.91D-05 DE=-6.53D-09 OVMax= 4.05D-05

 Cycle  16  Pass 1  IDiag  1:
 RMSU=  2.44D-07    CP:  1.00D+00  1.04D+00  1.48D+00  3.00D+00  2.05D+00
                    CP:  1.81D+00
 E= -192.136828162405     Delta-E=       -0.000000001251 Rises=F Damp=F
 DIIS: error= 8.08D-07 at cycle   7 NSaved=   7.
 NSaved= 7 IEnMin= 7 EnMin= -192.136828162405     IErMin= 7 ErrMin= 8.08D-07
 ErrMax= 8.08D-07  0.00D+00 EMaxC= 1.00D-01 BMatC= 1.51D-10 BMatP= 9.90D-10
 IDIUse=1 WtCom= 1.00D+00 WtEn= 0.00D+00
 Coeff-Com: -0.864D-03 0.632D-01-0.379D-01-0.173D+00 0.538D-01 0.379D+00
 Coeff-Com:  0.716D+00
 Coeff:     -0.864D-03 0.632D-01-0.379D-01-0.173D+00 0.538D-01 0.379D+00
 Coeff:      0.716D+00
 Gap=     0.282 Goal=   None    Shift=    0.000
 Gap=     0.234 Goal=   None    Shift=    0.000
 RMSDP=1.13D-07 MaxDP=3.38D-06 DE=-1.25D-09 OVMax= 9.40D-06

 Cycle  17  Pass 1  IDiag  1:
 RMSU=  5.58D-08    CP:  1.00D+00  1.04D+00  1.48D+00  3.00D+00  2.13D+00
                    CP:  1.95D+00  1.25D+00
 E= -192.136828162513     Delta-E=       -0.000000000108 Rises=F Damp=F
 DIIS: error= 8.07D-07 at cycle   8 NSaved=   8.
 NSaved= 8 IEnMin= 8 EnMin= -192.136828162513     IErMin= 8 ErrMin= 8.07D-07
 ErrMax= 8.07D-07  0.00D+00 EMaxC= 1.00D-01 BMatC= 6.32D-11 BMatP= 1.51D-10
 IDIUse=1 WtCom= 1.00D+00 WtEn= 0.00D+00
 Coeff-Com: -0.769D-03 0.285D-01 0.896D-02-0.323D-01-0.705D-01-0.561D-01
 Coeff-Com:  0.401D+00 0.721D+00
 Coeff:     -0.769D-03 0.285D-01 0.896D-02-0.323D-01-0.705D-01-0.561D-01
 Coeff:      0.401D+00 0.721D+00
 Gap=     0.282 Goal=   None    Shift=    0.000
 Gap=     0.234 Goal=   None    Shift=    0.000
 RMSDP=5.81D-08 MaxDP=1.76D-06 DE=-1.08D-10 OVMax= 7.45D-06

 Cycle  18  Pass 1  IDiag  1:
 RMSU=  2.88D-08    CP:  1.00D+00  1.04D+00  1.48D+00  3.00D+00  2.16D+00
                    CP:  2.04D+00  1.35D+00  1.38D+00
 E= -192.136828162564     Delta-E=       -0.000000000051 Rises=F Damp=F
 DIIS: error= 3.37D-07 at cycle   9 NSaved=   9.
 NSaved= 9 IEnMin= 9 EnMin= -192.136828162564     IErMin= 9 ErrMin= 3.37D-07
 ErrMax= 3.37D-07  0.00D+00 EMaxC= 1.00D-01 BMatC= 1.69D-11 BMatP= 6.32D-11
 IDIUse=1 WtCom= 1.00D+00 WtEn= 0.00D+00
 Coeff-Com:  0.117D-03-0.180D-01 0.170D-01 0.640D-01-0.335D-01-0.194D+00
 Coeff-Com: -0.214D+00 0.277D+00 0.110D+01
 Coeff:      0.117D-03-0.180D-01 0.170D-01 0.640D-01-0.335D-01-0.194D+00
 Coeff:     -0.214D+00 0.277D+00 0.110D+01
 Gap=     0.282 Goal=   None    Shift=    0.000
 Gap=     0.234 Goal=   None    Shift=    0.000
 RMSDP=5.06D-08 MaxDP=1.64D-06 DE=-5.06D-11 OVMax= 6.33D-06

 Cycle  19  Pass 1  IDiag  1:
 RMSU=  2.47D-08    CP:  1.00D+00  1.04D+00  1.48D+00  3.00D+00  2.19D+00
                    CP:  2.08D+00  1.42D+00  1.81D+00  1.69D+00
 E= -192.136828162585     Delta-E=       -0.000000000022 Rises=F Damp=F
 DIIS: error= 1.18D-07 at cycle  10 NSaved=  10.
 NSaved=10 IEnMin=10 EnMin= -192.136828162585     IErMin=10 ErrMin= 1.18D-07
 ErrMax= 1.18D-07  0.00D+00 EMaxC= 1.00D-01 BMatC= 1.45D-12 BMatP= 1.69D-11
 IDIUse=1 WtCom= 1.00D+00 WtEn= 0.00D+00
 Coeff-Com:  0.143D-03-0.728D-02-0.146D-02 0.136D-01 0.155D-01-0.191D-01
 Coeff-Com: -0.105D+00-0.829D-01 0.118D+00 0.107D+01
 Coeff:      0.143D-03-0.728D-02-0.146D-02 0.136D-01 0.155D-01-0.191D-01
 Coeff:     -0.105D+00-0.829D-01 0.118D+00 0.107D+01
 Gap=     0.282 Goal=   None    Shift=    0.000
 Gap=     0.234 Goal=   None    Shift=    0.000
 RMSDP=1.90D-08 MaxDP=6.65D-07 DE=-2.16D-11 OVMax= 2.74D-06

 Cycle  20  Pass 1  IDiag  1:
 RMSU=  7.76D-09    CP:  1.00D+00  1.04D+00  1.48D+00  3.00D+00  2.20D+00
                    CP:  2.10D+00  1.43D+00  1.87D+00  1.93D+00  1.51D+00
 E= -192.136828162590     Delta-E=       -0.000000000005 Rises=F Damp=F
 DIIS: error= 3.27D-08 at cycle  11 NSaved=  11.
 NSaved=11 IEnMin=11 EnMin= -192.136828162590     IErMin=11 ErrMin= 3.27D-08
 ErrMax= 3.27D-08  0.00D+00 EMaxC= 1.00D-01 BMatC= 2.27D-13 BMatP= 1.45D-12
 IDIUse=1 WtCom= 1.00D+00 WtEn= 0.00D+00
 Coeff-Com: -0.159D-04 0.284D-02-0.366D-02-0.104D-01 0.806D-02 0.302D-01
 Coeff-Com:  0.329D-01-0.479D-01-0.189D+00 0.395D-01 0.114D+01
 Coeff:     -0.159D-04 0.284D-02-0.366D-02-0.104D-01 0.806D-02 0.302D-01
 Coeff:      0.329D-01-0.479D-01-0.189D+00 0.395D-01 0.114D+01
 Gap=     0.282 Goal=   None    Shift=    0.000
 Gap=     0.234 Goal=   None    Shift=    0.000
 RMSDP=8.21D-09 MaxDP=3.15D-07 DE=-4.77D-12 OVMax= 1.03D-06

 SCF Done:  E(UM062X) =  -192.136828163     A.U. after   20 cycles
            NFock= 20  Conv=0.82D-08     -V/T= 2.0059
 <Sx>= 0.0000 <Sy>= 0.0000 <Sz>= 0.5000 <S**2>= 0.7822 S= 0.5159
 <L.S>= 0.000000000000E+00
 KE= 1.910016185119D+02 PE=-6.746572648378D+02 EE= 1.767912557251D+02
 Annihilation of the first spin contaminant:
 S**2 before annihilation     0.7822,   after     0.7505
 Leave Link  502 at Mon Oct 12 17:22:38 2020, MaxMem=   268435456 cpu:             364.1 elap:              45.5
 (Enter /home/spantaleone/g16/l508.exe)
 QCSCF skips out because SCF is already converged.
 Leave Link  508 at Mon Oct 12 17:22:38 2020, MaxMem=   268435456 cpu:               0.0 elap:               0.0
 (Enter /home/spantaleone/g16/l701.exe)
 ... and contract with generalized density number  0.
 Compute integral first derivatives.
 Leave Link  701 at Mon Oct 12 17:22:38 2020, MaxMem=   268435456 cpu:               1.4 elap:               0.2
 (Enter /home/spantaleone/g16/l702.exe)
 L702 exits ... SP integral derivatives will be done elsewhere.
 Leave Link  702 at Mon Oct 12 17:22:38 2020, MaxMem=   268435456 cpu:               0.2 elap:               0.0
 (Enter /home/spantaleone/g16/l703.exe)
 Integral derivatives from FoFJK, PRISM(SPDF).
 Compute integral first derivatives, UseDBF=F ICtDFT=           0.
 Calling FoFJK, ICntrl=      2127 FMM=F ISym2X=0 I1Cent= 0 IOpClX= 1 NMat=1 NMatS=1 NMatT=0.
 FoFJK:  IHMeth= 1 ICntrl=    2127 DoSepK=F KAlg= 0 I1Cent=           0 FoldK=F
 IRaf=         0 NMat=       1 IRICut=       1 DoRegI=T DoRafI=F ISym2E= 0 IDoP0=0 IntGTp=1.
 FoFCou: FMM=F IPFlag=           0 FMFlag=      100000 FMFlg1=         800
         NFxFlg=           0 DoJE=F BraDBF=F KetDBF=F FulRan=T
         wScrn=  0.000000 ICntrl=      2127 IOpCl=  1 I1Cent=           0 NGrid=           0
         NMat0=    1 NMatS0=      1 NMatT0=    0 NMatD0=    1 NMtDS0=    0 NMtDT0=    0
 Symmetry not used in FoFCou.
 Leave Link  703 at Mon Oct 12 17:22:44 2020, MaxMem=   268435456 cpu:              41.7 elap:               5.2
 (Enter /home/spantaleone/g16/l716.exe)
 Dipole        =-1.34339717D-01-1.10372852D-01-8.13921956D-02
 -------------------------------------------------------------------
[...]
 NAB=   132 NAA=    66 NBB=    55 NumPrc=  8.
 DD1Dir:  Pass   1 NRAB=    25 NRAA=     0 NRBB=     0 NR=    50.
 DD1Dir:  Pass   2 NRAB=    25 NRAA=     0 NRBB=     0 NR=    50.
 DD1Dir:  Pass   3 NRAB=    25 NRAA=     0 NRBB=     0 NR=    50.
 DD1Dir:  Pass   4 NRAB=    25 NRAA=     0 NRBB=     0 NR=    50.
 DD1Dir:  Pass   5 NRAB=    25 NRAA=     0 NRBB=     0 NR=    50.
 DD1Dir:  Pass   6 NRAB=     7 NRAA=    36 NRBB=     0 NR=    50.
 DD1Dir:  Pass   7 NRAB=     0 NRAA=    30 NRBB=    20 NR=    50.
 DD1Dir:  Pass   8 NRAB=     0 NRAA=     0 NRBB=    35 NR=    35.
 A-vector RMS=  1.2097851D-07 Max=  4.3587577D-06 conv= 1.00D-05.
 RLE energy=       -0.7778462402
 DE(Corr)= -0.77784608     E(CORR)=     -191.75873731     Delta=-2.60D-07
 NORM(A)=   0.11609905D+01
 Iteration Nr.  18
 **********************
 DD1Dir will call FoFJK   8 times, MxPair=        50
 NAB=   132 NAA=    66 NBB=    55 NumPrc=  8.
 DD1Dir:  Pass   1 NRAB=    25 NRAA=     0 NRBB=     0 NR=    50.
 DD1Dir:  Pass   2 NRAB=    25 NRAA=     0 NRBB=     0 NR=    50.
 DD1Dir:  Pass   3 NRAB=    25 NRAA=     0 NRBB=     0 NR=    50.
 DD1Dir:  Pass   4 NRAB=    25 NRAA=     0 NRBB=     0 NR=    50.
 DD1Dir:  Pass   5 NRAB=    25 NRAA=     0 NRBB=     0 NR=    50.
 DD1Dir:  Pass   6 NRAB=     7 NRAA=    36 NRBB=     0 NR=    50.
 DD1Dir:  Pass   7 NRAB=     0 NRAA=    30 NRBB=    20 NR=    50.
 DD1Dir:  Pass   8 NRAB=     0 NRAA=     0 NRBB=    35 NR=    35.
 A-vector RMS=  4.7225166D-08 Max=  1.1601012D-06 conv= 1.00D-05.
 RLE energy=       -0.7778462278
 DE(Corr)= -0.77784622     E(CORR)=     -191.75873745     Delta=-1.40D-07
 NORM(A)=   0.11609908D+01
 Iteration Nr.  19
 **********************
 DD1Dir will call FoFJK   8 times, MxPair=        50
 NAB=   132 NAA=    66 NBB=    55 NumPrc=  8.
 DD1Dir:  Pass   1 NRAB=    25 NRAA=     0 NRBB=     0 NR=    50.
 DD1Dir:  Pass   2 NRAB=    25 NRAA=     0 NRBB=     0 NR=    50.
 DD1Dir:  Pass   3 NRAB=    25 NRAA=     0 NRBB=     0 NR=    50.
 DD1Dir:  Pass   4 NRAB=    25 NRAA=     0 NRBB=     0 NR=    50.
 DD1Dir:  Pass   5 NRAB=    25 NRAA=     0 NRBB=     0 NR=    50.
 DD1Dir:  Pass   6 NRAB=     7 NRAA=    36 NRBB=     0 NR=    50.
 DD1Dir:  Pass   7 NRAB=     0 NRAA=    30 NRBB=    20 NR=    50.
 DD1Dir:  Pass   8 NRAB=     0 NRAA=     0 NRBB=    35 NR=    35.
 A-vector RMS=  2.3546548D-08 Max=  3.8720249D-07 conv= 1.00D-05.
 RLE energy=       -0.7778462458
 DE(Corr)= -0.77784625     E(CORR)=     -191.75873748     Delta=-3.29D-08
 NORM(A)=   0.11609909D+01
 CI/CC converged in   19 iterations to DelEn=-3.29D-08 Conv= 1.00D-07 ErrA1= 2.35D-08 Conv= 1.00D-05
 Wavefunction amplitudes converged. E(Corr)=     -191.75873748    
 Dominant configurations:
 ***********************
 Spin Case        I    J    A    B          Value
    BB           15        17           -0.130639D+00
 Largest amplitude= 1.31D-01
 Time for triples=    21512.22 seconds.
 T4(CCSD)= -0.46204109D-01
 T5(CCSD)=  0.13342031D-02
 CCSD(T)= -0.19180360738D+03
 Discarding MO integrals.
 Leave Link  913 at Mon Oct 12 19:31:07 2020, MaxMem=   327680000 cpu:           53783.8 elap:            6748.2
 (Enter /home/spantaleone/g16/l601.exe)
 Copying SCF densities to generalized density rwf, IOpCl= 0 IROHF=1.

 **********************************************************************

            Population analysis using the SCF Density.

 **********************************************************************

 Orbital symmetries:
       Occupied  (A) (A) (A) (A) (A) (A) (A) (A) (A) (A) (A) (A)
                 (A) (A) (A) (A) (A)
       Virtual   (A) (A) (A) (A) (A) (A) (A) (A) (A) (A) (A) (A)
                 (A) (A) (A) (A) (A) (A) (A) (A) (A) (A) (A) (A)
                 (A) (A) (A) (A) (A) (A) (A) (A) (A) (A) (A) (A)
                 (A) (A) (A) (A) (A) (A) (A) (A) (A) (A) (A) (A)
                 (A) (A) (A) (A) (A) (A) (A) (A) (A) (A) (A) (A)
                 (A) (A) (A) (A) (A) (A) (A) (A) (A) (A) (A) (A)
                 (A) (A) (A) (A) (A) (A) (A) (A) (A) (A) (A) (A)
                 (A) (A) (A) (A) (A) (A) (A) (A) (A) (A) (A) (A)
                 (A) (A) (A) (A) (A) (A) (A) (A) (A) (A) (A) (A)
                 (A) (A) (A) (A) (A) (A) (A) (A) (A) (A) (A) (A)
                 (A) (A) (A) (A) (A) (A) (A) (A) (A) (A) (A) (A)
                 (A) (A) (A) (A) (A) (A) (A) (A) (A) (A) (A) (A)
                 (A) (A) (A) (A) (A) (A) (A) (A) (A) (A) (A) (A)
                 (A) (A) (A) (A) (A) (A) (A) (A) (A) (A) (A) (A)
                 (A) (A) (A) (A) (A) (A) (A) (A) (A) (A) (A) (A)
                 (A) (A) (A) (A) (A) (A) (A) (A) (A) (A) (A) (A)
                 (A) (A) (A) (A) (A) (A) (A) (A) (A) (A) (A) (A)
                 (A) (A) (A) (A) (A) (A) (A) (A) (A) (A) (A) (A)
                 (A) (A) (A) (A) (A) (A) (A) (A) (A) (A) (A) (A)
                 (A) (A) (A) (A) (A) (A) (A) (A) (A) (A) (A) (A)
                 (A) (A) (A) (A) (A) (A) (A) (A) (A) (A) (A) (A)
                 (A) (A) (A) (A) (A) (A) (A) (A) (A) (A) (A) (A)
                 (A) (A) (A) (A) (A) (A) (A) (A) (A) (A) (A) (A)
                 (A) (A) (A) (A) (A)
 The electronic state is 2-A.
 Alpha  occ. eigenvalues --  -11.27478 -11.26544 -11.26224 -11.26142 -11.25233
 Alpha  occ. eigenvalues --   -1.11075  -1.05786  -0.97583  -0.83220  -0.71636
 Alpha  occ. eigenvalues --   -0.68082  -0.63839  -0.53037  -0.48423  -0.44303
 Alpha  occ. eigenvalues --   -0.35641  -0.30433
 Alpha virt. eigenvalues --    0.02827   0.03013   0.04322   0.06553   0.07707
 Alpha virt. eigenvalues --    0.08112   0.08346   0.09442   0.10593   0.11081
 Alpha virt. eigenvalues --    0.11787   0.12026   0.13153   0.13920   0.14029
 Alpha virt. eigenvalues --    0.14904   0.17437   0.17569   0.18470   0.19377
 Alpha virt. eigenvalues --    0.20703   0.22294   0.22677   0.23121   0.23502
 Alpha virt. eigenvalues --    0.25872   0.27636   0.27913   0.28400   0.28683
 Alpha virt. eigenvalues --    0.29236   0.31740   0.31778   0.33976   0.34765
 Alpha virt. eigenvalues --    0.35044   0.35088   0.36490   0.36801   0.38140
 Alpha virt. eigenvalues --    0.38758   0.40182   0.40704   0.40938   0.41694
 Alpha virt. eigenvalues --    0.41957   0.42686   0.43177   0.43634   0.44102
 Alpha virt. eigenvalues --    0.45777   0.45796   0.46874   0.48145   0.50156
 Alpha virt. eigenvalues --    0.51426   0.53578   0.54500   0.54917   0.58338
 Alpha virt. eigenvalues --    0.59510   0.60245   0.64236   0.66317   0.67443
 Alpha virt. eigenvalues --    0.67819   0.71071   0.73085   0.75950   0.79667
 Alpha virt. eigenvalues --    0.81277   0.83624   0.83725   0.85232   0.85661
 Alpha virt. eigenvalues --    0.85662   0.88080   0.89055   0.89094   0.90346
 Alpha virt. eigenvalues --    0.91283   0.91547   0.91896   0.93961   0.94839
 Alpha virt. eigenvalues --    0.95000   0.95676   0.96424   0.99092   0.99218
 Alpha virt. eigenvalues --    0.99933   1.00204   1.01347   1.01370   1.01914
 Alpha virt. eigenvalues --    1.03320   1.06243   1.06669   1.07706   1.08126
 Alpha virt. eigenvalues --    1.09003   1.09379   1.10625   1.10875   1.11764
 Alpha virt. eigenvalues --    1.13990   1.15151   1.16593   1.18288   1.18719
 Alpha virt. eigenvalues --    1.20911   1.21159   1.21770   1.24366   1.24453
 Alpha virt. eigenvalues --    1.31626   1.31703   1.32175   1.36110   1.37634
 Alpha virt. eigenvalues --    1.39271   1.39769   1.42498   1.44236   1.47079
 Alpha virt. eigenvalues --    1.50778   1.52919   1.53981   1.54625   1.57591
 Alpha virt. eigenvalues --    1.57674   1.59186   1.65212   1.65634   1.68982
 Alpha virt. eigenvalues --    1.70568   1.73985   1.74295   1.76729   1.77057
 Alpha virt. eigenvalues --    1.78855   1.78857   1.79046   1.82158   1.83167
 Alpha virt. eigenvalues --    1.87324   1.89058   1.94302   1.95114   2.02121
 Alpha virt. eigenvalues --    2.02520   2.03672   2.03881   2.04959   2.05558
 Alpha virt. eigenvalues --    2.06235   2.15145   2.15571   2.22949   2.23470
 Alpha virt. eigenvalues --    2.28382   2.29880   2.33191   2.37295   2.46201
 Alpha virt. eigenvalues --    2.48711   2.49895   2.57475   2.59815   2.64923
 Alpha virt. eigenvalues --    2.67711   2.79049   2.79275   2.93071   3.01127
 Alpha virt. eigenvalues --    3.08604   3.11474   3.14556   3.16541   3.17087
 Alpha virt. eigenvalues --    3.20169   3.21289   3.25175   3.25685   3.27958
 Alpha virt. eigenvalues --    3.28756   3.29462   3.29852   3.31640   3.32503
 Alpha virt. eigenvalues --    3.34436   3.36273   3.36473   3.40065   3.41121
 Alpha virt. eigenvalues --    3.41907   3.42818   3.44633   3.47563   3.48687
 Alpha virt. eigenvalues --    3.49866   3.52565   3.54603   3.56071   3.62030
 Alpha virt. eigenvalues --    3.65109   3.66998   3.70017   3.71316   3.73209
 Alpha virt. eigenvalues --    3.75671   3.77185   3.78376   3.80588   3.81309
 Alpha virt. eigenvalues --    3.83025   3.83239   3.83446   3.84007   3.85649
 Alpha virt. eigenvalues --    3.86697   3.91157   3.93312   3.95906   4.00479
 Alpha virt. eigenvalues --    4.01088   4.06108   4.06318   4.07199   4.11852
 Alpha virt. eigenvalues --    4.16208   4.20935   4.23500   4.25047   4.34731
 Alpha virt. eigenvalues --    4.35447   4.38905   4.41455   4.45040   4.47863
 Alpha virt. eigenvalues --    4.55446   4.58721   4.66642   4.67415   4.71044
 Alpha virt. eigenvalues --    4.75214   4.80569   4.80927   4.93151   4.93246
 Alpha virt. eigenvalues --    4.93290   4.93708   5.06100   5.06402   5.07753
 Alpha virt. eigenvalues --    5.17403   5.20272   5.39371   5.43046   5.44189
 Alpha virt. eigenvalues --    5.45175   5.62197   5.65018   5.83605   5.89768
 Alpha virt. eigenvalues --    6.09606   6.18716   6.29978   6.33757   6.53140
 Alpha virt. eigenvalues --    6.64732   6.71246   6.89406   7.12984   7.20245
 Alpha virt. eigenvalues --    7.33734  15.29049  16.92137  17.30425  20.89875
 Alpha virt. eigenvalues --   21.95629
          Condensed to atoms (all electrons):
               1          2          3          4          5          6
     1  C    7.048881  -0.115688  -0.396960   0.102713  -0.032995  -0.000707
     2  C   -0.115688   5.907564  -0.574184   0.055416   0.487286   0.022019
     3  C   -0.396960  -0.574184   7.720040  -0.146668  -1.448829  -0.042568
     4  C    0.102713   0.055416  -0.146668   6.864072  -1.902147  -0.154648
     5  C   -0.032995   0.487286  -1.448829  -1.902147  10.374513   0.564926
     6  H   -0.000707   0.022019  -0.042568  -0.154648   0.564926   0.281935
     7  H    0.387298  -0.038668  -0.055093   0.014259   0.004254   0.000308
     8  H    0.387418  -0.038816  -0.055096   0.014303   0.004263   0.000309
               7          8
     1  C    0.387298   0.387418
     2  C   -0.038668  -0.038816
     3  C   -0.055093  -0.055096
     4  C    0.014259   0.014303
     5  C    0.004254   0.004263
     6  H    0.000308   0.000309
     7  H    0.352162   0.007576
     8  H    0.007576   0.352265
          Atomic-Atomic Spin Densities.
               1          2          3          4          5          6
     1  C    0.812666  -0.012022  -0.092227   0.007715   0.000072  -0.000004
     2  C   -0.012022   0.006532  -0.024352   0.005259   0.001335  -0.000020
     3  C   -0.092227  -0.024352   0.358597  -0.036475  -0.009319   0.000131
     4  C    0.007715   0.005259  -0.036475   0.012949   0.010171  -0.000097
     5  C    0.000072   0.001335  -0.009319   0.010171   0.037821   0.000319
     6  H   -0.000004  -0.000020   0.000131  -0.000097   0.000319   0.000050
     7  H    0.018878  -0.000653  -0.001595   0.000143  -0.000001  -0.000000
     8  H    0.018881  -0.000653  -0.001595   0.000143  -0.000001  -0.000000
               7          8
     1  C    0.018878   0.018881
     2  C   -0.000653  -0.000653
     3  C   -0.001595  -0.001595
     4  C    0.000143   0.000143
     5  C   -0.000001  -0.000001
     6  H   -0.000000  -0.000000
     7  H    0.001306   0.000353
     8  H    0.000353   0.001307
 Mulliken charges and spin densities:
               1          2
     1  C   -1.379962   0.753960
     2  C    0.295070  -0.024573
     3  C    0.999358   0.193167
     4  C    1.152699  -0.000193
     5  C   -2.051272   0.040396
     6  H    0.328426   0.000380
     7  H    0.327904   0.018430
     8  H    0.327776   0.018434
 Sum of Mulliken charges =  -0.00000   1.00000
 Mulliken charges and spin densities with hydrogens summed into heavy atoms:
               1          2
     1  C   -0.724282   0.790824
     2  C    0.295070  -0.024573
     3  C    0.999358   0.193167
     4  C    1.152699  -0.000193
     5  C   -1.722846   0.040775
 Electronic spatial extent (au):  <R**2>=            536.2863
 Charge=             -0.0000 electrons
 Dipole moment (field-independent basis, Debye):
    X=              0.6613    Y=              0.0006    Z=             -0.0017  Tot=              0.6613
 Quadrupole moment (field-independent basis, Debye-Ang):
   XX=            -16.2227   YY=            -29.9882   ZZ=            -31.9116
   XY=             -0.0009   XZ=              0.0010   YZ=              0.0000
 Traceless Quadrupole moment (field-independent basis, Debye-Ang):
   XX=              9.8181   YY=             -3.9474   ZZ=             -5.8707
   XY=             -0.0009   XZ=              0.0010   YZ=              0.0000
 Octapole moment (field-independent basis, Debye-Ang**2):
  XXX=            -15.0659  YYY=              0.0012  ZZZ=             -0.0021  XYY=              6.8212
  XXY=              0.0136  XXZ=             -0.0242  XZZ=              0.7835  YZZ=              0.0003
  YYZ=             -0.0020  XYZ=              0.0000
 Hexadecapole moment (field-independent basis, Debye-Ang**3):
 XXXX=           -483.9252 YYYY=            -41.7470 ZZZZ=            -38.6416 XXXY=             -0.0166
 XXXZ=              0.0609 YYYX=              0.0000 YYYZ=              0.0000 ZZZX=             -0.0012
 ZZZY=              0.0000 XXYY=           -119.0347 XXZZ=           -136.6205 YYZZ=            -13.8615
 XXYZ=              0.0000 YYXZ=             -0.0045 ZZXY=             -0.0005
 N-N= 1.153270174667D+02 E-N=-6.750408921054D+02  KE= 1.907457389648D+02
                          Isotropic Fermi Contact Couplings
        Atom                 a.u.       MegaHertz       Gauss      10(-4) cm-1
     1  C(13)              0.00000       0.00003       0.00001       0.00001
     2  C(13)              0.00000       0.00017       0.00006       0.00006
     3  C(13)              0.00000       0.00094       0.00034       0.00031
     4  C(13)              0.00000       0.00013       0.00005       0.00004
     5  C(13)              0.00000       0.00000       0.00000       0.00000
     6  H(1)               0.00000       0.00000       0.00000       0.00000
     7  H(1)               0.00000       0.00000       0.00000       0.00000
     8  H(1)               0.00000       0.00000       0.00000       0.00000
 --------------------------------------------------------
       Center         ----  Spin Dipole Couplings  ----
                      3XX-RR        3YY-RR        3ZZ-RR
 --------------------------------------------------------
     1   Atom       -0.435126     -0.440805      0.875931
     2   Atom        0.057254     -0.042821     -0.014433
     3   Atom       -0.102957     -0.124076      0.227033
     4   Atom        0.017465     -0.012340     -0.005125
     5   Atom       -0.019425     -0.026943      0.046368
     6   Atom        0.004707     -0.004084     -0.000623
     7   Atom       -0.024330      0.022184      0.002146
     8   Atom       -0.024291      0.022144      0.002148
 --------------------------------------------------------
                        XY            XZ            YZ
 --------------------------------------------------------
     1   Atom        0.000002      0.000233     -0.000004
     2   Atom        0.000015     -0.000019     -0.000000
     3   Atom        0.000004      0.000142     -0.000001
     4   Atom       -0.000002      0.000018     -0.000000
     5   Atom       -0.000002     -0.000059     -0.000000
     6   Atom       -0.000002      0.000003     -0.000000
     7   Atom       -0.044936      0.000000      0.000015
     8   Atom        0.044958      0.000001     -0.000015
 --------------------------------------------------------


 ---------------------------------------------------------------------------------
              Anisotropic Spin Dipole Couplings in Principal Axis System
 ---------------------------------------------------------------------------------

       Atom             a.u.   MegaHertz   Gauss  10(-4) cm-1        Axes

              Baa    -0.4408   -59.152   -21.107   -19.731 -0.0004  1.0000  0.0000
     1 C(13)  Bbb    -0.4351   -58.390   -20.835   -19.477  1.0000  0.0004 -0.0002
              Bcc     0.8759   117.542    41.942    39.208  0.0002 -0.0000  1.0000
 
              Baa    -0.0428    -5.746    -2.050    -1.917 -0.0001  1.0000  0.0000
     2 C(13)  Bbb    -0.0144    -1.937    -0.691    -0.646  0.0003 -0.0000  1.0000
              Bcc     0.0573     7.683     2.741     2.563  1.0000  0.0001 -0.0003
 
              Baa    -0.1241   -16.650    -5.941    -5.554 -0.0002  1.0000  0.0000
     3 C(13)  Bbb    -0.1030   -13.816    -4.930    -4.608  1.0000  0.0002 -0.0004
              Bcc     0.2270    30.466    10.871    10.162  0.0004 -0.0000  1.0000
 
              Baa    -0.0123    -1.656    -0.591    -0.552  0.0001  1.0000  0.0000
     4 C(13)  Bbb    -0.0051    -0.688    -0.245    -0.229 -0.0008 -0.0000  1.0000
              Bcc     0.0175     2.344     0.836     0.782  1.0000 -0.0001  0.0008
 
              Baa    -0.0269    -3.615    -1.290    -1.206  0.0002  1.0000  0.0000
     5 C(13)  Bbb    -0.0194    -2.607    -0.930    -0.870  1.0000 -0.0002  0.0009
              Bcc     0.0464     6.222     2.220     2.075 -0.0009 -0.0000  1.0000
 
              Baa    -0.0041    -2.179    -0.778    -0.727  0.0002  1.0000  0.0000
     6 H(1)   Bbb    -0.0006    -0.333    -0.119    -0.111 -0.0006 -0.0000  1.0000
              Bcc     0.0047     2.512     0.896     0.838  1.0000 -0.0002  0.0006
 
              Baa    -0.0517   -27.569    -9.837    -9.196  0.8543  0.5198 -0.0001
     7 H(1)   Bbb     0.0021     1.145     0.408     0.382  0.0003 -0.0001  1.0000
              Bcc     0.0495    26.424     9.429     8.814 -0.5198  0.8543  0.0003
 
              Baa    -0.0517   -27.570    -9.838    -9.196  0.8541 -0.5202 -0.0002
     8 H(1)   Bbb     0.0021     1.146     0.409     0.382  0.0003  0.0001  1.0000
              Bcc     0.0495    26.424     9.429     8.814  0.5202  0.8541 -0.0003
 

 ---------------------------------------------------------------------------------

 No NMR shielding tensors so no spin-rotation constants.
 Leave Link  601 at Mon Oct 12 19:31:09 2020, MaxMem=   327680000 cpu:              11.6 elap:               1.6
 (Enter /home/spantaleone/g16/l9999.exe)
 1\1\GINC-N1056\SP\ROCCSD(T)-FC\Aug-CC-pVTZ\C5H3(2)\SPANTALEONE\12-Oct-
 2020\0\\#P ROCCSD(T)/aug-cc-pvtz geom=allcheck guess=read\\Title\\0,2\
 C,0,-0.2044717618,-0.1741273785,0.1261241106\C,0,-0.140713099,-0.12079
 71453,1.4772965108\C,0,-0.0816381917,-0.0715827918,2.7034041563\C,0,-0
 .0190410796,-0.019073519,4.0575811585\C,0,0.0365868503,0.0284182754,5.
 2617819303\H,0,0.0857602331,0.0699769641,6.3223556535\H,0,0.3718425711
 ,-0.9032745894,-0.4243196439\H,0,-0.8326078292,0.5111548585,-0.4239525
 141\\Version=ES64L-G16RevB.01\State=2-A\HF=-190.9808912\MP2=-191.74430
 78\MP3=-191.7530643\PUHF=-190.9808912\PMP2-0=-191.7443078\MP4SDQ=-191.
 7576575\CCSD=-191.7587375\CCSD(T)=-191.8036074\RMSD=8.008e-09\PG=C01 [
 X(C5H3)]\\@


 If fifty million people say a stupid thing,
 it is still a stupid thing.
                   -- Anatole France
 Job cpu time:       0 days 15 hours 40 minutes 32.4 seconds.
 Elapsed time:       0 days  1 hours 58 minutes  0.0 seconds.
 File lengths (MBytes):  RWF=  25689 Int=      0 D2E=      0 Chk=     12 Scr=      1
 Normal termination of Gaussian 16 at Mon Oct 12 19:31:16 2020.
