[Molden Format]
[Title]
[Atoms] AU
C      1     6 -0.18599108460704E-01  0.19732439903453E-01 -0.44769597322196E-02
C      2     6  0.21214480239307E+01 -0.10398710017846E+01  0.76860978284634E-01
C      3     6 -0.24596695261010E+01  0.62072389011611E-01  0.13487475455673E+00
H      4     1 -0.37220269590759E+01  0.16251264889332E+01 -0.93429857093883E-01
H      5     1  0.40788494594362E+01 -0.66705842635092E+00 -0.11383080575111E+00
[GTO]
           1 0
 s           4   1.0000000000000000     
   51.049363095579913      -0.16312063210127389     
   8.7911227406887544      -0.19911024581000730     
  0.70640422258929825       0.31882047753655751     
  0.26922813413411617       0.12706504184240380     
 p           4   1.0000000000000000     
   5.8263656140800002       0.73716451545209605     
   1.5106896018720002       0.68216371614850257     
  0.53256483288000001       0.35783053929253711     
  0.21202323690600003        5.3983030275847881E-002

           2 0
 s           4   1.0000000000000000     
   51.049363095579913      -0.16312063210127389     
   8.7911227406887544      -0.19911024581000730     
  0.70640422258929825       0.31882047753655751     
  0.26922813413411617       0.12706504184240380     
 p           4   1.0000000000000000     
   5.8263656140800002       0.73716451545209605     
   1.5106896018720002       0.68216371614850257     
  0.53256483288000001       0.35783053929253711     
  0.21202323690600003        5.3983030275847881E-002

           3 0
 s           4   1.0000000000000000     
   51.049363095579913      -0.16312063210127389     
   8.7911227406887544      -0.19911024581000730     
  0.70640422258929825       0.31882047753655751     
  0.26922813413411617       0.12706504184240380     
 p           4   1.0000000000000000     
   5.8263656140800002       0.73716451545209605     
   1.5106896018720002       0.68216371614850257     
  0.53256483288000001       0.35783053929253711     
  0.21202323690600003        5.3983030275847881E-002

           4 0
 s           3   1.0000000000000000     
   3.3702276975336001       0.27359110588908298     
  0.61389118221497996       0.26460540653860526     
  0.16614291148415999        8.2465947534082318E-002

           5 0
 s           3   1.0000000000000000     
   3.3702276975336001       0.27359110588908298     
  0.61389118221497996       0.26460540653860526     
  0.16614291148415999        8.2465947534082318E-002

[MO]
Sym=     1a
Ene=  -0.63190205857458404     
Spin= Alpha
Occup=     2.00000000
           1 -0.53836103815375347     
           2  -3.7986283004140782E-003
           3   5.7369514912534725E-002
           4  -1.1215309186506808E-002
           5 -0.35473565347775310     
           6  0.15458295810030284     
           7  -7.2834117116311659E-002
           8   5.1280803663449198E-003
           9 -0.31534111540816029     
          10 -0.15688044330062043     
          11   6.8448375773773832E-003
          12   8.0935905981288636E-003
          13  -6.8467596031348305E-002
          14  -7.1718672126017013E-002
Sym=     2a
Ene=  -0.59715736291289034     
Spin= Alpha
Occup=     2.00000000
           1  -2.2795236536476006E-002
           2  0.36018451307048416     
           3  -8.6108908826221853E-002
           4  -4.7063817530966189E-003
           5  0.42305546245092296     
           6  -1.1234579184568128E-002
           7   5.2929042269092855E-002
           8  -9.8392039196243970E-003
           9 -0.44863621065734188     
          10  -5.6157608589711951E-002
          11  -4.2988120859281991E-002
          12   1.1827816434646568E-002
          13 -0.16919753977075511     
          14  0.16258953480098909     
Sym=     3a
Ene=  -0.52830563550711618     
Spin= Alpha
Occup=     2.00000000
           1  0.20971961745520828     
           2   5.3193923795696587E-003
           3  -9.2143253100760519E-002
           4   1.7622058201819776E-002
           5 -0.25432763350275844     
           6 -0.34935301280102682     
           7   8.3867032024860632E-003
           8   1.9150309919296813E-002
           9 -0.25295888523555832     
          10  0.23658073007315822     
          11 -0.15304062633366364     
          12   1.5532648361051055E-002
          13 -0.31590197661723762     
          14 -0.37519913113427178     
Sym=     4a
Ene=  -0.48188117579561535     
Spin= Alpha
Occup=     2.00000000
           1   3.5816417543905479E-003
           2  0.35326670958352790     
           3   2.7757356107689066E-002
           4  -2.5782985142748797E-002
           5  -3.1382597607828237E-002
           6 -0.34292684295698705     
           7  0.12328131853781515     
           8  -3.3474204257140550E-003
           9   2.5291789075338172E-003
          10 -0.36434262732487321     
          11  0.23237405391471846     
          12  -2.2691910632155445E-002
          13  0.36835568661486662     
          14 -0.31477198923075439     
Sym=     5a
Ene=  -0.46129835155802656     
Spin= Alpha
Occup=     2.00000000
           1  -2.8504379740306954E-003
           2   3.4284441821765030E-002
           3  0.11003112680659582     
           4  0.59423209940141308     
           5   2.2564360551725633E-003
           6   2.5500713620194349E-002
           7   8.3036100736821328E-002
           8  0.44731884108598019     
           9   2.2195195174913836E-003
          10   2.2658828541257271E-002
          11   7.5313603322277531E-002
          12  0.40480278406249282     
          13   9.5395012956589934E-005
          14  -3.9157027667736130E-004
Sym=     6a
Ene=  -0.46019924894171899     
Spin= Alpha
Occup=     2.00000000
           1 -0.21963157918132556     
           2  -6.2925819643842015E-002
           3 -0.55397661943746435     
           4  0.10542426238931248     
           5  0.18590074730663206     
           6 -0.12932566034312562     
           7 -0.39228599651537388     
           8   7.9334166580111234E-002
           9  0.21433870980294925     
          10 -0.21871378591452004     
          11 -0.30773179007585938     
          12   6.8811612579609535E-002
          13   6.1272557285148542E-002
          14  -5.9236301960693578E-002
Sym=     7a
Ene=  -0.35501745979151283     
Spin= Alpha
Occup=     1.99948407
           1   1.0973508304900327E-002
           2 -0.10900270643325002     
           3   2.1462012224092723E-003
           4   5.9774714445148432E-003
           5  0.21655902391756190     
           6  -6.9133317431384692E-002
           7 -0.61126388051894232     
           8  0.12414369892813991     
           9 -0.31797027261255090     
          10  0.27974242810347760     
          11  0.58284124410639304     
          12 -0.13120729851201840     
          13  0.11863820367888700     
          14  -6.6434091600798897E-002
Sym=     8a
Ene=  -0.33931815547213340     
Spin= Alpha
Occup=     0.00051593
           1   7.1824217326192668E-005
           2   6.9651990070975346E-004
           3   2.4885456555177126E-003
           4   1.3562175253001549E-002
           5  -5.0702372831248844E-004
           6  -4.0179873794024025E-002
           7 -0.13295053876479052     
           8 -0.67711556893445057     
           9  -2.7115058805998559E-004
          10   4.3911803484978001E-002
          11  0.14076472488211139     
          12  0.71872894219809513     
          13   1.0024134403319530E-004
          14   2.5817924696302006E-004
Sym=     9a
Ene=  -0.18196911656382397     
Spin= Alpha
Occup=     0.00000000
           1 -0.14156295736653138     
           2 -0.17660061596128018     
           3 -0.77047188963216617     
           4  0.16182626067227654     
           5 -0.24596550136537423     
           6   6.6236806031994598E-003
           7  0.54849520301751642     
           8 -0.10790652918851058     
           9 -0.25507998184292074     
          10  0.25874928818144333     
          11  0.36148100897726027     
          12  -8.6936500086695970E-002
          13  0.24299823489889225     
          14  0.20422902414320343     
Sym=    10a
Ene=  -0.12995118210666520     
Spin= Alpha
Occup=     0.00000000
           1   8.4984279193478821E-004
           2  -5.1171547278596199E-002
           3 -0.16758281530725180     
           4 -0.85301590627425639     
           5  -1.8100019614285487E-004
           6   3.6287287469813474E-002
           7  0.11851589519548983     
           8  0.60372173498381287     
           9  -6.7989241802124433E-004
          10   3.5006932596232242E-002
          11  0.11311444415536517     
          12  0.57950109914039216     
          13   6.9665460732553210E-004
          14   1.0923988977874820E-004
Sym=    11a
Ene=   0.12616660174803546     
Spin= Alpha
Occup=     0.00000000
           1  0.62139812127646576     
           2   3.6484940996960605E-002
           3   3.8452287717820791E-002
           4  -8.7291246793173658E-003
           5 -0.76776392286033079     
           6 -0.19847593976147671     
           7 -0.35204405726512983     
           8   8.0958283871030240E-002
           9 -0.59677817384722431     
          10 -0.15748513859165325     
          11 -0.36478161615022942     
          12   8.0209412028892549E-002
          13  0.54307247964055227     
          14  0.74115949525027047     
Sym=    12a
Ene=   0.24168837865373305     
Spin= Alpha
Occup=     0.00000000
           1   5.1632024741784920E-003
           2 -0.12193189166212093     
           3   9.0289935060733059E-002
           4  -9.9380897265161933E-003
           5  0.48828089160226040     
           6  0.48690319537974069     
           7  0.12720594820569950     
           8  -5.4476582552501318E-002
           9 -0.60653010314385902     
          10  0.39644905810651382     
          11 -0.59592568909986299     
          12   9.2105900979101138E-002
          13  0.92188360117071788     
          14 -0.69671400008571982     
Sym=    13a
Ene=   0.58198919542949212     
Spin= Alpha
Occup=     0.00000000
           1  -1.0251257844114510     
           2  0.31077134904309361     
           3  0.35139175941781453     
           4  -8.8386534177642292E-002
           5  -1.1580024208284585E-002
           6 -0.81643843216890954     
           7   1.5443322135175096E-002
           8   4.5874610935032201E-002
           9  0.27389765251329989     
          10  0.85158671467014935     
          11 -0.32650952992545812     
          12   1.2427608890893860E-002
          13  0.43288089471944080     
          14  0.54976180381062290     
Sym=    14a
Ene=    1.0811808523045163     
Spin= Alpha
Occup=     0.00000000
           1  0.20841050587728474     
           2   1.3554001028348668     
           3 -0.39579161767569526     
           4  -3.2931579963620559E-003
           5 -0.67671449994937116     
           6  0.86769932457115406     
           7 -0.39070245159009809     
           8   2.5392435081258439E-002
           9  0.60800688545219139     
          10  0.65789171104416111     
          11   4.1835742399985908E-002
          12  -4.8280927230693209E-002
          13   7.1598070898145780E-002
          14 -0.26639836566592934     
