5
 energy: -7.056078726447 gnorm: 0.193571075148 xtb: 6.2.2 (9d81278992624c895f80dd42a50cac0aa55982e2)
C        -0.42814000000000    0.04450200000000   -0.31857000000000
C         0.85898100000000   -0.48406200000000    0.28029700000000
C        -1.59820800000000   -0.75225300000000    0.21825600000000
H        -0.55536500000000    1.11353100000000   -0.04857100000000
H         1.72273300000000    0.07828300000000   -0.13141300000000
5
 energy: -7.103392179323 gnorm: 0.107899196501 xtb: 6.2.2 (9d81278992624c895f80dd42a50cac0aa55982e2)
C        -0.43519099277912   -0.00749630405370   -0.12421921659966
C         0.89074746574185   -0.51208112559490    0.24605413642552
C        -1.61231644000118   -0.70739878136973    0.14057067993983
H        -0.55226818358208    1.10904791524956   -0.11010462269119
H         1.70902915062053    0.11792929576876   -0.15230197707449
5
 energy: -7.108054531071 gnorm: 0.195465284116 xtb: 6.2.2 (9d81278992624c895f80dd42a50cac0aa55982e2)
C        -0.44668733945358   -0.07385751326770   -0.04483355549155
C         0.85441262617616   -0.51063439678180    0.17950802635002
C        -1.54268289499478   -0.59828082981281    0.11216430056392
H        -0.54275998323453    1.02401179572268   -0.12382738826258
H         1.67771859150673    0.15876194413963   -0.12301238315981
5
 energy: -7.123901093006 gnorm: 0.036534902293 xtb: 6.2.2 (9d81278992624c895f80dd42a50cac0aa55982e2)
C        -0.40472619940085   -0.11420602364945    0.03849983844747
C         0.92214672752783   -0.51578436736192    0.18628851115607
C        -1.66841941053704   -0.56985780040125    0.07251773357687
H        -0.52959920134020    0.98814664063785   -0.13725520573867
H         1.68059908375026    0.21170255077477   -0.16005187744174
5
 energy: -7.125886936756 gnorm: 0.022465849452 xtb: 6.2.2 (9d81278992624c895f80dd42a50cac0aa55982e2)
C        -0.38577702660559   -0.11484367832581    0.04949280587507
C         0.92213149997767   -0.49657633949492    0.19298257148915
C        -1.65345990961929   -0.54038316094728    0.05842763588822
H        -0.56961324429073    0.96241351764569   -0.12891377022328
H         1.68671968053794    0.18939066112232   -0.17199024302916
5
 energy: -7.128924989884 gnorm: 0.025401071266 xtb: 6.2.2 (9d81278992624c895f80dd42a50cac0aa55982e2)
C        -0.35547003623961   -0.13833346174204    0.08215325548311
C         0.93874314211532   -0.54615618260660    0.10579012059430
C        -1.63648499540955   -0.44046737183451    0.07375595448268
H        -0.65047072919753    0.90521882724326   -0.14921337382532
H         1.70368361873137    0.21973918893989   -0.11248695673477
5
 energy: -7.138650713951 gnorm: 0.058127673915 xtb: 6.2.2 (9d81278992624c895f80dd42a50cac0aa55982e2)
C        -0.28101831114695   -0.16418726276365    0.17092916279746
C         0.98430826667850   -0.54675948173221    0.06130614996499
C        -1.60535131176466   -0.29128325361196    0.03222085275710
H        -0.86361058192820    0.83294200406630   -0.15476272661941
H         1.76567293816131    0.16928899404151   -0.10969443890014
5
 energy: -7.149723898587 gnorm: 0.187258581063 xtb: 6.2.2 (9d81278992624c895f80dd42a50cac0aa55982e2)
C        -0.17543151443366   -0.17834035000044    0.23527286440764
C         1.01151508119667   -0.55794031588546    0.03673793522310
C        -1.52067171526513   -0.11750397772820   -0.00782630889989
H        -1.14141975352936    0.76261382905504   -0.14695603732895
H         1.82600890203149    0.09117181455905   -0.11722945340191
5
 energy: -7.167266620277 gnorm: 0.107607244403 xtb: 6.2.2 (9d81278992624c895f80dd42a50cac0aa55982e2)
C        -0.17489421282375   -0.11541738253005    0.20186568482354
C         0.96516846172289   -0.54599912196905    0.09254947862974
C        -1.43885912273230   -0.22031540281742   -0.00339277793584
H        -1.19563247244487    0.89158299892788   -0.14520481210390
H         1.84421834627803   -0.00985009161137   -0.14581857341354
5
 energy: -7.187813607381 gnorm: 0.121809243779 xtb: 6.2.2 (9d81278992624c895f80dd42a50cac0aa55982e2)
C        -0.16776442204046   -0.09800930095530    0.31665657737594
C         1.02432050415607   -0.53703772445530    0.06192212664264
C        -1.43873906204554   -0.20573176118658   -0.04641626481999
H        -1.39419332953240    0.95547390290912   -0.18215652948424
H         1.97637730946233   -0.11469411631193   -0.15000690971435
5
 energy: -7.203516022728 gnorm: 0.117037669919 xtb: 6.2.2 (9d81278992624c895f80dd42a50cac0aa55982e2)
C        -0.07214649528569   -0.09580208285990    0.37119194116174
C         1.03237684873661   -0.52000546033793    0.10483680606893
C        -1.35011917948338   -0.13369376259493   -0.10151828135154
H        -1.65629595980388    0.99674109148503   -0.16726321442136
H         2.04618578583634   -0.24723878569227   -0.20724825145778
5
 energy: -7.212460289611 gnorm: 0.072775565778 xtb: 6.2.2 (9d81278992624c895f80dd42a50cac0aa55982e2)
C        -0.06902066729555   -0.14586742461902    0.29159448697773
C         1.05351516849152   -0.55753108830245    0.01746204689733
C        -1.36139105197991   -0.05421801004941   -0.03966383004799
H        -1.67253800297318    0.95091699248923   -0.15039464012045
H         2.04943555375713   -0.19329946951835   -0.11899906370662
5
 energy: -7.205304353223 gnorm: 0.176580743867 xtb: 6.2.2 (9d81278992624c895f80dd42a50cac0aa55982e2)
C        -0.08193738980065   -0.09344303311829    0.23076546415740
C         1.08638616049343   -0.57516041127847   -0.05266808640301
C        -1.28942186292093   -0.02472439836638    0.01197830665397
H        -1.86154371740997    0.98516130460420   -0.15283022345653
H         2.14651780963811   -0.29183246184106   -0.03724646095183
5
 energy: -7.217334438511 gnorm: 0.030533784991 xtb: 6.2.2 (9d81278992624c895f80dd42a50cac0aa55982e2)
C        -0.06036123342551   -0.12827475161009    0.24984398049979
C         1.10138877713400   -0.56340837581975   -0.00150031526851
C        -1.32967958206604   -0.01164059238300   -0.02159479992454
H        -1.81614356714625    0.96323372369898   -0.13771243030221
H         2.10479660550380   -0.25990900388614   -0.08903743500453
5
 energy: -7.218328822353 gnorm: 0.024556292489 xtb: 6.2.2 (9d81278992624c895f80dd42a50cac0aa55982e2)
C        -0.06307721740942   -0.13018664678429    0.20647954212815
C         1.09760289999082   -0.54795487980934    0.01461976075678
C        -1.33803193857255   -0.00438156442204   -0.01195684710355
H        -1.81661209220356    0.94479063704306   -0.11517155592733
H         2.12011934819471   -0.26226654602738   -0.09397189985405
5
 energy: -7.219262013216 gnorm: 0.019367827861 xtb: 6.2.2 (9d81278992624c895f80dd42a50cac0aa55982e2)
C        -0.05601118427495   -0.11820931257501    0.17408592063172
C         1.11139259412693   -0.54686864602197    0.03368704861959
C        -1.33196660316742    0.00389769357975   -0.00682636720419
H        -1.84675343516892    0.94041840148768   -0.10104207215004
H         2.12333962848436   -0.27923713647045   -0.09990552989708
5
 energy: -7.220661383108 gnorm: 0.024753950680 xtb: 6.2.2 (9d81278992624c895f80dd42a50cac0aa55982e2)
C        -0.03881128187336   -0.08616462289812    0.08424822565620
C         1.13854469013273   -0.55057108662451    0.05556056223812
C        -1.32839756339687    0.02420126313346    0.02324371358465
H        -1.92417980301250    0.92541314705274   -0.06957648880389
H         2.15284495815000   -0.31287770066357   -0.09347701267507
5
 energy: -7.221409868947 gnorm: 0.034252700866 xtb: 6.2.2 (9d81278992624c895f80dd42a50cac0aa55982e2)
C        -0.02396471675783   -0.05383416739268    0.00359949726912
C         1.14561845897695   -0.56450558656036    0.06232991469139
C        -1.32447667625712    0.02989031102343    0.06030027636073
H        -1.95349748915682    0.90859701368157   -0.04961268904792
H         2.15632142319482   -0.32014657075195   -0.07661799927331
5
 energy: -7.222282366775 gnorm: 0.012791090795 xtb: 6.2.2 (9d81278992624c895f80dd42a50cac0aa55982e2)
C        -0.02136152765733   -0.04143818977304   -0.00083392482273
C         1.12791284793670   -0.56992132533727    0.04980977813392
C        -1.31939449650082    0.01926398480576    0.07190506619764
H        -1.93256910303672    0.90244768380532   -0.05572430030930
H         2.14541327925818   -0.31035115350076   -0.06515761919953
5
 energy: -7.222479912801 gnorm: 0.005957514284 xtb: 6.2.2 (9d81278992624c895f80dd42a50cac0aa55982e2)
C        -0.02393351968879   -0.02807840981517   -0.01722367634556
C         1.12049352391932   -0.56204010077409    0.05106099580535
C        -1.31919710827447    0.01363190332015    0.07981339109673
H        -1.92485486644602    0.88975283162742   -0.05143404935894
H         2.14749297048996   -0.31326522435830   -0.06221766119758
5
 energy: -7.222576365132 gnorm: 0.009631437897 xtb: 6.2.2 (9d81278992624c895f80dd42a50cac0aa55982e2)
C        -0.01913953069981   -0.02041786781905   -0.02379031286187
C         1.11868228202948   -0.55963898836479    0.04538114288695
C        -1.31153544136844    0.01902756246363    0.08463340413085
H        -1.93950111939994    0.88281709529070   -0.05002927262251
H         2.15149480943871   -0.32178680157049   -0.05619596153342
5
 energy: -7.222647439695 gnorm: 0.006551509251 xtb: 6.2.2 (9d81278992624c895f80dd42a50cac0aa55982e2)
C        -0.01164162212350    0.00709276909236    0.03301290198308
C         1.12053956049187   -0.55752835190907    0.03776628264623
C        -1.31142014299003    0.01767031085875    0.06103938563597
H        -1.95005928922489    0.87149125087299   -0.05836715575346
H         2.15258249384655   -0.33872497891503   -0.07345241451182
5
 energy: -7.222732412554 gnorm: 0.002413437006 xtb: 6.2.2 (9d81278992624c895f80dd42a50cac0aa55982e2)
C        -0.01383371242283    0.00035166588079    0.00374394743112
C         1.12024099135868   -0.55640336084234    0.03445395491810
C        -1.30775707715637    0.02346036925886    0.07703514548781
H        -1.95087948975385    0.86996316862800   -0.05564166642392
H         2.15223028797437   -0.33737084292531   -0.05959238141311
5
 energy: -7.222431363507 gnorm: 0.007227602425 xtb: 6.2.2 (9d81278992624c895f80dd42a50cac0aa55982e2)
C        -0.01575850134362   -0.00693699982004   -0.03384895340086
C         1.12275858677515   -0.54428341051961    0.07483242856518
C        -1.30561963422536    0.02460289594838    0.06158811214213
H        -1.95394167429987    0.87081526490370   -0.03292956740527
H         2.15256222309371   -0.34419675051242   -0.06964301990118
5
 energy: -7.222772140270 gnorm: 0.001173990166 xtb: 6.2.2 (9d81278992624c895f80dd42a50cac0aa55982e2)
C        -0.01250637585529    0.00366518420514   -0.00414863930117
C         1.12153954256492   -0.55214119422293    0.04155543686226
C        -1.30510110862221    0.02725788694565    0.07352826314029
H        -1.95851471376236    0.86591909206331   -0.05040089138519
H         2.15458365567494   -0.34469996899116   -0.06053516931619
5
 energy: -7.222783349726 gnorm: 0.000855884224 xtb: 6.2.2 (9d81278992624c895f80dd42a50cac0aa55982e2)
C        -0.01090502642416    0.00845641209647   -0.00126097404985
C         1.12221507385554   -0.55121357921400    0.03937030321044
C        -1.30339244961082    0.03024174363533    0.07274299369364
H        -1.96518448502702    0.86235979601864   -0.05079488599351
H         2.15726788720646   -0.34984337253644   -0.06005843686072
5
 energy: -7.222786184638 gnorm: 0.000587478743 xtb: 6.2.2 (9d81278992624c895f80dd42a50cac0aa55982e2)
C        -0.00984227165771    0.01044191108222   -0.00236912141568
C         1.12262479177683   -0.55027028042890    0.04067604018685
C        -1.30160160142744    0.03284035700963    0.07136816693058
H        -1.96961635807410    0.85996975599230   -0.04944633010723
H         2.15843643938242   -0.35298074365525   -0.06022975559453
