$hessian                                                                        
        0.5344082574  -0.0290949946  -0.0086422181  -0.0570362997   0.1124726242
        0.0078575556  -0.4681620649  -0.1210877108  -0.0010673285  -0.0092098929
        0.0377100813   0.0018519909
       -0.0290949946   0.1646211536   0.0097822809   0.0577702918  -0.1381318541
       -0.0093773590  -0.0562890110   0.0298291429   0.0026307268   0.0276137139
       -0.0563184424  -0.0030356487
       -0.0086422181   0.0097822809   0.0017662856   0.0044369368  -0.0091766574
       -0.0051158124   0.0027204120   0.0034683220   0.0012633456   0.0014848693
       -0.0040739455   0.0020861812
       -0.0570362997   0.0577702918   0.0044369368   0.1071041451  -0.1399871044
       -0.0075775900  -0.0123951217  -0.0130995165  -0.0010592281  -0.0376727237
        0.0953163291   0.0041998814
        0.1124726242  -0.1381318541  -0.0091766574  -0.1399871044   0.8943345419
        0.0429538465  -0.0677234272  -0.1824262023  -0.0095800237   0.0952379074
       -0.5737764854  -0.0241971654
        0.0078575556  -0.0093773590  -0.0051158124  -0.0075775900   0.0429538465
        0.0205455001  -0.0041606683  -0.0112249403  -0.0050669703   0.0038807027
       -0.0223515472  -0.0103627174
       -0.4681620649  -0.0562890110   0.0027204120  -0.0123951217  -0.0677234272
       -0.0041606683   0.4745078160   0.1395534586   0.0021711259   0.0060493706
       -0.0155410204  -0.0007308696
       -0.1210877108   0.0298291429   0.0034683220  -0.0130995165  -0.1824262023
       -0.0112249403   0.1395534586   0.2245411481   0.0111452732  -0.0053662313
       -0.0719440887  -0.0033886548
       -0.0010673285   0.0026307268   0.0012633456  -0.0010592281  -0.0095800237
       -0.0050669703   0.0021711259   0.0111452732   0.0017062865  -0.0000445693
       -0.0041959763   0.0020973383
       -0.0092098929   0.0276137139   0.0014848693  -0.0376727237   0.0952379074
        0.0038807027   0.0060493706  -0.0053662313  -0.0000445693   0.0408332460
       -0.1174853900  -0.0053210027
        0.0377100813  -0.0563184424  -0.0040739455   0.0953163291  -0.5737764854
       -0.0223515472  -0.0155410204  -0.0719440887  -0.0041959763  -0.1174853900
        0.7020390165   0.0306214690
        0.0018519909  -0.0030356487   0.0020861812   0.0041998814  -0.0241971654
       -0.0103627174  -0.0007308696  -0.0033886548   0.0020973383  -0.0053210027
        0.0306214690   0.0061791978
