 Entering Gaussian System
 *********************************************
 Gaussian 98:
 frequency output generated by the xtb code
 *********************************************
                         Standard orientation:
 --------------------------------------------------------------------
  Center     Atomic     Atomic              Coordinates (Angstroms)
  Number     Number      Type              X           Y           Z
 --------------------------------------------------------------------
    1          6             0        0.833214   -0.820106   -0.054618
    2          6             0       -0.057505    0.333501    0.026154
    3          6             0       -0.510282   -1.052058   -0.050860
    4          7             0       -0.265427    1.538664    0.079324
 --------------------------------------------------------------------
     1 basis functions        1 primitive gaussians
     1 alpha electrons        1 beta electrons

 Harmonic frequencies (cm**-1), IR intensities (KM/Mole),
 Raman scattering activities (A**4/amu), Raman depolarization ratios,
 reduced masses (AMU), force constants (mDyne/A) and normal coordinates:
                      1                      2                      3
                        a                      a                      a 
 Frequencies --   232.9027               384.6106               670.3148
 Red. masses --    12.3464                12.5219                12.0149
 Frc consts  --     0.0000                 0.0000                 0.0000
 IR Inten    --     0.8121                 0.4061                 0.6782
 Raman Activ --     0.0000                 0.0000                 0.0000
 Depolar     --     0.0000                 0.0000                 0.0000
 Atom AN      X      Y      Z        X      Y      Z        X      Y      Z
   1   6    -0.00   0.02  -0.21    -0.02  -0.34  -0.01    -0.36   0.50   0.03
   2   6     0.01  -0.04   0.86     0.70   0.12  -0.00     0.48   0.08  -0.00
   3   6    -0.00   0.02  -0.21    -0.14   0.31   0.01    -0.17  -0.59  -0.03
   4   7    -0.00   0.01  -0.41    -0.50  -0.09   0.00     0.05   0.01  -0.00
                      4                      5                      6
                        a                      a                      a 
 Frequencies --   912.5776              1489.8826              1743.8678
 Red. masses --    12.6854                12.1999                12.5839
 Frc consts  --     0.0000                 0.0000                 0.0000
 IR Inten    --     0.1764                 0.1457                 0.7948
 Raman Activ --     0.0000                 0.0000                 0.0000
 Depolar     --     0.0000                 0.0000                 0.0000
 Atom AN      X      Y      Z        X      Y      Z        X      Y      Z
   1   6    -0.09  -0.51  -0.03     0.67   0.01  -0.01    -0.20   0.07   0.01
   2   6    -0.06   0.34   0.03     0.02  -0.13  -0.00     0.13  -0.77  -0.04
   3   6     0.25  -0.45  -0.03    -0.63  -0.21  -0.00     0.17   0.13   0.01
   4   7    -0.10   0.57   0.03    -0.05   0.30   0.01    -0.09   0.53   0.02
