4
 energy: -8.859832248890 gnorm: 0.354742236159 xtb: 6.2.2 (9d81278992624c895f80dd42a50cac0aa55982e2)
C        -1.57648200000000   -0.46096500000000   -0.21694900000000
N        -0.62366100000000    0.41860800000000    0.43724200000000
C         0.55990600000000    0.46489800000000   -0.40337700000000
C         1.64023700000000   -0.42254100000000    0.18308500000000
4
 energy: -8.978093776829 gnorm: 0.246733632673 xtb: 6.2.2 (9d81278992624c895f80dd42a50cac0aa55982e2)
C        -1.53561802389356   -0.39739315487809   -0.17840497070280
N        -0.64077050525155    0.36856218653405    0.34984336118991
C         0.57458334646914    0.38320304347532   -0.30786971701266
C         1.60180518267596   -0.35437207513128    0.13643232652555
4
 energy: -8.951984686485 gnorm: 0.783176104786 xtb: 6.2.2 (9d81278992624c895f80dd42a50cac0aa55982e2)
C        -1.54276367616386   -0.31151048053708   -0.08792136466809
N        -0.66797189490994    0.25419110822494    0.18003759953487
C         0.67278228359483    0.30741545219205   -0.16438827079418
C         1.53795328747897   -0.25009607987991    0.07227303592740
4
 energy: -9.042245994754 gnorm: 0.081588851889 xtb: 6.2.2 (9d81278992624c895f80dd42a50cac0aa55982e2)
C        -1.64385984838266   -0.32256789932550   -0.10379482067083
N        -0.66408896803870    0.27215610102039    0.17304816496573
C         0.62591945128657    0.33456913334413   -0.16626569086401
C         1.68202936513479   -0.28415733503902    0.09701334656911
4
 energy: -9.042617694769 gnorm: 0.189376246557 xtb: 6.2.2 (9d81278992624c895f80dd42a50cac0aa55982e2)
C        -1.84446294661041   -0.20103422380813   -0.09675943545405
N        -0.63132057536903    0.12458534025366    0.11854951858924
C         0.65607072875300    0.22452598294502   -0.13863089972258
C         1.81971279322645   -0.14807709939056    0.11684181658738
4
 energy: -9.055608719520 gnorm: 0.078742353395 xtb: 6.2.2 (9d81278992624c895f80dd42a50cac0aa55982e2)
C        -1.77811089748540   -0.23463136108287   -0.07285225311860
N        -0.69072257127230    0.18758689211566    0.06986379517834
C         0.65568050686108    0.24147005034024   -0.06945906017999
C         1.81315296189662   -0.19442558137304    0.07244851812025
4
 energy: -9.058200212835 gnorm: 0.029734590171 xtb: 6.2.2 (9d81278992624c895f80dd42a50cac0aa55982e2)
C        -1.73148499255808   -0.23862532085293   -0.06622667302156
N        -0.64255581838864    0.16733787742539    0.07172000389668
C         0.63975783293362    0.27303046072739   -0.09578701887689
C         1.73428297801311   -0.20174301729985    0.09029468800178
4
 energy: -9.061812074180 gnorm: 0.038482055561 xtb: 6.2.2 (9d81278992624c895f80dd42a50cac0aa55982e2)
C        -1.77605285984987   -0.18983736085698   -0.06132319405098
N        -0.65000153783438    0.12454361813350    0.04621875671657
C         0.63707594425909    0.22385588040791   -0.07315506421214
C         1.78897845342517   -0.15856213768443    0.08826050154656
4
 energy: -9.061869185626 gnorm: 0.069962539713 xtb: 6.2.2 (9d81278992624c895f80dd42a50cac0aa55982e2)
C        -1.83447803965922   -0.15368788725167   -0.02612918033705
N        -0.66219725721831    0.07367865184395   -0.03220321191414
C         0.66764077014968    0.20512038767313   -0.01578120070892
C         1.82903452672787   -0.12511115226541    0.07411459296012
4
 energy: -9.064150572024 gnorm: 0.060724115190 xtb: 6.2.2 (9d81278992624c895f80dd42a50cac0aa55982e2)
C        -1.81857371106647   -0.11523301611300   -0.03855458973636
N        -0.65677940918916    0.04937529778821   -0.01301781371735
C         0.63820890466123    0.16207309545709   -0.03035091742051
C         1.83714421559440   -0.09621537713229    0.08192432087422
4
 energy: -9.064334615769 gnorm: 0.033557506181 xtb: 6.2.2 (9d81278992624c895f80dd42a50cac0aa55982e2)
C        -1.79062271904174   -0.13694931005671   -0.03356400621853
N        -0.65440526715180    0.06529066518862   -0.01258688605480
C         0.64168858321802    0.18966966185150   -0.03443322138538
C         1.80333940297552   -0.11801101698342    0.08058511365871
4
 energy: -9.065273563471 gnorm: 0.015284821310 xtb: 6.2.2 (9d81278992624c895f80dd42a50cac0aa55982e2)
C        -1.81166638766927   -0.10852646701261   -0.02717626590082
N        -0.65067616314318    0.03312649811670   -0.02978650171575
C         0.64271070807818    0.16795012104132   -0.02552476053862
C         1.81963184273428   -0.09255015214540    0.08248852815520
4
 energy: -9.065530246794 gnorm: 0.022895639326 xtb: 6.2.2 (9d81278992624c895f80dd42a50cac0aa55982e2)
C        -1.82113297137343   -0.08332317455309   -0.02222244523259
N        -0.65401180580481    0.00950624032739   -0.04281036036944
C         0.64233415187041    0.14497396261673   -0.01590768561252
C         1.83281062530783   -0.07115702839102    0.08094149121455
4
 energy: -9.065738439756 gnorm: 0.015168946296 xtb: 6.2.2 (9d81278992624c895f80dd42a50cac0aa55982e2)
C        -1.82029003960823   -0.07022614387376   -0.02052621622714
N        -0.65438811758694   -0.00267285005755   -0.04631548293988
C         0.64130425794606    0.13266814343556   -0.01377149041354
C         1.83337389924912   -0.05976914950426    0.08061418958056
4
 energy: -9.065921745741 gnorm: 0.007308439125 xtb: 6.2.2 (9d81278992624c895f80dd42a50cac0aa55982e2)
C        -1.81853405050002   -0.05250428989899   -0.02095934170618
N        -0.65547808051021   -0.01750291828483   -0.04568894700813
C         0.64011598796241    0.11286527549804   -0.01353320105830
C         1.83389614304783   -0.04285806731422    0.08018248977261
4
 energy: -9.065993673920 gnorm: 0.006513302897 xtb: 6.2.2 (9d81278992624c895f80dd42a50cac0aa55982e2)
C        -1.82001480757758   -0.03759701536085   -0.02262969105340
N        -0.65608336790041   -0.02981539190300   -0.04317918563556
C         0.63973901213413    0.09500820621028   -0.01442958968153
C         1.83635916334387   -0.02759579894644    0.08023946637050
4
 energy: -9.066060679285 gnorm: 0.007816954556 xtb: 6.2.2 (9d81278992624c895f80dd42a50cac0aa55982e2)
C        -1.82020166754806   -0.02840257698646   -0.02783683751082
N        -0.65832356910365   -0.03432225995326   -0.03366395642370
C         0.64081797867626    0.07792715517800   -0.01782132433037
C         1.83770725797546   -0.01520231823828    0.07932311826489
4
 energy: -9.066110027524 gnorm: 0.004403656658 xtb: 6.2.2 (9d81278992624c895f80dd42a50cac0aa55982e2)
C        -1.82170750190588   -0.02129539280361   -0.03426661121848
N        -0.65886423407530   -0.03701665177587   -0.02237411779748
C         0.64137325929262    0.06232282262337   -0.02246396441803
C         1.83919847668857   -0.00401077804389    0.07910569343400
4
 energy: -9.066145745579 gnorm: 0.004186767964 xtb: 6.2.2 (9d81278992624c895f80dd42a50cac0aa55982e2)
C        -1.82246376740375   -0.02326672637526   -0.04158272304554
N        -0.65961771055646   -0.03047291281227   -0.00980828944061
C         0.64254052280667    0.05408064562445   -0.02648157814977
C         1.83954095515354   -0.00034100643691    0.07787359063592
4
 energy: -9.066162034436 gnorm: 0.002478075322 xtb: 6.2.2 (9d81278992624c895f80dd42a50cac0aa55982e2)
C        -1.82331137156948   -0.02600871670006   -0.04507470956581
N        -0.66021400302156   -0.02477536139973   -0.00519094745337
C         0.64261254199445    0.05068041639851   -0.02589447472184
C         1.84091283259660    0.00010366170128    0.07616113174103
4
 energy: -9.066175835771 gnorm: 0.001589786807 xtb: 6.2.2 (9d81278992624c895f80dd42a50cac0aa55982e2)
C        -1.82358217750205   -0.03237196615492   -0.04620463154355
N        -0.66000031553271   -0.01694815255783   -0.00543678867935
C         0.64269923168058    0.05297758523596   -0.02211841034038
C         1.84088326135418   -0.00365746652322    0.07376083056328
4
 energy: -9.066165547430 gnorm: 0.001545543861 xtb: 6.2.2 (9d81278992624c895f80dd42a50cac0aa55982e2)
C        -1.82308667435617   -0.02448650777859   -0.03961799534212
N        -0.65933078874833   -0.02821352746148   -0.01552694995955
C         0.64220764514411    0.05241704448027   -0.02114764697363
C         1.84020981796039    0.00028299075981    0.07629359227531
4
 energy: -9.066179744366 gnorm: 0.001632565834 xtb: 6.2.2 (9d81278992624c895f80dd42a50cac0aa55982e2)
C        -1.82254587436435   -0.03070773893108   -0.04461288505064
N        -0.65963345228209   -0.01897179620786   -0.00813668486265
C         0.64207647670909    0.05216994350484   -0.02127305437229
C         1.84010284993736   -0.00249040836590    0.07402362428559
4
 energy: -9.066181984984 gnorm: 0.001363717092 xtb: 6.2.2 (9d81278992624c895f80dd42a50cac0aa55982e2)
C        -1.82335771468890   -0.03134767718470   -0.04504737240180
N        -0.65974748489359   -0.01778808774212   -0.00776818978596
C         0.64238607041930    0.05162107417571   -0.02077742074619
C         1.84071912916320   -0.00248530924889    0.07359398293395
4
 energy: -9.066186210471 gnorm: 0.001523460225 xtb: 6.2.2 (9d81278992624c895f80dd42a50cac0aa55982e2)
C        -1.82355829864416   -0.03156425375395   -0.04499415678027
N        -0.65986186968026   -0.01680036883375   -0.00848915260076
C         0.64245947431119    0.05021230076925   -0.01945712855588
C         1.84096069401323   -0.00184767818155    0.07294143793691
4
 energy: -9.066211296654 gnorm: 0.001227297152 xtb: 6.2.2 (9d81278992624c895f80dd42a50cac0aa55982e2)
C        -1.82451320676580   -0.03175203278197   -0.04351110079027
N        -0.66104021209901   -0.00964604416980   -0.01719884995037
C         0.64278748075598    0.03580242697702   -0.00596095239076
C         1.84276593810884    0.00559564997476    0.06667190313140
4
 energy: -9.066215317436 gnorm: 0.000724029517 xtb: 6.2.2 (9d81278992624c895f80dd42a50cac0aa55982e2)
C        -1.82430753615268   -0.03116915394881   -0.04339910154810
N        -0.66103685271599   -0.00794724221245   -0.01968841535958
C         0.64270150194642    0.03048302252387   -0.00109325962302
C         1.84264288692226    0.00863337363738    0.06418177653071
