      -----------------------------------------------------------      
     |                   =====================                   |     
     |                           x T B                           |     
     |                   =====================                   |     
     |                         S. Grimme                         |     
     |          Mulliken Center for Theoretical Chemistry        |     
     |                    University of Bonn                     |     
      -----------------------------------------------------------      

   * xtb version 6.2.2 (9d81278992624c895f80dd42a50cac0aa55982e2) compiled by '@Darwin' on 04/03/2020

   xtb is free software: you can redistribute it and/or modify it under
   the terms of the GNU Lesser General Public License as published by
   the Free Software Foundation, either version 3 of the License, or
   (at your option) any later version.
   
   xtb is distributed in the hope that it will be useful,
   but WITHOUT ANY WARRANTY; without even the implied warranty of
   MERCHANTABILITY or FITNESS FOR A PARTICULAR PURPOSE.  See the
   GNU Lesser General Public License for more details.
   
   Cite this work as:
   * S. Grimme, C. Bannwarth, P. Shushkov, J. Chem. Theory Comput., 2017,
     13, 1989-2009. DOI: 10.1021/acs.jctc.7b00118
   * C. Bannwarth, S. Ehlert and S. Grimme., J. Chem. Theory Comput., 2019,
     15, 1652-1671. DOI: 10.1021/acs.jctc.8b01176
   * P. Pracht, E. Caldeweyher, S. Ehlert, S. Grimme, ChemRxiv, 2019, preprint.
     DOI: 10.26434/chemrxiv.8326202.v1
   
   for DFT-D4:
   * E. Caldeweyher, C. Bannwarth and S. Grimme, J. Chem. Phys., 2017,
     147, 034112. DOI: 10.1063/1.4993215
   * E. Caldeweyher, S. Ehlert, A. Hansen, H. Neugebauer, S. Spicher,
     C. Bannwarth and S. Grimme, J. Chem. Phys., 2019, 150, 154122.
     DOI: 10.1063/1.5090222
   
   for sTDA-xTB:
   * S. Grimme and C. Bannwarth, J. Chem. Phys., 2016, 145, 054103.
     DOI: 10.1063/1.4959605
   
   in the mass-spec context:
   * V. Asgeirsson, C. Bauer and S. Grimme, Chem. Sci., 2017, 8, 4879.
     DOI: 10.1039/c7sc00601b
   
   for metadynamics refer to:
   * S. Grimme, J. Chem. Theory Comput., 2019, 155, 2847-2862
     DOI: 10.1021/acs.jctc.9b00143
   
   with help from (in alphabetical order)
   C. Bannwarth, F. Bohle, G. Brandenburg, E. Caldeweyher, M. Checinski,
   S. Dohm, S. Ehlert, S. Ehrlich, F. März, H. Neugebauer, J. Pisarek,
   P. Pracht, P. Shushkov, and S. Spicher.
   
 * started run on 2020/05/12 at 11:45:04.606     

           -------------------------------------------------
          |                Calculation Setup                |
           -------------------------------------------------

          program call               : xtb --input C3N1_3_S_1.input C3N1_3_S_1.xyz --ohess --molden --namespace C3N1_3_S_1 output.out
          calculation namespace      : C3N1_3_S_1
          coordinate file            : C3N1_3_S_1.xyz
          number of atoms            :                     4
          number of electrons        :                    17
          charge                     :                     0
          spin                       :                   0.5
          first test random number   :      0.56385483020208

   ID    Z sym.   atoms
    1    6 C      1, 3, 4
    2    7 N      2

           -------------------------------------------------
          |                 G F N 2 - x T B                 |
           -------------------------------------------------

        Reference                      10.1021/acs.jctc.8b01176
      * Hamiltonian:
        H0-scaling (s, p, d)           1.850000    2.230000    2.230000
        zeta-weighting                 0.500000
      * Dispersion:
        s8                             2.700000
        a1                             0.520000
        a2                             5.000000
        s9                             5.000000
      * Repulsion:
        kExp                           1.500000    1.000000
        rExp                           1.000000
      * Coulomb:
        alpha                          2.000000
        third order                    shell-resolved
        anisotropic                    true
        a3                             3.000000
        a5                             4.000000
        cn-shift                       1.200000
        cn-exp                         4.000000
        max-rad                        5.000000


          ...................................................
          :                      SETUP                      :
          :.................................................:
          :  # basis functions                  16          :
          :  # atomic orbitals                  16          :
          :  # shells                            8          :
          :  # electrons                        17          :
          :  max. iterations                   250          :
          :  Hamiltonian                  GFN2-xTB          :
          :  restarted?                      false          :
          :  GBSA solvation                  false          :
          :  PC potential                    false          :
          :  electronic temp.          300.0000000     K    :
          :  accuracy                    1.0000000          :
          :  -> integral cutoff          0.2500000E+02      :
          :  -> integral neglect         0.1000000E-07      :
          :  -> SCF convergence          0.1000000E-05 Eh   :
          :  -> wf. convergence          0.1000000E-03 e    :
          :  Broyden damping             0.4000000          :
          ...................................................

 iter      E             dE          RMSdq      gap      omega  full diag
   1     -8.8361165 -0.883612E+01  0.117E+01    1.14       0.0  T
   2     -8.8165729  0.195436E-01  0.753E+00    0.40       1.0  T
   3     -8.6017366  0.214836E+00  0.793E+00    1.31       1.0  T
   4     -8.4654613  0.136275E+00  0.827E+00    0.81       1.0  T
   5     -8.8916903 -0.426229E+00  0.120E+00    0.75       1.0  T
   6     -8.8776905  0.139998E-01  0.203E+00    0.94       1.0  T
   7     -8.8964704 -0.187799E-01  0.646E-01    0.82       1.0  T
   8     -8.8959915  0.478864E-03  0.463E-01    0.79       1.0  T
   9     -8.8965065 -0.515019E-03  0.297E-01    0.81       1.0  T
  10     -8.8968392 -0.332642E-03  0.203E-02    0.82       2.5  T
  11     -8.8968408 -0.167250E-05  0.105E-02    0.81       4.8  T
  12     -8.8968408  0.919091E-07  0.877E-03    0.81       5.7  T
  13     -8.8968409 -0.197880E-06  0.365E-03    0.81      13.7  T
  14     -8.8968410 -0.689241E-07  0.111E-03    0.81      45.0  T
  15     -8.8968410 -0.298834E-08  0.361E-04    0.81     138.6  T
  16     -8.8968410 -0.624652E-09  0.102E-04    0.81     489.2  T

   *** convergence criteria satisfied after 16 iterations ***

         #    Occupation            Energy/Eh            Energy/eV
      -------------------------------------------------------------
         1        2.0000           -0.7141885             -19.4341
       ...           ...                  ...                  ...
         3        2.0000           -0.6337030             -17.2439
         4        2.0000           -0.5716703             -15.5559
         5        2.0000           -0.5422059             -14.7542
         6        2.0000           -0.5228758             -14.2282
         7        2.0000           -0.5120254             -13.9329
         8        1.8919           -0.4462534             -12.1432
         9        1.1081           -0.4422441             -12.0341 (HOMO)
        10        0.0000           -0.4123355             -11.2202 (LUMO)
        11                         -0.3755521             -10.2193
        12                         -0.3619867              -9.8502
        13                         -0.3204331              -8.7194
        14                          0.0001412               0.0038
       ...                                ...                  ...
        16                          0.0733709               1.9965
      -------------------------------------------------------------
                  HL-Gap            0.0299087 Eh            0.8139 eV
             Fermi-level           -0.4357658 Eh          -11.8578 eV

 SCC (total)                   0 d,  0 h,  0 min,  0.003 sec
 SCC setup                      ...        0 min,  0.000 sec (  2.468%)
 Dispersion                     ...        0 min,  0.000 sec (  0.377%)
 integral evaluation            ...        0 min,  0.001 sec ( 27.048%)
 zeroth order Hamiltonian       ...        0 min,  0.000 sec (  0.502%)
 iterations                     ...        0 min,  0.001 sec ( 41.029%)
 molecular gradient             ...        0 min,  0.001 sec ( 26.023%)
 printout                       ...        0 min,  0.000 sec (  2.252%)

         :::::::::::::::::::::::::::::::::::::::::::::::::::::
         ::                     SUMMARY                     ::
         :::::::::::::::::::::::::::::::::::::::::::::::::::::
         :: total energy              -8.859832248966 Eh    ::
         :: gradient norm              0.354742173249 Eh/a0 ::
         :: HOMO-LUMO gap              0.813856266082 eV    ::
         ::.................................................::
         :: SCC energy                -8.896841020705 Eh    ::
         :: -> isotropic ES           -0.029522798752 Eh    ::
         :: -> anisotropic ES         -0.000421322801 Eh    ::
         :: -> anisotropic XC          0.012609143553 Eh    ::
         :: -> dispersion             -0.001882753754 Eh    ::
         :: repulsion energy           0.037008756821 Eh    ::
         :: add. restraining           0.000000000000 Eh    ::
         :::::::::::::::::::::::::::::::::::::::::::::::::::::

      ----------------------------------------------------------- 
     |                   =====================                   |
     |                        A N C O P T                        |
     |                   =====================                   |
     |               Approximate Normal Coordinate               |
     |                Rational Function Optimizer                |
      ----------------------------------------------------------- 

          ...................................................
          :                      SETUP                      :
          :.................................................:
          :   optimization level            normal          :
          :   max. optcycles                   200          :
          :   ANC micro-cycles                  20          :
          :   degrees of freedom                 6          :
          :.................................................:
          :   RF solver                   davidson          :
          :   write xtbopt.log                true          :
          :   linear?                        false          :
          :   energy convergence         0.5000000E-05 Eh   :
          :   grad. convergence          0.1000000E-02 Eh/α :
          :   maximium RF displ.         1.0000000          :
          :   Hlow (freq-cutoff)         0.1000000E-01      :
          :   Hmax (freq-cutoff)         5.0000000          :
          :   S6 in model hess.         20.0000000          :
          ...................................................

generating ANC from model Hessian ...
Using Lindh-Hessian (1995)
 Shifting diagonal of input Hessian by    1.1047183113481532E-003
 Lowest  eigenvalues of input Hessian
   -0.000000   -0.000000   -0.000000   -0.000000    0.000000    0.000000
    0.010000    0.085810    0.117065    0.748079    0.935469    1.159018
 Highest eigenvalues
    0.010000    0.085810    0.117065    0.748079    0.935469    1.159018


........................................................................
.............................. CYCLE    1 ..............................
........................................................................
   1     -8.8968410 -0.889684E+01  0.950E-06    0.81       0.0  T
   2     -8.8968410  0.237144E-11  0.227E-05    0.81    2206.2  T
   3     -8.8968410 -0.229505E-11  0.691E-06    0.81    7236.8  T
     SCC iter.                  ...        0 min,  0.000 sec
     gradient                   ...        0 min,  0.001 sec
 * total energy  :    -8.8598322 Eh     change        0.7593925E-10 Eh
   gradient norm :     0.3547422 Eh/α   predicted     0.0000000E+00 (-100.00%)
   displ. norm   :     0.3870219 α      lambda       -0.1342150E+00
   maximum displ.:     0.3433089 α      in ANC's #4, #5, #6, ...

........................................................................
.............................. CYCLE    2 ..............................
........................................................................
   1     -9.0531806 -0.905318E+01  0.321E+00    1.61       0.0  T
   2     -8.9693420  0.838386E-01  0.481E+00    1.63       1.0  T
   3     -9.0743415 -0.104999E+00  0.174E+00    1.63       1.0  T
   4     -9.0504280  0.239135E-01  0.217E+00    1.30       1.0  T
   5     -9.0735561 -0.231281E-01  0.915E-01    1.72       1.0  T
   6     -9.0794088 -0.585271E-02  0.233E-01    1.56       1.0  T
   7     -9.0795608 -0.152010E-03  0.675E-02    1.55       1.0  T
   8     -9.0795664 -0.560605E-05  0.205E-02    1.55       2.4  T
   9     -9.0795668 -0.403071E-06  0.394E-03    1.55      12.7  T
  10     -9.0795669 -0.653832E-07  0.131E-03    1.55      38.1  T
  11     -9.0795669 -0.669530E-08  0.105E-04    1.55     477.5  T
  12     -9.0795669 -0.197158E-10  0.635E-05    1.55     787.4  T
     SCC iter.                  ...        0 min,  0.001 sec
     gradient                   ...        0 min,  0.001 sec
 * total energy  :    -8.9780938 Eh     change       -0.1182615E+00 Eh
   gradient norm :     0.2467051 Eh/α   predicted    -0.7715929E-01 ( -34.76%)
   displ. norm   :     0.6361097 α      lambda       -0.1492571E+00
   maximum displ.:     0.5258725 α      in ANC's #4, #6, #3, ...

........................................................................
.............................. CYCLE    3 ..............................
........................................................................
   1     -9.3828682 -0.938287E+01  0.489E+00    3.68       0.0  T
   2     -9.3776694  0.519884E-02  0.344E+00    3.78       1.0  T
   3     -9.3768358  0.833646E-03  0.255E+00    3.21       1.0  T
   4     -9.3722799  0.455582E-02  0.213E+00    3.84       1.0  T
   5     -9.4000617 -0.277817E-01  0.329E-01    3.53       1.0  T
   6     -9.4002539 -0.192196E-03  0.159E-01    3.57       1.0  T
   7     -9.4002510  0.289313E-05  0.565E-02    3.56       1.0  T
   8     -9.4002601 -0.914031E-05  0.973E-03    3.56       5.1  T
   9     -9.4002602 -0.977892E-07  0.145E-03    3.56      34.5  T
  10     -9.4002602 -0.275590E-08  0.445E-04    3.56     112.4  T
  11     -9.4002602 -0.615135E-09  0.110E-04    3.56     456.2  T
     SCC iter.                  ...        0 min,  0.001 sec
     gradient                   ...        0 min,  0.001 sec
 * total energy  :    -8.9519847 Eh     change        0.2610909E-01 Eh
   gradient norm :     0.7784038 Eh/α   predicted    -0.1048259E+00 (-501.49%)
   displ. norm   :     0.3607767 α      lambda       -0.2392743E+00
   maximum displ.:     0.2002300 α      in ANC's #4, #2, #6, ...

........................................................................
.............................. CYCLE    4 ..............................
........................................................................
   1     -9.2260150 -0.922601E+01  0.218E+00    2.90       0.0  T
   2     -9.2211037  0.491127E-02  0.171E+00    3.05       1.0  T
   3     -9.2173197  0.378406E-02  0.162E+00    2.87       1.0  T
   4     -9.2227784 -0.545875E-02  0.105E+00    3.14       1.0  T
   5     -9.2288707 -0.609225E-02  0.387E-01    2.97       1.0  T
   6     -9.2297620 -0.891349E-03  0.954E-02    3.04       1.0  T
   7     -9.2297679 -0.589527E-05  0.384E-02    3.04       1.3  T
   8     -9.2297697 -0.182360E-05  0.874E-03    3.04       5.7  T
   9     -9.2297698 -0.662426E-07  0.193E-03    3.04      26.0  T
  10     -9.2297698 -0.165477E-07  0.415E-04    3.04     120.6  T
  11     -9.2297698 -0.566800E-09  0.104E-04    3.04     482.3  T
     SCC iter.                  ...        0 min,  0.001 sec
     gradient                   ...        0 min,  0.001 sec
 * total energy  :    -9.0422460 Eh     change       -0.9026131E-01 Eh
   gradient norm :     0.0813798 Eh/α   predicted    -0.1352091E+00 (  49.80%)
   displ. norm   :     0.6879551 α      lambda       -0.2585687E-01
   maximum displ.:     0.6228582 α      in ANC's #1, #3, #4, ...

........................................................................
.............................. CYCLE    5 ..............................
........................................................................
   1     -9.1910820 -0.919108E+01  0.277E+00    2.86       0.0  T
   2     -9.1723555  0.187265E-01  0.229E+00    2.59       1.0  T
   3     -9.1491263  0.232292E-01  0.273E+00    3.18       1.0  T
   4     -9.1769660 -0.278397E-01  0.170E+00    2.62       1.0  T
   5     -9.1958563 -0.188903E-01  0.301E-01    2.77       1.0  T
   6     -9.1963747 -0.518357E-03  0.229E-01    2.85       1.0  T
   7     -9.1964312 -0.565469E-04  0.156E-01    2.84       1.0  T
   8     -9.1964682 -0.370142E-04  0.151E-02    2.84       3.3  T
   9     -9.1964689 -0.617611E-06  0.301E-03    2.84      16.6  T
  10     -9.1964689 -0.516462E-07  0.570E-04    2.84      87.7  T
  11     -9.1964689 -0.815170E-10  0.867E-05    2.84     576.5  T
     SCC iter.                  ...        0 min,  0.001 sec
     gradient                   ...        0 min,  0.001 sec
 * total energy  :    -9.0426177 Eh     change       -0.3717000E-03 Eh
   gradient norm :     0.1862441 Eh/α   predicted    -0.1904725E-01 (5024.36%)
   displ. norm   :     0.3000144 α      lambda       -0.2808083E-01
   maximum displ.:     0.2277665 α      in ANC's #1, #2, #5, ...

........................................................................
.............................. CYCLE    6 ..............................
........................................................................
   1     -9.2410248 -0.924102E+01  0.198E+00    3.73       0.0  T
   2     -9.2130283  0.279965E-01  0.207E+00    3.98       1.0  T
   3     -9.2237162 -0.106879E-01  0.195E+00    3.42       1.0  T
   4     -9.2423387 -0.186225E-01  0.936E-01    3.67       1.0  T
   5     -9.2454944 -0.315566E-02  0.255E-01    3.72       1.0  T
   6     -9.2454283  0.661252E-04  0.207E-01    3.72       1.0  T
   7     -9.2454821 -0.537761E-04  0.892E-02    3.71       1.0  T
   8     -9.2455031 -0.210218E-04  0.159E-02    3.72       3.1  T
   9     -9.2455041 -0.100852E-05  0.383E-03    3.72      13.0  T
  10     -9.2455041 -0.568476E-07  0.127E-03    3.72      39.3  T
  11     -9.2455041 -0.495104E-08  0.130E-04    3.72     385.8  T
  12     -9.2455041 -0.590337E-10  0.645E-05    3.72     775.4  T
     SCC iter.                  ...        0 min,  0.001 sec
     gradient                   ...        0 min,  0.001 sec
 * total energy  :    -9.0556087 Eh     change       -0.1299102E-01 Eh
   gradient norm :     0.0782656 Eh/α   predicted    -0.1530417E-01 (  17.81%)
   displ. norm   :     0.2195873 α      lambda       -0.9286641E-02
   maximum displ.:     0.1924186 α      in ANC's #2, #1, #4, ...

........................................................................
.............................. CYCLE    7 ..............................
........................................................................
   1     -9.2838540 -0.928385E+01  0.723E-01    3.58       0.0  T
   2     -9.2833177  0.536335E-03  0.650E-01    3.63       1.0  T
   3     -9.2846760 -0.135838E-02  0.297E-01    3.58       1.0  T
   4     -9.2841587  0.517350E-03  0.288E-01    3.64       1.0  T
   5     -9.2847885 -0.629838E-03  0.226E-02    3.60       2.2  T
   6     -9.2847912 -0.264192E-05  0.794E-03    3.59       6.3  T
   7     -9.2847912 -0.340179E-07  0.122E-03    3.59      40.9  T
   8     -9.2847912 -0.202643E-08  0.633E-04    3.59      79.0  T
   9     -9.2847912 -0.372914E-09  0.901E-05    3.59     555.1  T
     SCC iter.                  ...        0 min,  0.001 sec
     gradient                   ...        0 min,  0.001 sec
 * total energy  :    -9.0582002 Eh     change       -0.2591493E-02 Eh
   gradient norm :     0.0295242 Eh/α   predicted    -0.4867217E-02 (  87.82%)
   displ. norm   :     0.2293162 α      lambda       -0.5021512E-02
   maximum displ.:     0.1959350 α      in ANC's #1, #2, #4, ...

........................................................................
.............................. CYCLE    8 ..............................
........................................................................
   1     -9.2758159 -0.927582E+01  0.854E-01    3.67       0.0  T
   2     -9.2757435  0.723891E-04  0.500E-01    3.64       1.0  T
   3     -9.2721753  0.356819E-02  0.688E-01    3.76       1.0  T
   4     -9.2755946 -0.341930E-02  0.226E-01    3.64       1.0  T
   5     -9.2758935 -0.298926E-03  0.453E-02    3.67       1.1  T
   6     -9.2759018 -0.829492E-05  0.140E-02    3.66       3.6  T
   7     -9.2759021 -0.217523E-06  0.176E-03    3.66      28.4  T
   8     -9.2759021 -0.103346E-07  0.127E-03    3.66      39.5  T
   9     -9.2759021 -0.678595E-08  0.999E-05    3.66     500.7  T
  10     -9.2759021 -0.135589E-10  0.459E-05    3.66    1088.8  T
     SCC iter.                  ...        0 min,  0.001 sec
     gradient                   ...        0 min,  0.001 sec
 * total energy  :    -9.0618121 Eh     change       -0.3611861E-02 Eh
   gradient norm :     0.0379087 Eh/α   predicted    -0.2642789E-02 ( -26.83%)
   displ. norm   :     0.2824836 α      lambda       -0.4349248E-02
   maximum displ.:     0.1398169 α      in ANC's #3, #2, #4, ...

........................................................................
.............................. CYCLE    9 ..............................
........................................................................
   1     -9.2634293 -0.926343E+01  0.141E+00    3.77       0.0  T
   2     -9.2623210  0.110838E-02  0.998E-01    3.71       1.0  T
   3     -9.2609399  0.138103E-02  0.906E-01    3.87       1.0  T
   4     -9.2590291  0.191088E-02  0.854E-01    3.61       1.0  T
   5     -9.2645824 -0.555335E-02  0.116E-01    3.75       1.0  T
   6     -9.2646753 -0.928559E-04  0.619E-02    3.78       1.0  T
   7     -9.2646825 -0.727712E-05  0.136E-02    3.77       3.7  T
   8     -9.2646833 -0.769750E-06  0.415E-03    3.77      12.0  T
   9     -9.2646833 -0.361879E-08  0.313E-04    3.77     159.6  T
  10     -9.2646833 -0.256641E-09  0.143E-04    3.77     350.2  T
     SCC iter.                  ...        0 min,  0.001 sec
     gradient                   ...        0 min,  0.001 sec
 * total energy  :    -9.0618692 Eh     change       -0.5711145E-04 Eh
   gradient norm :     0.0681790 Eh/α   predicted    -0.2348159E-02 (4011.54%)
   displ. norm   :     0.1554580 α      lambda       -0.5225828E-02
   maximum displ.:     0.1073573 α      in ANC's #1, #3, #2, ...

........................................................................
.............................. CYCLE   10 ..............................
........................................................................
   1     -9.2725809 -0.927258E+01  0.791E-01    3.80       0.0  T
   2     -9.2723350  0.245887E-03  0.596E-01    3.81       1.0  T
   3     -9.2728166 -0.481590E-03  0.408E-01    3.74       1.0  T
   4     -9.2704485  0.236815E-02  0.576E-01    3.87       1.0  T
   5     -9.2733692 -0.292073E-02  0.884E-02    3.79       1.0  T
   6     -9.2733985 -0.292890E-04  0.184E-02    3.78       2.7  T
   7     -9.2733991 -0.580669E-06  0.280E-03    3.78      17.8  T
   8     -9.2733991 -0.238696E-07  0.132E-03    3.78      37.8  T
   9     -9.2733991 -0.407781E-08  0.190E-04    3.78     263.7  T
  10     -9.2733991 -0.103830E-09  0.842E-05    3.78     594.0  T
     SCC iter.                  ...        0 min,  0.001 sec
     gradient                   ...        0 min,  0.001 sec
 * total energy  :    -9.0641506 Eh     change       -0.2281386E-02 Eh
   gradient norm :     0.0594366 Eh/α   predicted    -0.2676063E-02 (  17.30%)
   displ. norm   :     0.1187198 α      lambda       -0.2188556E-02
   maximum displ.:     0.1114922 α      in ANC's #1, #2, #4, ...

........................................................................
.............................. CYCLE   11 ..............................
........................................................................
   1     -9.2998899 -0.929989E+01  0.480E-01    3.91       0.0  T
   2     -9.2997612  0.128688E-03  0.319E-01    3.93       1.0  T
   3     -9.2992592  0.502006E-03  0.357E-01    3.85       1.0  T
   4     -9.2993361 -0.768347E-04  0.305E-01    3.94       1.0  T
   5     -9.3000135 -0.677399E-03  0.272E-02    3.90       1.8  T
   6     -9.3000187 -0.523284E-05  0.117E-02    3.89       4.3  T
   7     -9.3000190 -0.348778E-06  0.228E-03    3.90      22.0  T
   8     -9.3000191 -0.342375E-07  0.696E-04    3.90      71.8  T
   9     -9.3000191 -0.385690E-09  0.668E-05    3.90     748.3  T
     SCC iter.                  ...        0 min,  0.001 sec
     gradient                   ...        0 min,  0.001 sec
 * total energy  :    -9.0643346 Eh     change       -0.1840437E-03 Eh
   gradient norm :     0.0325514 Eh/α   predicted    -0.1109702E-02 ( 502.96%)
   displ. norm   :     0.1210787 α      lambda       -0.1544850E-02
   maximum displ.:     0.0999920 α      in ANC's #1, #4, #5, ...

........................................................................
.............................. CYCLE   12 ..............................
........................................................................
   1     -9.2896533 -0.928965E+01  0.526E-01    3.80       0.0  T
   2     -9.2893913  0.261989E-03  0.345E-01    3.77       1.0  T
   3     -9.2876537  0.173763E-02  0.542E-01    3.88       1.0  T
   4     -9.2893756 -0.172185E-02  0.242E-01    3.78       1.0  T
   5     -9.2897546 -0.379036E-03  0.396E-02    3.80       1.3  T
   6     -9.2897678 -0.132440E-04  0.188E-02    3.81       2.7  T
   7     -9.2897686 -0.712555E-06  0.386E-03    3.81      13.0  T
   8     -9.2897686 -0.844534E-07  0.997E-04    3.81      50.1  T
   9     -9.2897686 -0.890589E-09  0.105E-04    3.81     478.4  T
     SCC iter.                  ...        0 min,  0.001 sec
     gradient                   ...        0 min,  0.001 sec
 * total energy  :    -9.0652736 Eh     change       -0.9389477E-03 Eh
   gradient norm :     0.0147257 Eh/α   predicted    -0.7837498E-03 ( -16.53%)
   displ. norm   :     0.0989592 α      lambda       -0.4440985E-03
   maximum displ.:     0.0769980 α      in ANC's #1, #4, #5, ...

........................................................................
.............................. CYCLE   13 ..............................
........................................................................
   1     -9.2860894 -0.928609E+01  0.406E-01    3.81       0.0  T
   2     -9.2859788  0.110577E-03  0.262E-01    3.78       1.0  T
   3     -9.2838599  0.211883E-02  0.521E-01    3.88       1.0  T
   4     -9.2860726 -0.221264E-02  0.103E-01    3.80       1.0  T
   5     -9.2861220 -0.493912E-04  0.203E-02    3.80       2.5  T
   6     -9.2861233 -0.134658E-05  0.666E-03    3.80       7.5  T
   7     -9.2861233 -0.136627E-07  0.152E-03    3.80      32.9  T
   8     -9.2861234 -0.166344E-07  0.687E-04    3.80      72.8  T
   9     -9.2861234 -0.970216E-09  0.541E-05    3.80     924.7  T
     SCC iter.                  ...        0 min,  0.001 sec
     gradient                   ...        0 min,  0.001 sec
 * total energy  :    -9.0655302 Eh     change       -0.2566833E-03 Eh
   gradient norm :     0.0223350 Eh/α   predicted    -0.2242217E-03 ( -12.65%)
   displ. norm   :     0.0471691 α      lambda       -0.2630176E-03
   maximum displ.:     0.0329689 α      in ANC's #1, #4, #5, ...

........................................................................
.............................. CYCLE   14 ..............................
........................................................................
   1     -9.2898226 -0.928982E+01  0.206E-01    3.82       0.0  T
   2     -9.2898092  0.133553E-04  0.130E-01    3.80       1.0  T
   3     -9.2893775  0.431732E-03  0.241E-01    3.84       1.0  T
   4     -9.2898246 -0.447080E-03  0.417E-02    3.81       1.2  T
   5     -9.2898275 -0.298533E-05  0.246E-02    3.81       2.0  T
   6     -9.2898323 -0.473669E-05  0.550E-03    3.81       9.1  T
   7     -9.2898323 -0.235122E-07  0.623E-04    3.81      80.2  T
   8     -9.2898323 -0.342089E-09  0.151E-04    3.81     332.2  T
     SCC iter.                  ...        0 min,  0.001 sec
     gradient                   ...        0 min,  0.001 sec
 * total energy  :    -9.0657384 Eh     change       -0.2081930E-03 Eh
   gradient norm :     0.0148054 Eh/α   predicted    -0.1318026E-03 ( -36.69%)
   displ. norm   :     0.0659759 α      lambda       -0.2818897E-03
   maximum displ.:     0.0484536 α      in ANC's #1, #4, #6, ...

........................................................................
.............................. CYCLE   15 ..............................
........................................................................
   1     -9.2951477 -0.929515E+01  0.284E-01    3.84       0.0  T
   2     -9.2951329  0.148328E-04  0.178E-01    3.83       1.0  T
   3     -9.2944314  0.701494E-03  0.307E-01    3.88       1.0  T
   4     -9.2951425 -0.711167E-03  0.655E-02    3.83       1.0  T
   5     -9.2951555 -0.129563E-04  0.349E-02    3.84       1.4  T
   6     -9.2951651 -0.963311E-05  0.813E-03    3.83       6.2  T
   7     -9.2951652 -0.829104E-07  0.899E-04    3.83      55.6  T
   8     -9.2951652 -0.941858E-09  0.319E-04    3.83     156.7  T
     SCC iter.                  ...        0 min,  0.001 sec
     gradient                   ...        0 min,  0.001 sec
 * total energy  :    -9.0659217 Eh     change       -0.1833060E-03 Eh
   gradient norm :     0.0070724 Eh/α   predicted    -0.1415572E-03 ( -22.78%)
   displ. norm   :     0.0580702 α      lambda       -0.1030309E-03
   maximum displ.:     0.0473062 α      in ANC's #1, #4, #6, ...

........................................................................
.............................. CYCLE   16 ..............................
........................................................................
   1     -9.2957584 -0.929576E+01  0.236E-01    3.84       0.0  T
   2     -9.2957410  0.174688E-04  0.146E-01    3.83       1.0  T
   3     -9.2949259  0.815065E-03  0.312E-01    3.89       1.0  T
   4     -9.2957611 -0.835235E-03  0.220E-02    3.84       2.3  T
   5     -9.2957635 -0.238018E-05  0.131E-02    3.84       3.8  T
   6     -9.2957639 -0.400606E-06  0.530E-03    3.84       9.4  T
   7     -9.2957640 -0.827108E-07  0.680E-04    3.84      73.5  T
   8     -9.2957640 -0.249129E-09  0.171E-04    3.84     291.9  T
     SCC iter.                  ...        0 min,  0.001 sec
     gradient                   ...        0 min,  0.001 sec
 * total energy  :    -9.0659937 Eh     change       -0.7192818E-04 Eh
   gradient norm :     0.0063214 Eh/α   predicted    -0.5168859E-04 ( -28.14%)
   displ. norm   :     0.0495758 α      lambda       -0.1018031E-03
   maximum displ.:     0.0354596 α      in ANC's #1, #3, #6, ...

........................................................................
.............................. CYCLE   17 ..............................
........................................................................
   1     -9.2981980 -0.929820E+01  0.227E-01    3.87       0.0  T
   2     -9.2981981 -0.123976E-06  0.137E-01    3.86       1.0  T
   3     -9.2980129  0.185190E-03  0.145E-01    3.89       1.0  T
   4     -9.2982009 -0.187968E-03  0.154E-02    3.87       3.2  T
   5     -9.2982013 -0.357700E-06  0.107E-02    3.87       4.7  T
   6     -9.2982015 -0.191649E-06  0.588E-03    3.87       8.5  T
   7     -9.2982016 -0.940834E-07  0.650E-04    3.87      76.9  T
   8     -9.2982016 -0.293417E-09  0.141E-04    3.87     355.9  T
     SCC iter.                  ...        0 min,  0.001 sec
     gradient                   ...        0 min,  0.001 sec
 * total energy  :    -9.0660607 Eh     change       -0.6700536E-04 Eh
   gradient norm :     0.0074546 Eh/α   predicted    -0.5102576E-04 ( -23.85%)
   displ. norm   :     0.0471301 α      lambda       -0.7063484E-04
   maximum displ.:     0.0334993 α      in ANC's #1, #3, #5, ...

........................................................................
.............................. CYCLE   18 ..............................
........................................................................
   1     -9.2978896 -0.929789E+01  0.220E-01    3.87       0.0  T
   2     -9.2978890  0.571651E-06  0.133E-01    3.87       1.0  T
   3     -9.2977667  0.122273E-03  0.122E-01    3.89       1.0  T
   4     -9.2978830 -0.116281E-03  0.369E-02    3.87       1.4  T
   5     -9.2978919 -0.891518E-05  0.100E-02    3.87       5.0  T
   6     -9.2978920 -0.290812E-07  0.268E-03    3.87      18.6  T
   7     -9.2978920 -0.605876E-07  0.520E-04    3.87      96.2  T
   8     -9.2978920 -0.473932E-09  0.200E-04    3.87     249.7  T
     SCC iter.                  ...        0 min,  0.001 sec
     gradient                   ...        0 min,  0.001 sec
 * total energy  :    -9.0661100 Eh     change       -0.4934824E-04 Eh
   gradient norm :     0.0041906 Eh/α   predicted    -0.3539532E-04 ( -28.27%)
   displ. norm   :     0.0358456 α      lambda       -0.5663744E-04
   maximum displ.:     0.0258415 α      in ANC's #5, #3, #1, ...

........................................................................
.............................. CYCLE   19 ..............................
........................................................................
   1     -9.2983039 -0.929830E+01  0.192E-01    3.88       0.0  T
   2     -9.2983046 -0.728454E-06  0.114E-01    3.88       1.0  T
   3     -9.2982855  0.190769E-04  0.551E-02    3.88       1.0  T
   4     -9.2982991 -0.135857E-04  0.290E-02    3.87       1.7  T
   5     -9.2983055 -0.642842E-05  0.980E-03    3.88       5.1  T
   6     -9.2983056 -0.694120E-07  0.418E-03    3.88      12.0  T
   7     -9.2983058 -0.151450E-06  0.298E-04    3.88     168.0  T
   8     -9.2983058 -0.505000E-10  0.107E-04    3.88     468.3  T
     SCC iter.                  ...        0 min,  0.001 sec
     gradient                   ...        0 min,  0.001 sec
 * total energy  :    -9.0661457 Eh     change       -0.3571805E-04 Eh
   gradient norm :     0.0039979 Eh/α   predicted    -0.2835453E-04 ( -20.62%)
   displ. norm   :     0.0180755 α      lambda       -0.2420964E-04
   maximum displ.:     0.0126814 α      in ANC's #5, #3, #2, ...

........................................................................
.............................. CYCLE   20 ..............................
........................................................................
   1     -9.2973580 -0.929736E+01  0.903E-02    3.88       0.0  T
   2     -9.2973579  0.155110E-06  0.536E-02    3.88       1.0  T
   3     -9.2973375  0.203189E-04  0.555E-02    3.87       1.0  T
   4     -9.2973552 -0.176837E-04  0.206E-02    3.88       2.4  T
   5     -9.2973586 -0.337628E-05  0.419E-03    3.88      11.9  T
   6     -9.2973586 -0.925524E-08  0.201E-03    3.88      24.9  T
   7     -9.2973587 -0.354830E-07  0.137E-04    3.88     365.2  T
   8     -9.2973587 -0.364864E-11  0.548E-05    3.88     912.3  T
     SCC iter.                  ...        0 min,  0.001 sec
     gradient                   ...        0 min,  0.001 sec
 * total energy  :    -9.0661620 Eh     change       -0.1628886E-04 Eh
   gradient norm :     0.0022945 Eh/α   predicted    -0.1211049E-04 ( -25.65%)
   displ. norm   :     0.0225713 α      lambda       -0.2170485E-04
   maximum displ.:     0.0154721 α      in ANC's #1, #2, #6, ...
 * RMSD in coord.:     1.0395484 α      energy gain  -0.2063298E+00 Eh

generating ANC from model Hessian ...
Using Lindh-Hessian (1995)
 Shifting diagonal of input Hessian by    5.4713445786417261E-003
 Lowest  eigenvalues of input Hessian
   -0.000000   -0.000000   -0.000000    0.000000    0.000000    0.000000
    0.010000    0.247252    0.509234    1.066701    1.993400    2.961154
 Highest eigenvalues
    0.010000    0.247252    0.509234    1.066701    1.993400    2.961154


........................................................................
.............................. CYCLE   21 ..............................
........................................................................
   1     -9.2973439 -0.929734E+01  0.994E-02    3.88       0.0  T
   2     -9.2973418  0.213467E-05  0.603E-02    3.89       1.0  T
   3     -9.2972340  0.107836E-03  0.115E-01    3.86       1.0  T
   4     -9.2973446 -0.110671E-03  0.808E-03    3.88       6.2  T
   5     -9.2973448 -0.145455E-06  0.480E-03    3.88      10.4  T
   6     -9.2973448 -0.102403E-07  0.322E-03    3.88      15.5  T
   7     -9.2973449 -0.638678E-07  0.223E-04    3.88     224.0  T
   8     -9.2973449 -0.155396E-10  0.997E-05    3.88     501.3  T
     SCC iter.                  ...        0 min,  0.001 sec
     gradient                   ...        0 min,  0.001 sec
 * total energy  :    -9.0661758 Eh     change       -0.1380133E-04 Eh
   gradient norm :     0.0015898 Eh/α   predicted     0.0000000E+00 (-100.00%)
   displ. norm   :     0.0357988 α      lambda       -0.8335615E-05
   maximum displ.:     0.0356896 α      in ANC's #1, #3, #4, ...

........................................................................
.............................. CYCLE   22 ..............................
........................................................................
   1     -9.2978987 -0.929790E+01  0.169E-01    3.88       0.0  T
   2     -9.2978996 -0.893964E-06  0.966E-02    3.88       1.0  T
   3     -9.2978917  0.795049E-05  0.404E-02    3.88       1.2  T
   4     -9.2978982 -0.653456E-05  0.174E-02    3.88       2.9  T
   5     -9.2978999 -0.173142E-05  0.892E-03    3.88       5.6  T
   6     -9.2979003 -0.378084E-06  0.394E-03    3.88      12.7  T
   7     -9.2979004 -0.124595E-06  0.143E-04    3.88     350.1  T
   8     -9.2979004 -0.188116E-11  0.528E-05    3.88     946.2  T
     SCC iter.                  ...        0 min,  0.001 sec
     gradient                   ...        0 min,  0.001 sec
 * total energy  :    -9.0661655 Eh     change        0.1028834E-04 Eh
   gradient norm :     0.0015349 Eh/α   predicted    -0.4168463E-05 (-140.52%)
   displ. norm   :     0.0278382 α      lambda       -0.1847926E-04
   maximum displ.:     0.0278120 α      in ANC's #1, #4, #3, ...

........................................................................
.............................. CYCLE   23 ..............................
........................................................................
   1     -9.2983064 -0.929831E+01  0.132E-01    3.89       0.0  T
   2     -9.2983058  0.622079E-06  0.762E-02    3.89       1.0  T
   3     -9.2982345  0.712306E-04  0.922E-02    3.87       1.0  T
   4     -9.2983066 -0.720328E-04  0.131E-02    3.89       3.8  T
   5     -9.2983075 -0.902485E-06  0.445E-03    3.89      11.2  T
   6     -9.2983075  0.190844E-07  0.241E-03    3.89      20.7  T
   7     -9.2983075 -0.476649E-07  0.137E-04    3.89     365.5  T
   8     -9.2983075 -0.435065E-10  0.580E-05    3.89     862.4  T
     SCC iter.                  ...        0 min,  0.001 sec
     gradient                   ...        0 min,  0.001 sec
 * total energy  :    -9.0661797 Eh     change       -0.1419694E-04 Eh
   gradient norm :     0.0016322 Eh/α   predicted    -0.9244532E-05 ( -34.88%)
   displ. norm   :     0.0037863 α      lambda       -0.2562990E-05
   maximum displ.:     0.0025862 α      in ANC's #1, #3, #4, ...

........................................................................
.............................. CYCLE   24 ..............................
........................................................................
   1     -9.2976298 -0.929763E+01  0.196E-02    3.88       0.0  T
   2     -9.2976298  0.413617E-07  0.138E-02    3.88       3.6  T
   3     -9.2976299 -0.162184E-06  0.966E-03    3.89       5.2  T
   4     -9.2976292  0.718181E-06  0.103E-02    3.88       4.9  T
   5     -9.2976302 -0.973418E-06  0.200E-03    3.88      25.0  T
   6     -9.2976302 -0.105815E-07  0.625E-04    3.88      80.1  T
   7     -9.2976302 -0.434037E-09  0.585E-05    3.88     854.1  T
     SCC iter.                  ...        0 min,  0.000 sec
     gradient                   ...        0 min,  0.001 sec
 * total energy  :    -9.0661820 Eh     change       -0.2240617E-05 Eh
   gradient norm :     0.0013635 Eh/α   predicted    -0.1282314E-05 ( -42.77%)
   displ. norm   :     0.0047139 α      lambda       -0.2982946E-05
   maximum displ.:     0.0043174 α      in ANC's #4, #2, #3, ...

........................................................................
.............................. CYCLE   25 ..............................
........................................................................
   1     -9.2976279 -0.929763E+01  0.251E-02    3.89       0.0  T
   2     -9.2976278  0.829751E-07  0.160E-02    3.89       3.1  T
   3     -9.2976233  0.450563E-05  0.245E-02    3.88       2.0  T
   4     -9.2976277 -0.438202E-05  0.585E-03    3.89       8.6  T
   5     -9.2976279 -0.255263E-06  0.121E-03    3.89      41.2  T
   6     -9.2976279 -0.295822E-09  0.370E-04    3.89     135.2  T
   7     -9.2976279 -0.108532E-08  0.781E-05    3.89     640.4  T
     SCC iter.                  ...        0 min,  0.000 sec
     gradient                   ...        0 min,  0.001 sec
 * total energy  :    -9.0661862 Eh     change       -0.4225487E-05 Eh
   gradient norm :     0.0015234 Eh/α   predicted    -0.1489732E-05 ( -64.74%)
   displ. norm   :     0.0470328 α      lambda       -0.2835008E-04
   maximum displ.:     0.0429301 α      in ANC's #4, #2, #3, ...

........................................................................
.............................. CYCLE   26 ..............................
........................................................................
   1     -9.2981742 -0.929817E+01  0.250E-01    3.91       0.0  T
   2     -9.2981711  0.303206E-05  0.157E-01    3.92       1.0  T
   3     -9.2978758  0.295342E-03  0.195E-01    3.88       1.0  T
   4     -9.2981659 -0.290116E-03  0.387E-02    3.92       1.3  T
   5     -9.2981772 -0.112454E-04  0.120E-02    3.91       4.2  T
   6     -9.2981772 -0.760036E-07  0.417E-03    3.91      12.0  T
   7     -9.2981774 -0.142533E-06  0.860E-04    3.91      58.1  T
   8     -9.2981774 -0.205326E-08  0.248E-04    3.91     201.9  T
     SCC iter.                  ...        0 min,  0.001 sec
     gradient                   ...        0 min,  0.001 sec
 * total energy  :    -9.0662113 Eh     change       -0.2508618E-04 Eh
   gradient norm :     0.0012272 Eh/α   predicted    -0.1418744E-04 ( -43.45%)
   displ. norm   :     0.0165737 α      lambda       -0.3875942E-05
   maximum displ.:     0.0141249 α      in ANC's #4, #2, #1, ...

........................................................................
.............................. CYCLE   27 ..............................
........................................................................
   1     -9.2988164 -0.929882E+01  0.865E-02    3.92       0.0  T
   2     -9.2988164 -0.549720E-07  0.538E-02    3.92       1.0  T
   3     -9.2988059  0.105545E-04  0.357E-02    3.91       1.4  T
   4     -9.2988157 -0.988616E-05  0.112E-02    3.92       4.5  T
   5     -9.2988166 -0.862473E-06  0.355E-03    3.92      14.1  T
   6     -9.2988166 -0.591028E-08  0.198E-03    3.92      25.3  T
   7     -9.2988166 -0.290029E-07  0.195E-04    3.92     256.4  T
   8     -9.2988166 -0.506457E-10  0.462E-05    3.92    1082.6  T
     SCC iter.                  ...        0 min,  0.001 sec
     gradient                   ...        0 min,  0.001 sec
 * total energy  :    -9.0662153 Eh     change       -0.4020782E-05 Eh
   gradient norm :     0.0007238 Eh/α   predicted    -0.1937978E-05 ( -51.80%)
   displ. norm   :     0.0192182 α      lambda       -0.2885173E-05
   maximum displ.:     0.0146014 α      in ANC's #4, #2, #1, ...

   *** GEOMETRY OPTIMIZATION CONVERGED AFTER 27 ITERATIONS ***

------------------------------------------------------------------------
 total energy gain   :        -0.2063831 Eh     -129.5073 kcal/mol
 total RMSD          :         1.0624436 a0        0.5622 Å
 total power (kW/mol):       -20.0688397 (step)-7925.0152 (real)
------------------------------------------------------------------------

 ANCopt (total)                0 d,  0 h,  0 min,  0.068 sec
 optimizer setup                ...        0 min,  0.000 sec (  0.093%)
 model hessian                  ...        0 min,  0.000 sec (  0.126%)
 ANC generation                 ...        0 min,  0.000 sec (  0.111%)
 coordinate transformation      ...        0 min,  0.000 sec (  0.091%)
 single point calculation       ...        0 min,  0.066 sec ( 96.776%)
 optimization log               ...        0 min,  0.001 sec (  0.857%)
 hessian update                 ...        0 min,  0.000 sec (  0.071%)
 rational function              ...        0 min,  0.001 sec (  0.767%)

================
 final structure:
================
4
 xtb: 6.2.2 (9d81278992624c895f80dd42a50cac0aa55982e2)
C        -1.82430753615268   -0.03116915394881   -0.04339910154810
N        -0.66103685271599   -0.00794724221245   -0.01968841535958
C         0.64270150194642    0.03048302252387   -0.00109325962302
C         1.84264288692226    0.00863337363738    0.06418177653071

 Bond Distances (Angstroems)
 ---------------------------
C1-N2=1.1637         N2-C1=1.1637         N2-C3=1.3044         C3-N2=1.3044         C3-C4=1.2019         C4-C3=1.2019         
 C  C  Rav=1.2019 sigma=0.0000  Rmin=1.2019  Rmax=1.2019     1
 N  C  Rav=1.2341 sigma=0.0703  Rmin=1.1637  Rmax=1.3044     2

 selected bond angles (degree)
 --------------------
C3-N2-C1=179.35                C4-C3-N2=176.43                

 selected dihedral angles (degree)
 ---------------------------------
C4-C3-N2-C1=172.67            
           -------------------------------------------------
          |                Final Singlepoint                |
           -------------------------------------------------

          ...................................................
          :                      SETUP                      :
          :.................................................:
          :  # basis functions                  16          :
          :  # atomic orbitals                  16          :
          :  # shells                            8          :
          :  # electrons                        17          :
          :  max. iterations                   250          :
          :  Hamiltonian                  GFN2-xTB          :
          :  restarted?                      false          :
          :  GBSA solvation                  false          :
          :  PC potential                    false          :
          :  electronic temp.          300.0000000     K    :
          :  accuracy                    1.0000000          :
          :  -> integral cutoff          0.2500000E+02      :
          :  -> integral neglect         0.1000000E-07      :
          :  -> SCF convergence          0.1000000E-05 Eh   :
          :  -> wf. convergence          0.1000000E-03 e    :
          :  Broyden damping             0.4000000          :
          ...................................................

 iter      E             dE          RMSdq      gap      omega  full diag
   1     -9.2988166 -0.929882E+01  0.771E-06    3.92       0.0  T
   2     -9.2988166  0.621725E-13  0.583E-06    3.92    8571.0  T
   3     -9.2988166  0.179412E-12  0.735E-06    3.92    6803.5  T

   *** convergence criteria satisfied after 3 iterations ***

         #    Occupation            Energy/Eh            Energy/eV
      -------------------------------------------------------------
         1        2.0000           -0.6986636             -19.0116
       ...           ...                  ...                  ...
         3        2.0000           -0.6302411             -17.1497
         4        2.0000           -0.5570434             -15.1579
         5        2.0000           -0.5570344             -15.1577
         6        2.0000           -0.4716723             -12.8349
         7        2.0000           -0.4534044             -12.3378
         8        2.0000           -0.4532884             -12.3346
         9        1.0000           -0.4268039             -11.6139 (HOMO)
        10                         -0.2827861              -7.6950 (LUMO)
        11                         -0.2826991              -7.6926
        12                         -0.1361146              -3.7039
        13                         -0.1355197              -3.6877
        14                          0.0914791               2.4893
       ...                                ...                  ...
        16                          1.3799622              37.5507
      -------------------------------------------------------------
                  HL-Gap            0.1440178 Eh            3.9189 eV
             Fermi-level           -0.3972700 Eh          -10.8103 eV

 SCC (total)                   0 d,  0 h,  0 min,  0.002 sec
 SCC setup                      ...        0 min,  0.000 sec (  2.251%)
 Dispersion                     ...        0 min,  0.000 sec (  0.378%)
 integral evaluation            ...        0 min,  0.001 sec ( 38.851%)
 zeroth order Hamiltonian       ...        0 min,  0.000 sec (  0.498%)
 iterations                     ...        0 min,  0.000 sec ( 19.550%)
 molecular gradient             ...        0 min,  0.001 sec ( 35.255%)
 printout                       ...        0 min,  0.000 sec (  2.918%)

         :::::::::::::::::::::::::::::::::::::::::::::::::::::
         ::                     SUMMARY                     ::
         :::::::::::::::::::::::::::::::::::::::::::::::::::::
         :: total energy              -9.066215317438 Eh    ::
         :: gradient norm              0.000723985837 Eh/a0 ::
         :: HOMO-LUMO gap              3.918922481659 eV    ::
         ::.................................................::
         :: SCC energy                -9.298816639390 Eh    ::
         :: -> isotropic ES           -0.009227026746 Eh    ::
         :: -> anisotropic ES          0.000931783747 Eh    ::
         :: -> anisotropic XC          0.016584681114 Eh    ::
         :: -> dispersion             -0.001821036383 Eh    ::
         :: repulsion energy           0.232601410588 Eh    ::
         :: add. restraining           0.000000000000 Eh    ::
         :::::::::::::::::::::::::::::::::::::::::::::::::::::

           ------------------------------------------------- 
          |                Numerical Hessian                |
           ------------------------------------------------- 
step length          :   0.00500
SCC accuracy         :   0.30000
Hessian scale factor :   1.00000
frozen atoms in %    :   0.00000    0
RMS gradient         :   0.00072
estimated CPU  time      0.00 min
estimated wall time      0.00 min

writing file <hessian>.

 projected vibrational frequencies (cm-1)
eigval :       -0.00    -0.00    -0.00     0.00     0.00     0.00
eigval :      101.21   256.34   260.80   964.56  2163.31  2257.05
           -------------------------------------------------
          |                Property Printout                |
           -------------------------------------------------

    * Orbital Energies and Occupations

         #    Occupation            Energy/Eh            Energy/eV
      -------------------------------------------------------------
         1        2.0000           -0.6986638             -19.0116
         2        2.0000           -0.6687519             -18.1977
         3        2.0000           -0.6302410             -17.1497
         4        2.0000           -0.5570435             -15.1579
         5        2.0000           -0.5570346             -15.1577
         6        2.0000           -0.4716727             -12.8349
         7        2.0000           -0.4534042             -12.3378
         8        2.0000           -0.4532882             -12.3346
         9        1.0000           -0.4268035             -11.6139 (HOMO)
        10                         -0.2827863              -7.6950 (LUMO)
        11                         -0.2826993              -7.6926
        12                         -0.1361145              -3.7039
        13                         -0.1355196              -3.6877
        14                          0.0914791               2.4893
        15                          0.8794729              23.9317
        16                          1.3799623              37.5507
      -------------------------------------------------------------
                  HL-Gap            0.1440172 Eh            3.9189 eV
             Fermi-level           -0.3972698 Eh          -10.8103 eV
Molecule has the following symmetry elements: (Cinf) (sigma) 
It seems to be the Cinfv point group

     #   Z        covCN         q      C6AA      α(0)
     1   6 C      0.917    -0.094    38.439    10.379
     2   7 N      1.822     0.104    20.075     6.639
     3   6 C      1.898     0.048    29.900     8.831
     4   6 C      0.982    -0.058    37.705    10.314

 Mol. C6AA /au·bohr⁶  :        495.753034
 Mol. C8AA /au·bohr⁸  :      13619.541024
 Mol. α(0) /au        :         36.163536


Wiberg/Mayer (AO) data.
largest (>0.10) Wiberg bond orders for each atom
          total WBO             WBO to atom ...
     1  C   2.881        N    2 2.490    C    4 0.343
     2  N   3.677        C    1 2.490    C    3 1.164
     3  C   3.899        C    4 2.687    N    2 1.164
     4  C   3.053        C    3 2.687    C    1 0.343

MOs/occ written to file <molden.input>


molecular dipole:
                 x           y           z       tot (Debye)
 q only:        0.052       0.006      -0.003
   full:        0.344       0.023      -0.006       0.877
molecular quadrupole (traceless):
                xx          xy          yy          xz          yz          zz
 q only:       -1.585      -0.026       0.793      -0.069      -0.001       0.791
  q+dip:       -0.158       0.013       0.079      -0.018      -0.001       0.078
   full:       -3.325       0.013       1.667      -0.199      -0.002       1.658

           -------------------------------------------------
          |                Geometry Summary                 |
           -------------------------------------------------

      molecular mass/u    :       50.0389109
   center of mass at/Å    :       -0.0263676      -0.0003169      -0.0007850
  moments of inertia/u·Å² :        0.1637111E-01   0.9188604E+02   0.9190239E+02
rotational constants/cm⁻¹ :        0.1029718E+04   0.1834624E+00   0.1834297E+00

 * 3 selected distances

     #   Z        #   Z                                     value/Å
     1   6 C      2   7 N                                 1.1637440 (min)
     2   7 N      3   6 C                                 1.3044372 (max)
     3   6 C      4   6 C                                 1.2019141

 * 2 distinct bonds (by element types)

   Z      Z             #   av. dist./Å        max./Å        min./Å
   6 C    6 C           1     1.2019141     1.2019141     1.2019141
   6 C    7 N           2     1.2340906     1.3044372     1.1637440

           -------------------------------------------------
          |               Frequency Printout                |
           -------------------------------------------------
 projected vibrational frequencies (cm-1)
eigval :       -0.00    -0.00    -0.00     0.00     0.00     0.00
eigval :      101.21   256.34   260.80   964.56  2163.31  2257.05
 reduced masses (amu)
   1: 12.09   2: 12.18   3: 12.67   4: 12.55   5: 12.39   6: 12.12   7: 12.03   8: 13.32
   9: 13.31  10: 12.38  11: 12.96  12: 12.13
 IR intensities (amu)
   1:  0.25   2:  0.13   3:  0.05   4:  0.15   5:  0.10   6:  0.15   7:  0.37   8:  0.13
   9:  0.10  10:  0.11  11:  1.42  12:  0.29
 Raman intensities (amu)
   1:  0.00   2:  0.00   3:  0.00   4:  0.00   5:  0.00   6:  0.00   7:  0.00   8:  0.00
   9:  0.00  10:  0.00  11:  0.00  12:  0.00
 output can be read by thermo (or use thermo option).
 writing <g98.out> molden fake output.
 recommended (thermochemical) frequency scaling factor: 1.0
           -------------------------------------------------
          |             Thermodynamic Functions             |
           -------------------------------------------------

cin symmetry found (for desy threshold:  0.10E+00) used in thermo

          ...................................................
          :                      SETUP                      :
          :.................................................:
          :  # frequencies                           6      :
          :  # imaginary freq.                       0      :
          :  linear?                             false      :
          :  only rotor calc.                    false      :
          :  symmetry                              cin      :
          :  rotational number                       1      :
          :  scaling factor                  1.0000000      :
          :  rotor cutoff                   50.0000000 cm⁻¹ :
          :  imag. cutoff                  -20.0000000 cm⁻¹ :
          :.................................................:

    mode    ω/cm⁻¹     T·S(HO)/kcal·mol⁻¹    T·S(FR)/kcal·mol⁻¹   T·S(vib)
   ------------------------------------------------------------------------
       1    101.21    -0.00000 ( 94.38%)     0.00533 (  5.62%)     0.00030
       2    256.34    -0.00000 ( 99.86%)     0.01455 (  0.14%)     0.00002
       3    260.80    -0.00000 ( 99.87%)     0.01472 (  0.13%)     0.00002
   ------------------------------------------------------------------------

   temp. (K)  partition function   enthalpy   heat capacity  entropy
                                   cal/mol     cal/K/mol   cal/K/mol   J/K/mol
 298.15  VIB   5.14                 1081.956      5.873      6.851
         ROT   898.                  888.752      2.981     16.495
         INT  0.462E+04             1970.709      8.854     23.346
         TR   0.342E+27             1481.254      4.968     37.637
         TOT                        3451.9625    13.8223    60.9827   255.1518

   temp. (K)  partition function   enthalpy   heat capacity  entropy
                                   cal/mol     cal/K/mol   cal/K/mol   J/K/mol
 120.00  VIB   1.56                  192.130      3.650      2.499
         ROT   229.                  357.707      2.981     13.782
         INT   358.                  549.837      6.631     16.281
         TR   0.874E+26              596.178      4.968     33.118
         TOT                        1146.0153    11.5987    49.3989   206.6850

   temp. (K)  partition function   enthalpy   heat capacity  entropy
                                   cal/mol     cal/K/mol   cal/K/mol   J/K/mol
 100.00  VIB   1.37                  124.700      3.071      1.893
         ROT   174.                  298.089      2.981     13.239
         INT   239.                  422.789      6.052     15.132
         TR   0.665E+26              496.815      4.968     32.212
         TOT                         919.6037    11.0197    47.3443   198.0885

   temp. (K)  partition function   enthalpy   heat capacity  entropy
                                   cal/mol     cal/K/mol   cal/K/mol   J/K/mol
  80.00  VIB   1.22                   70.218      2.357      1.296
         ROT   125.                  238.471      2.981     12.573
         INT   152.                  308.689      5.337     13.869
         TR   0.476E+26              397.452      4.968     31.104
         TOT                         706.1409    10.3056    44.9735   188.1690

   temp. (K)  partition function   enthalpy   heat capacity  entropy
                                   cal/mol     cal/K/mol   cal/K/mol   J/K/mol
  60.00  VIB   1.10                   31.039      1.555      0.743
         ROT   81.1                  178.853      2.981     11.716
         INT   89.3                  209.892      4.536     12.459
         TR   0.309E+26              298.089      4.968     29.676
         TOT                         507.9814     9.5041    42.1352   176.2936

   temp. (K)  partition function   enthalpy   heat capacity  entropy
                                   cal/mol     cal/K/mol   cal/K/mol   J/K/mol
  40.00  VIB   1.03                    7.934      0.760      0.285
         ROT   44.1                  119.236      2.981     10.507
         INT   45.3                  127.170      3.741     10.792
         TR   0.168E+26              198.726      4.968     27.662
         TOT                         325.8960     8.7094    38.4545   160.8936

   temp. (K)  partition function   enthalpy   heat capacity  entropy
                                   cal/mol     cal/K/mol   cal/K/mol   J/K/mol
  20.00  VIB   1.00                    0.199      0.073      0.017
         ROT   15.6                   59.618      2.981      8.441
         INT   15.6                   59.817      3.054      8.458
         TR   0.595E+25               99.363      4.968     24.220
         TOT                         159.1803     8.0217    32.6787   136.7279

   temp. (K)  partition function   enthalpy   heat capacity  entropy
                                   cal/mol     cal/K/mol   cal/K/mol   J/K/mol
  10.00  VIB   1.00                    0.000      0.000     -0.034
         ROT   5.52                   29.809      2.981      6.375
         INT   5.52                   29.809      2.981      6.341
         TR   0.210E+25               49.681      4.968     20.778
         TOT                          79.4905     7.9492    27.1192   113.4669

       T/K    H(0)-H(T)+PV         H(T)/Eh          T*S/Eh         G(T)/Eh
   ------------------------------------------------------------------------
    298.15    0.550105E-02    0.191775E-01    0.289749E-01   -0.979739E-02
    120.00    0.182629E-02    0.155027E-01    0.944666E-02    0.605606E-02
    100.00    0.146548E-02    0.151419E-01    0.754479E-02    0.759711E-02
     80.00    0.112531E-02    0.148017E-01    0.573358E-02    0.906815E-02
     60.00    0.809520E-03    0.144859E-01    0.402880E-02    0.104571E-01
     40.00    0.519348E-03    0.141958E-01    0.245125E-02    0.117445E-01
     20.00    0.253670E-03    0.139301E-01    0.104154E-02    0.128886E-01
     10.00    0.126676E-03    0.138031E-01    0.432172E-03    0.133709E-01 (used)
   ------------------------------------------------------------------------

         :::::::::::::::::::::::::::::::::::::::::::::::::::::
         ::                  THERMODYNAMIC                  ::
         :::::::::::::::::::::::::::::::::::::::::::::::::::::
         :: total free energy          -9.052844389447 Eh   ::
         ::.................................................::
         :: total energy               -9.066215317197 Eh   ::
         :: zero point energy           0.013676423955 Eh   ::
         :: G(RRHO) w/o ZPVE           -0.000305496204 Eh   ::
         :: G(RRHO) contrib.            0.013370927750 Eh   ::
         :::::::::::::::::::::::::::::::::::::::::::::::::::::

optimized geometry written to: xtbopt.xyz


           -------------------------------------------------
          | TOTAL ENERGY               -9.066215317197 Eh   |
          | TOTAL ENTHALPY             -9.052412217008 Eh   |
          | TOTAL FREE ENERGY          -9.052844389447 Eh   |
          | GRADIENT NORM               0.000724027433 Eh/α |
          | HOMO-LUMO GAP               3.918906176266 eV   |
           -------------------------------------------------

------------------------------------------------------------------------
 * finished run on 2020/05/12 at 11:45:04.753     
------------------------------------------------------------------------
 total:
 * wall-time:     0 d,  0 h,  0 min,  0.146 sec
 *  cpu-time:     0 d,  0 h,  0 min,  0.146 sec
 * ratio c/w:     0.999 speedup
 SCF:
 * wall-time:     0 d,  0 h,  0 min,  0.004 sec
 *  cpu-time:     0 d,  0 h,  0 min,  0.004 sec
 * ratio c/w:     1.000 speedup
 ANC optimizer:
 * wall-time:     0 d,  0 h,  0 min,  0.071 sec
 *  cpu-time:     0 d,  0 h,  0 min,  0.071 sec
 * ratio c/w:     0.999 speedup
 numerical hessian:
 * wall-time:     0 d,  0 h,  0 min,  0.055 sec
 *  cpu-time:     0 d,  0 h,  0 min,  0.055 sec
 * ratio c/w:     0.999 speedup

