$hessian                                                                        
        0.2666503702  -0.0000010455  -0.0000006970  -0.2666503702   0.0000010455
        0.0000006970
       -0.0000010455   0.0004135933   0.0000000000   0.0000010455  -0.0004135933
       -0.0000000000
       -0.0000006970   0.0000000000   0.0004135933   0.0000006970  -0.0000000000
       -0.0004135933
       -0.2666503702   0.0000010455   0.0000006970   0.2666503702  -0.0000010455
       -0.0000006970
        0.0000010455  -0.0004135933  -0.0000000000  -0.0000010455   0.0004135933
        0.0000000000
        0.0000006970  -0.0000000000  -0.0004135933  -0.0000006970   0.0000000000
        0.0004135933
