[Molden Format]
[Title]
[Atoms] AU
H      1     1  0.73500458053149E+00 -0.38484749842894E-05 -0.25656499895484E-05
H      2     1 -0.73500458053149E+00  0.38484749842894E-05  0.25656499895484E-05
[GTO]
           1 0
 s           3   1.0000000000000000     
   3.3702276975336001       0.27359110588908298     
  0.61389118221497996       0.26460540653860526     
  0.16614291148415999        8.2465947534082318E-002

           2 0
 s           3   1.0000000000000000     
   3.3702276975336001       0.27359110588908298     
  0.61389118221497996       0.26460540653860526     
  0.16614291148415999        8.2465947534082318E-002

[MO]
Sym=     1a
Ene=  -0.46452806029575894     
Spin= Alpha
Occup=     2.00000000
           1 -0.55228759743164912     
           2 -0.55228759743164846     
Sym=     2a
Ene=   0.12509711211652119     
Spin= Alpha
Occup=     0.00000000
           1   1.1772500714795935     
           2  -1.1772500714795937     
