2
 energy: -0.980022323545 gnorm: 0.063111943939 xtb: 6.2.2 (9d81278992624c895f80dd42a50cac0aa55982e2)
H         0.35400000000000    0.00000000000000    0.00000000000000
H        -0.35400000000000    0.00000000000000    0.00000000000000
2
 energy: -0.982608518801 gnorm: 0.009394024023 xtb: 6.2.2 (9d81278992624c895f80dd42a50cac0aa55982e2)
H         0.38207548044508   -0.00000000000000    0.00000000000000
H        -0.38207548044508    0.00000000000000    0.00000000000000
2
 energy: -0.982682579760 gnorm: 0.001977516077 xtb: 6.2.2 (9d81278992624c895f80dd42a50cac0aa55982e2)
H         0.38698438856885   -0.00000000000000    0.00000000000000
H        -0.38698438856885    0.00000000000000    0.00000000000000
2
 energy: -0.982685488593 gnorm: 0.000856620507 xtb: 6.2.2 (9d81278992624c895f80dd42a50cac0aa55982e2)
H         0.38894771002080   -0.00000000000000    0.00000000000000
H        -0.38894771002080    0.00000000000000    0.00000000000000
