      -----------------------------------------------------------      
     |                   =====================                   |     
     |                           x T B                           |     
     |                   =====================                   |     
     |                         S. Grimme                         |     
     |          Mulliken Center for Theoretical Chemistry        |     
     |                    University of Bonn                     |     
      -----------------------------------------------------------      

   * xtb version 6.2.2 (9d81278992624c895f80dd42a50cac0aa55982e2) compiled by '@Darwin' on 04/03/2020

   xtb is free software: you can redistribute it and/or modify it under
   the terms of the GNU Lesser General Public License as published by
   the Free Software Foundation, either version 3 of the License, or
   (at your option) any later version.
   
   xtb is distributed in the hope that it will be useful,
   but WITHOUT ANY WARRANTY; without even the implied warranty of
   MERCHANTABILITY or FITNESS FOR A PARTICULAR PURPOSE.  See the
   GNU Lesser General Public License for more details.
   
   Cite this work as:
   * S. Grimme, C. Bannwarth, P. Shushkov, J. Chem. Theory Comput., 2017,
     13, 1989-2009. DOI: 10.1021/acs.jctc.7b00118
   * C. Bannwarth, S. Ehlert and S. Grimme., J. Chem. Theory Comput., 2019,
     15, 1652-1671. DOI: 10.1021/acs.jctc.8b01176
   * P. Pracht, E. Caldeweyher, S. Ehlert, S. Grimme, ChemRxiv, 2019, preprint.
     DOI: 10.26434/chemrxiv.8326202.v1
   
   for DFT-D4:
   * E. Caldeweyher, C. Bannwarth and S. Grimme, J. Chem. Phys., 2017,
     147, 034112. DOI: 10.1063/1.4993215
   * E. Caldeweyher, S. Ehlert, A. Hansen, H. Neugebauer, S. Spicher,
     C. Bannwarth and S. Grimme, J. Chem. Phys., 2019, 150, 154122.
     DOI: 10.1063/1.5090222
   
   for sTDA-xTB:
   * S. Grimme and C. Bannwarth, J. Chem. Phys., 2016, 145, 054103.
     DOI: 10.1063/1.4959605
   
   in the mass-spec context:
   * V. Asgeirsson, C. Bauer and S. Grimme, Chem. Sci., 2017, 8, 4879.
     DOI: 10.1039/c7sc00601b
   
   for metadynamics refer to:
   * S. Grimme, J. Chem. Theory Comput., 2019, 155, 2847-2862
     DOI: 10.1021/acs.jctc.9b00143
   
   with help from (in alphabetical order)
   C. Bannwarth, F. Bohle, G. Brandenburg, E. Caldeweyher, M. Checinski,
   S. Dohm, S. Ehlert, S. Ehrlich, F. März, H. Neugebauer, J. Pisarek,
   P. Pracht, P. Shushkov, and S. Spicher.
   
 * started run on 2020/05/12 at 14:38:40.928     

           -------------------------------------------------
          |                Calculation Setup                |
           -------------------------------------------------

          program call               : xtb --input C4_5_S_2.input C4_5_S_2.xyz --ohess --molden --namespace C4_5_S_2 output.out
          calculation namespace      : C4_5_S_2
          coordinate file            : C4_5_S_2.xyz
          number of atoms            :                     4
          number of electrons        :                    16
          charge                     :                     0
          spin                       :                   1.0
          first test random number   :      0.57704791267878

   ID    Z sym.   atoms
    1    6 C      1-4

           -------------------------------------------------
          |                 G F N 2 - x T B                 |
           -------------------------------------------------

        Reference                      10.1021/acs.jctc.8b01176
      * Hamiltonian:
        H0-scaling (s, p, d)           1.850000    2.230000    2.230000
        zeta-weighting                 0.500000
      * Dispersion:
        s8                             2.700000
        a1                             0.520000
        a2                             5.000000
        s9                             5.000000
      * Repulsion:
        kExp                           1.500000    1.000000
        rExp                           1.000000
      * Coulomb:
        alpha                          2.000000
        third order                    shell-resolved
        anisotropic                    true
        a3                             3.000000
        a5                             4.000000
        cn-shift                       1.200000
        cn-exp                         4.000000
        max-rad                        5.000000

q/qsh data taken from xtbrestart
CAMM data taken from xtbrestart

          ...................................................
          :                      SETUP                      :
          :.................................................:
          :  # basis functions                  16          :
          :  # atomic orbitals                  16          :
          :  # shells                            8          :
          :  # electrons                        16          :
          :  max. iterations                   250          :
          :  Hamiltonian                  GFN2-xTB          :
          :  restarted?                       true          :
          :  GBSA solvation                  false          :
          :  PC potential                    false          :
          :  electronic temp.          300.0000000     K    :
          :  accuracy                    1.0000000          :
          :  -> integral cutoff          0.2500000E+02      :
          :  -> integral neglect         0.1000000E-07      :
          :  -> SCF convergence          0.1000000E-05 Eh   :
          :  -> wf. convergence          0.1000000E-03 e    :
          :  Broyden damping             0.4000000          :
          ...................................................

 iter      E             dE          RMSdq      gap      omega  full diag
   1     -7.9764977 -0.797650E+01  0.913E+00    0.05       0.0  T
   2     -7.2993361  0.677162E+00  0.122E+01    0.39       1.0  T
   3     -7.5964853 -0.297149E+00  0.932E+00    0.18       1.0  T
   4     -7.8337962 -0.237311E+00  0.640E+00    0.03       1.0  T
   5     -7.5992920  0.234504E+00  0.933E+00    0.22       1.0  T
   6     -8.0121868 -0.412895E+00  0.361E+00    0.01       1.0  T
   7     -7.8524457  0.159741E+00  0.644E+00    0.04       1.0  T
   8     -8.0280042 -0.175558E+00  0.248E+00    0.00       1.0  T
   9     -8.0318583 -0.385412E-02  0.210E+00    0.00       1.0  T
  10     -8.0299090  0.194930E-02  0.199E+00    0.02       1.0  T
  11     -8.0363458 -0.643675E-02  0.131E+00    0.02       1.0  T
  12     -8.0391192 -0.277343E-02  0.108E+00    0.02       1.0  T
  13     -8.0429846 -0.386543E-02  0.571E-01    0.02       1.0  T
  14     -8.0429171  0.674943E-04  0.541E-01    0.03       1.0  T
  15     -8.0433663 -0.449144E-03  0.406E-01    0.02       1.0  T
  16     -8.0435852 -0.218966E-03  0.330E-01    0.02       1.0  T
  17     -8.0438306 -0.245372E-03  0.230E-01    0.02       1.0  T
  18     -8.0440545 -0.223891E-03  0.505E-02    0.02       1.0  T
  19     -8.0440588 -0.434021E-05  0.263E-02    0.02       1.9  T
  20     -8.0440593 -0.473183E-06  0.106E-02    0.02       4.7  T
  21     -8.0440577  0.166062E-05  0.200E-02    0.02       2.5  T
  22     -8.0440596 -0.195272E-05  0.290E-03    0.02      17.3  T
  23     -8.0440596 -0.124726E-07  0.146E-03    0.02      34.2  T
  24     -8.0440596 -0.784770E-09  0.125E-03    0.02      40.0  T
  25     -8.0440596 -0.657637E-08  0.432E-04    0.02     115.6  T
  26     -8.0440596 -0.749361E-09  0.177E-04    0.02     282.1  T

   *** convergence criteria satisfied after 26 iterations ***

         #    Occupation            Energy/Eh            Energy/eV
      -------------------------------------------------------------
         1        2.0000           -0.7502066             -20.4142
       ...           ...                  ...                  ...
         3        2.0000           -0.6069179             -16.5151
         4        2.0000           -0.6069155             -16.5150
         5        1.9575           -0.4496187             -12.2347
         6        1.9574           -0.4496163             -12.2347
         7        1.9574           -0.4496150             -12.2346
         8        0.7873           -0.4438749             -12.0785
         9        0.7861           -0.4438702             -12.0783 (HOMO)
        10        0.5543           -0.4430263             -12.0554 (LUMO)
        11                         -0.1305769              -3.5532
        12                         -0.1305737              -3.5531
        13                         -0.1305678              -3.5529
        14                          0.1610017               4.3811
       ...                                ...                  ...
        16                          0.1610226               4.3816
      -------------------------------------------------------------
                  HL-Gap            0.0008438 Eh            0.0230 eV
             Fermi-level           -0.4447706 Eh          -12.1028 eV

 transition dipole moment (au) for excitation:           8           9
     X       Y       Z   
   0.0000  -0.0000  -0.0000  total (au/Debye):    0.000   0.000
 dE (eV)             :    0.000
 oscillator strength :  0.92867E-15

 SCC (total)                   0 d,  0 h,  0 min,  0.004 sec
 SCC setup                      ...        0 min,  0.000 sec (  1.336%)
 Dispersion                     ...        0 min,  0.000 sec (  0.295%)
 integral evaluation            ...        0 min,  0.001 sec ( 18.385%)
 zeroth order Hamiltonian       ...        0 min,  0.000 sec (  0.274%)
 iterations                     ...        0 min,  0.002 sec ( 39.973%)
 molecular gradient             ...        0 min,  0.001 sec ( 19.313%)
 printout                       ...        0 min,  0.001 sec ( 20.279%)

         :::::::::::::::::::::::::::::::::::::::::::::::::::::
         ::                     SUMMARY                     ::
         :::::::::::::::::::::::::::::::::::::::::::::::::::::
         :: total energy              -7.954462640260 Eh    ::
         :: gradient norm              0.032981580024 Eh/a0 ::
         :: HOMO-LUMO gap              0.022962052673 eV    ::
         ::.................................................::
         :: SCC energy                -8.044059626701 Eh    ::
         :: -> isotropic ES           -0.008333836877 Eh    ::
         :: -> anisotropic ES          0.002195467512 Eh    ::
         :: -> anisotropic XC         -0.000625294690 Eh    ::
         :: -> dispersion             -0.001708604579 Eh    ::
         :: repulsion energy           0.089596980714 Eh    ::
         :: add. restraining           0.000000000000 Eh    ::
         :::::::::::::::::::::::::::::::::::::::::::::::::::::

      ----------------------------------------------------------- 
     |                   =====================                   |
     |                        A N C O P T                        |
     |                   =====================                   |
     |               Approximate Normal Coordinate               |
     |                Rational Function Optimizer                |
      ----------------------------------------------------------- 

          ...................................................
          :                      SETUP                      :
          :.................................................:
          :   optimization level            normal          :
          :   max. optcycles                   200          :
          :   ANC micro-cycles                  20          :
          :   degrees of freedom                 6          :
          :.................................................:
          :   RF solver                   davidson          :
          :   write xtbopt.log                true          :
          :   linear?                        false          :
          :   energy convergence         0.5000000E-05 Eh   :
          :   grad. convergence          0.1000000E-02 Eh/α :
          :   maximium RF displ.         1.0000000          :
          :   Hlow (freq-cutoff)         0.1000000E-01      :
          :   Hmax (freq-cutoff)         5.0000000          :
          :   S6 in model hess.         20.0000000          :
          ...................................................

generating ANC from model Hessian ...
Using Lindh-Hessian (1995)
 Shifting diagonal of input Hessian by    0.0000000000000000     
 Lowest  eigenvalues of input Hessian
   -0.000000   -0.000000   -0.000000   -0.000000    0.000000    0.000000
    0.519205    0.519231    0.945802    0.945827    0.945840    1.623319
 Highest eigenvalues
    0.519205    0.519231    0.945802    0.945827    0.945840    1.623319


........................................................................
.............................. CYCLE    1 ..............................
........................................................................
   1     -8.0440596 -0.804406E+01  0.722E-05    0.02       0.0  T
   2     -8.0440596  0.525880E-08  0.962E-04    0.02      52.0  T
   3     -8.0440596 -0.526291E-08  0.617E-05    0.02     810.1  T
     SCC iter.                  ...        0 min,  0.001 sec
     gradient                   ...        0 min,  0.001 sec
 * total energy  :    -7.9544626 Eh     change       -0.1143361E-09 Eh
   gradient norm :     0.0329816 Eh/α   predicted     0.0000000E+00 (-100.00%)
   displ. norm   :     0.0203128 α      lambda       -0.6698823E-03
   maximum displ.:     0.0203086 α      in ANC's #6, #1, #2, ...

........................................................................
.............................. CYCLE    2 ..............................
........................................................................
   1     -8.0394826 -0.803948E+01  0.354E-01    0.01       0.0  T
   2     -8.0394860 -0.339184E-05  0.194E-01    0.01       1.0  T
   3     -8.0394758  0.101436E-04  0.603E-02    0.01       1.0  T
   4     -8.0389057  0.570118E-03  0.320E-01    0.01       1.0  T
   5     -8.0394879 -0.582144E-03  0.113E-02    0.01       4.4  T
   6     -8.0394446  0.432992E-04  0.877E-02    0.01       1.0  T
   7     -8.0394882 -0.436559E-04  0.285E-03    0.01      17.5  T
   8     -8.0394872  0.101082E-05  0.134E-02    0.01       3.7  T
   9     -8.0394882 -0.102352E-05  0.752E-04    0.01      66.5  T
  10     -8.0394882 -0.245553E-08  0.145E-04    0.01     346.0  T
  11     -8.0394882 -0.732161E-10  0.564E-05    0.01     887.1  T
     SCC iter.                  ...        0 min,  0.001 sec
     gradient                   ...        0 min,  0.001 sec
 * total energy  :    -7.9549693 Eh     change       -0.5066239E-03 Eh
   gradient norm :     0.0172273 Eh/α   predicted    -0.3350808E-03 ( -33.86%)
   displ. norm   :     0.0256528 α      lambda       -0.4256092E-03
   maximum displ.:     0.0233433 α      in ANC's #6, #1, #2, ...

........................................................................
.............................. CYCLE    3 ..............................
........................................................................
   1     -8.0344300 -0.803443E+01  0.148E+00    0.04       0.0  T
   2     -8.0345130 -0.829870E-04  0.642E-01    0.04       1.0  T
   3     -8.0344893  0.236573E-04  0.233E-01    0.04       1.0  T
   4     -8.0115974  0.228919E-01  0.200E+00    0.04       1.0  T
   5     -8.0344902 -0.228928E-01  0.835E-02    0.04       1.0  T
   6     -8.0343783  0.111914E-03  0.162E-01    0.04       1.0  T
   7     -8.0345085 -0.130243E-03  0.568E-02    0.04       1.0  T
   8     -8.0345232 -0.146548E-04  0.265E-02    0.04       1.9  T
   9     -8.0345269 -0.377432E-05  0.452E-03    0.04      11.1  T
  10     -8.0345270 -0.870529E-07  0.123E-03    0.04      40.6  T
  11     -8.0345270 -0.332798E-08  0.396E-04    0.04     126.2  T
  12     -8.0345270 -0.399133E-09  0.196E-04    0.04     255.6  T
     SCC iter.                  ...        0 min,  0.002 sec
     gradient                   ...        0 min,  0.001 sec
 * total energy  :    -7.9554952 Eh     change       -0.5259673E-03 Eh
   gradient norm :     0.0578735 Eh/α   predicted    -0.2129436E-03 ( -59.51%)
   displ. norm   :     0.1117305 α      lambda       -0.6373022E-02
   maximum displ.:     0.0986553 α      in ANC's #1, #2, #6, ...

........................................................................
.............................. CYCLE    4 ..............................
........................................................................
   1     -8.0490337 -0.804903E+01  0.407E+00    0.46       0.0  T
   2     -8.0492967 -0.262993E-03  0.236E+00    0.46       1.0  T
   3     -8.0493761 -0.793537E-04  0.469E-01    0.46       1.0  T
   4     -8.0314333  0.179428E-01  0.181E+00    0.46       1.0  T
   5     -8.0493878 -0.179546E-01  0.166E-01    0.46       1.0  T
   6     -8.0483571  0.103070E-02  0.475E-01    0.46       1.0  T
   7     -8.0494314 -0.107421E-02  0.258E-02    0.46       1.9  T
   8     -8.0494071  0.242717E-04  0.652E-02    0.46       1.0  T
   9     -8.0494312 -0.240682E-04  0.130E-02    0.46       3.8  T
  10     -8.0494316 -0.482355E-06  0.160E-03    0.46      31.3  T
  11     -8.0494316 -0.283650E-08  0.245E-04    0.46     204.5  T
  12     -8.0494316  0.996074E-10  0.206E-04    0.46     243.1  T
     SCC iter.                  ...        0 min,  0.001 sec
     gradient                   ...        0 min,  0.001 sec
 * total energy  :    -7.9734351 Eh     change       -0.1793984E-01 Eh
   gradient norm :     0.2164110 Eh/α   predicted    -0.3226290E-02 ( -82.02%)
   displ. norm   :     0.3417343 α      lambda       -0.7217525E-01
   maximum displ.:     0.2748322 α      in ANC's #1, #2, #6, ...

........................................................................
.............................. CYCLE    5 ..............................
........................................................................
   1     -8.1218955 -0.812190E+01  0.329E+00    1.49       0.0  T
   2     -8.1219499 -0.544274E-04  0.187E+00    1.48       1.0  T
   3     -8.1219745 -0.245856E-04  0.508E-02    1.47       1.0  T
   4     -8.1219188  0.556988E-04  0.116E-01    1.47       1.0  T
   5     -8.1219735 -0.547745E-04  0.212E-02    1.47       2.4  T
   6     -8.1219650  0.856060E-05  0.442E-02    1.47       1.1  T
   7     -8.1219753 -0.103404E-04  0.192E-03    1.47      26.1  T
   8     -8.1219753  0.683321E-08  0.191E-03    1.47      26.2  T
   9     -8.1219753 -0.191242E-07  0.167E-04    1.47     299.1  T
  10     -8.1219753 -0.241087E-10  0.452E-05    1.47    1106.2  T
     SCC iter.                  ...        0 min,  0.001 sec
     gradient                   ...        0 min,  0.001 sec
 * total energy  :    -8.0338992 Eh     change       -0.6046415E-01 Eh
   gradient norm :     0.1530300 Eh/α   predicted    -0.4030201E-01 ( -33.35%)
   displ. norm   :     0.5124188 α      lambda       -0.7648113E-01
   maximum displ.:     0.3932094 α      in ANC's #1, #2, #6, ...

........................................................................
.............................. CYCLE    6 ..............................
........................................................................
   1     -8.2421286 -0.824213E+01  0.542E+00    3.18       0.0  T
   2     -8.2422658 -0.137205E-03  0.310E+00    3.17       1.0  T
   3     -8.2423329 -0.671207E-04  0.776E-02    3.15       1.0  T
   4     -8.2423283  0.461318E-05  0.359E-02    3.15       1.4  T
   5     -8.2423203  0.804924E-05  0.488E-02    3.15       1.0  T
   6     -8.2423333 -0.130018E-04  0.373E-03    3.15      13.4  T
   7     -8.2423333  0.229067E-08  0.861E-04    3.15      58.1  T
   8     -8.2423333 -0.143627E-08  0.676E-04    3.15      74.0  T
     SCC iter.                  ...        0 min,  0.001 sec
     gradient                   ...        0 min,  0.002 sec
 * total energy  :    -8.0700454 Eh     change       -0.3614614E-01 Eh
   gradient norm :     0.1388838 Eh/α   predicted    -0.4828151E-01 (  33.57%)
   displ. norm   :     0.2032179 α      lambda       -0.2182312E-01
   maximum displ.:     0.1737033 α      in ANC's #1, #6, #2, ...

........................................................................
.............................. CYCLE    7 ..............................
........................................................................
   1     -8.2074735 -0.820747E+01  0.126E+00    3.35       0.0  T
   2     -8.2075112 -0.376628E-04  0.770E-01    3.36       1.0  T
   3     -8.2075343 -0.231424E-04  0.182E-01    3.37       1.0  T
   4     -8.2072986  0.235720E-03  0.255E-01    3.37       1.0  T
   5     -8.2075360 -0.237442E-03  0.274E-02    3.37       1.8  T
   6     -8.2075357  0.299631E-06  0.118E-02    3.37       4.2  T
   7     -8.2075364 -0.631097E-06  0.385E-03    3.37      13.0  T
   8     -8.2075363  0.382825E-07  0.292E-03    3.37      17.1  T
   9     -8.2075364 -0.620875E-07  0.139E-04    3.37     359.7  T
  10     -8.2075364 -0.221103E-10  0.657E-05    3.37     761.3  T
     SCC iter.                  ...        0 min,  0.001 sec
     gradient                   ...        0 min,  0.001 sec
 * total energy  :    -8.0820419 Eh     change       -0.1199652E-01 Eh
   gradient norm :     0.0557203 Eh/α   predicted    -0.1136218E-01 (  -5.29%)
   displ. norm   :     0.2218978 α      lambda       -0.9710386E-02
   maximum displ.:     0.2171113 α      in ANC's #1, #2, #6, ...

........................................................................
.............................. CYCLE    8 ..............................
........................................................................
   1     -8.2060296 -0.820603E+01  0.240E+00    3.01       0.0  T
   2     -8.2060553 -0.257432E-04  0.143E+00    3.01       1.0  T
   3     -8.2060701 -0.147089E-04  0.749E-02    3.01       1.0  T
   4     -8.2060537  0.163221E-04  0.517E-02    3.01       1.0  T
   5     -8.2060683 -0.145176E-04  0.192E-02    3.01       2.6  T
   6     -8.2060704 -0.219491E-05  0.266E-03    3.01      18.8  T
   7     -8.2060703  0.189205E-06  0.523E-03    3.01       9.6  T
   8     -8.2060705 -0.206996E-06  0.521E-04    3.01      96.1  T
   9     -8.2060705 -0.139007E-08  0.951E-05    3.01     525.7  T
     SCC iter.                  ...        0 min,  0.000 sec
     gradient                   ...        0 min,  0.001 sec
 * total energy  :    -8.0970919 Eh     change       -0.1505006E-01 Eh
   gradient norm :     0.1165090 Eh/α   predicted    -0.5094261E-02 ( -66.15%)
   displ. norm   :     0.2356782 α      lambda       -0.2251594E-01
   maximum displ.:     0.1724949 α      in ANC's #1, #2, #6, ...

........................................................................
.............................. CYCLE    9 ..............................
........................................................................
   1     -8.2075565 -0.820756E+01  0.245E+00    2.62       0.0  T
   2     -8.2075874 -0.309171E-04  0.139E+00    2.62       1.0  T
   3     -8.2076017 -0.143544E-04  0.380E-02    2.63       1.3  T
   4     -8.2075963  0.544432E-05  0.286E-02    2.63       1.7  T
   5     -8.2075998 -0.346642E-05  0.174E-02    2.63       2.9  T
   6     -8.2076019 -0.213204E-05  0.779E-04    2.63      64.2  T
   7     -8.2076019  0.169527E-07  0.150E-03    2.63      33.2  T
   8     -8.2076019 -0.174999E-07  0.566E-05    2.63     883.1  T
   9     -8.2076019 -0.298250E-11  0.356E-05    2.63    1403.3  T
     SCC iter.                  ...        0 min,  0.000 sec
     gradient                   ...        0 min,  0.001 sec
 * total energy  :    -8.1127111 Eh     change       -0.1561920E-01 Eh
   gradient norm :     0.1065433 Eh/α   predicted    -0.1188328E-01 ( -23.92%)
   displ. norm   :     0.2492162 α      lambda       -0.1935722E-01
   maximum displ.:     0.2125050 α      in ANC's #2, #6, #1, ...

........................................................................
.............................. CYCLE   10 ..............................
........................................................................
   1     -8.2507105 -0.825071E+01  0.314E+00    2.79       0.0  T
   2     -8.2507713 -0.608132E-04  0.179E+00    2.78       1.0  T
   3     -8.2508018 -0.305508E-04  0.724E-02    2.76       1.0  T
   4     -8.2507951  0.672930E-05  0.333E-02    2.76       1.5  T
   5     -8.2507941  0.103575E-05  0.333E-02    2.76       1.5  T
   6     -8.2508022 -0.812871E-05  0.254E-03    2.76      19.7  T
   7     -8.2508022  0.372267E-07  0.232E-03    2.76      21.6  T
   8     -8.2508022 -0.381772E-07  0.101E-04    2.76     495.2  T
   9     -8.2508022 -0.404956E-10  0.428E-05    2.76    1167.3  T
     SCC iter.                  ...        0 min,  0.001 sec
     gradient                   ...        0 min,  0.001 sec
 * total energy  :    -8.1193266 Eh     change       -0.6615511E-02 Eh
   gradient norm :     0.0479826 Eh/α   predicted    -0.1027973E-01 (  55.39%)
   displ. norm   :     0.1202336 α      lambda       -0.5565158E-02
   maximum displ.:     0.1019230 α      in ANC's #2, #1, #6, ...

........................................................................
.............................. CYCLE   11 ..............................
........................................................................
   1     -8.2383691 -0.823837E+01  0.140E+00    2.61       0.0  T
   2     -8.2383807 -0.115699E-04  0.796E-01    2.61       1.0  T
   3     -8.2383864 -0.569810E-05  0.292E-02    2.61       1.7  T
   4     -8.2383864  0.205593E-08  0.463E-03    2.61      10.8  T
   5     -8.2383862  0.225333E-06  0.595E-03    2.61       8.4  T
   6     -8.2383864 -0.255326E-06  0.106E-03    2.61      47.4  T
   7     -8.2383864 -0.104033E-08  0.695E-05    2.61     719.9  T
   8     -8.2383864  0.294875E-12  0.615E-05    2.61     813.4  T
     SCC iter.                  ...        0 min,  0.001 sec
     gradient                   ...        0 min,  0.001 sec
 * total energy  :    -8.1217924 Eh     change       -0.2465705E-02 Eh
   gradient norm :     0.0315607 Eh/α   predicted    -0.2822806E-02 (  14.48%)
   displ. norm   :     0.0299450 α      lambda       -0.6919432E-03
   maximum displ.:     0.0213193 α      in ANC's #6, #1, #2, ...

........................................................................
.............................. CYCLE   12 ..............................
........................................................................
   1     -8.2438151 -0.824382E+01  0.160E-01    2.55       0.0  T
   2     -8.2438154 -0.243715E-06  0.944E-02    2.55       1.0  T
   3     -8.2438155 -0.146299E-06  0.575E-03    2.55       8.7  T
   4     -8.2438152  0.268085E-06  0.610E-03    2.55       8.2  T
   5     -8.2438155 -0.273132E-06  0.584E-04    2.55      85.7  T
   6     -8.2438155 -0.171903E-08  0.157E-04    2.55     317.6  T
     SCC iter.                  ...        0 min,  0.001 sec
     gradient                   ...        0 min,  0.001 sec
 * total energy  :    -8.1223100 Eh     change       -0.5176864E-03 Eh
   gradient norm :     0.0158377 Eh/α   predicted    -0.3462816E-03 ( -33.11%)
   displ. norm   :     0.0285879 α      lambda       -0.3472855E-03
   maximum displ.:     0.0208101 α      in ANC's #6, #1, #2, ...

........................................................................
.............................. CYCLE   13 ..............................
........................................................................
   1     -8.2490249 -0.824902E+01  0.184E-01    2.51       0.0  T
   2     -8.2490252 -0.286599E-06  0.107E-01    2.50       1.0  T
   3     -8.2490254 -0.164299E-06  0.652E-03    2.50       7.7  T
   4     -8.2490251  0.238144E-06  0.579E-03    2.50       8.6  T
   5     -8.2490254 -0.241650E-06  0.812E-04    2.50      61.6  T
   6     -8.2490254 -0.310813E-08  0.260E-04    2.50     192.4  T
     SCC iter.                  ...        0 min,  0.000 sec
     gradient                   ...        0 min,  0.001 sec
 * total energy  :    -8.1224837 Eh     change       -0.1736335E-03 Eh
   gradient norm :     0.0005076 Eh/α   predicted    -0.1737843E-03 (   0.09%)
   displ. norm   :     0.0027915 α      lambda       -0.6767741E-06
   maximum displ.:     0.0027028 α      in ANC's #1, #2, #6, ...

........................................................................
.............................. CYCLE   14 ..............................
........................................................................
   1     -8.2488047 -0.824880E+01  0.145E-02    2.49       0.0  T
   2     -8.2488047 -0.138173E-08  0.850E-03    2.49       5.9  T
   3     -8.2488047  0.804494E-10  0.519E-04    2.49      96.4  T
   4     -8.2488047  0.117712E-08  0.592E-04    2.49      84.5  T
     SCC iter.                  ...        0 min,  0.000 sec
     gradient                   ...        0 min,  0.001 sec
 * total energy  :    -8.1224839 Eh     change       -0.2707441E-06 Eh
   gradient norm :     0.0002422 Eh/α   predicted    -0.3366228E-06 (  24.33%)
   displ. norm   :     0.0008753 α      lambda       -0.9807149E-07
   maximum displ.:     0.0008649 α      in ANC's #1, #2, #6, ...

   *** GEOMETRY OPTIMIZATION CONVERGED AFTER 14 ITERATIONS ***

------------------------------------------------------------------------
 total energy gain   :        -0.1680213 Eh     -105.4350 kcal/mol
 total RMSD          :         0.7444870 a0        0.3940 Å
 total power (kW/mol):       -31.5099908 (step)********** (real)
------------------------------------------------------------------------

 ANCopt (total)                0 d,  0 h,  0 min,  0.038 sec
 optimizer setup                ...        0 min,  0.000 sec (  0.492%)
 model hessian                  ...        0 min,  0.000 sec (  0.155%)
 ANC generation                 ...        0 min,  0.000 sec (  0.101%)
 coordinate transformation      ...        0 min,  0.000 sec (  0.072%)
 single point calculation       ...        0 min,  0.036 sec ( 95.579%)
 optimization log               ...        0 min,  0.001 sec (  1.428%)
 hessian update                 ...        0 min,  0.000 sec (  0.072%)
 rational function              ...        0 min,  0.000 sec (  0.724%)

================
 final structure:
================
4
 xtb: 6.2.2 (9d81278992624c895f80dd42a50cac0aa55982e2)
C        -0.20538790104534    0.56022478463666    0.76782610816037
C        -0.16474719262134   -0.65222898085924   -0.70217615495730
C        -0.09250580063316    0.74551161830602   -0.61745558308567
C         0.46264089429985   -0.65350742208343    0.55180462988260

 Bond Distances (Angstroems)
 ---------------------------
C1-C2=1.9059         C1-C3=1.4022         C1-C4=1.4022         C2-C1=1.9059         C2-C3=1.4022         C2-C4=1.4022         
C3-C1=1.4022         C3-C2=1.4022         C3-C4=1.9059         C4-C1=1.4022         C4-C2=1.4022         C4-C3=1.9059         
 C  C  Rav=1.5701 sigma=0.2375  Rmin=1.4022  Rmax=1.9059     6

 selected bond angles (degree)
 --------------------
C3-C1-C2= 47.18                C4-C1-C2= 47.18                C4-C1-C3= 85.63                C3-C2-C1= 47.18                
C4-C2-C1= 47.18                C4-C2-C3= 85.63                C2-C3-C1= 85.63                C4-C3-C1= 47.18                
C4-C3-C2= 47.18                C2-C4-C1= 85.63                C3-C4-C1= 47.18                C3-C4-C2= 47.18                

 selected dihedral angles (degree)
 ---------------------------------
C2-C3-C1-C4= 30.86            C4-C3-C1-C2=329.14            C1-C3-C2-C4=329.14            C4-C3-C2-C1= 30.86            
C2-C4-C1-C3=329.14            C3-C4-C1-C2= 30.86            C1-C4-C2-C3= 30.86            C3-C4-C2-C1=329.14            
           -------------------------------------------------
          |                Final Singlepoint                |
           -------------------------------------------------

          ...................................................
          :                      SETUP                      :
          :.................................................:
          :  # basis functions                  16          :
          :  # atomic orbitals                  16          :
          :  # shells                            8          :
          :  # electrons                        16          :
          :  max. iterations                   250          :
          :  Hamiltonian                  GFN2-xTB          :
          :  restarted?                      false          :
          :  GBSA solvation                  false          :
          :  PC potential                    false          :
          :  electronic temp.          300.0000000     K    :
          :  accuracy                    1.0000000          :
          :  -> integral cutoff          0.2500000E+02      :
          :  -> integral neglect         0.1000000E-07      :
          :  -> SCF convergence          0.1000000E-05 Eh   :
          :  -> wf. convergence          0.1000000E-03 e    :
          :  Broyden damping             0.4000000          :
          ...................................................

 iter      E             dE          RMSdq      gap      omega  full diag
   1     -8.2488047 -0.824880E+01  0.300E-04    2.49       0.0  T
   2     -8.2488047  0.841244E-09  0.360E-04    2.49     138.9  T
   3     -8.2488047 -0.738263E-09  0.261E-04    2.49     191.3  T

   *** convergence criteria satisfied after 3 iterations ***

         #    Occupation            Energy/Eh            Energy/eV
      -------------------------------------------------------------
         1        2.0000           -0.7392965             -20.1173
       ...           ...                  ...                  ...
         3        2.0000           -0.6283255             -17.0976
         4        2.0000           -0.5530872             -15.0503
         5        2.0000           -0.5337374             -14.5237
         6        2.0000           -0.4803514             -13.0710
         7        2.0000           -0.4635489             -12.6138
         8        1.0000           -0.4132375             -11.2448
         9        1.0000           -0.4132371             -11.2448 (HOMO)
        10                         -0.3216121              -8.7515 (LUMO)
        11                         -0.3216117              -8.7515
        12                         -0.2357927              -6.4162
        13                          0.1274218               3.4673
        14                          0.1769281               4.8145
       ...                                ...                  ...
        16                          0.5707598              15.5312
      -------------------------------------------------------------
                  HL-Gap            0.0916250 Eh            2.4932 eV
             Fermi-level           -0.4030672 Eh          -10.9680 eV

 transition dipole moment (au) for excitation:           8           9
     X       Y       Z   
   0.5726   0.1423  -0.1016  total (au/Debye):    0.599   1.522
 dE (eV)             :    0.000
 oscillator strength :  0.13090E-06

 SCC (total)                   0 d,  0 h,  0 min,  0.003 sec
 SCC setup                      ...        0 min,  0.000 sec (  2.015%)
 Dispersion                     ...        0 min,  0.000 sec (  0.320%)
 integral evaluation            ...        0 min,  0.001 sec ( 29.073%)
 zeroth order Hamiltonian       ...        0 min,  0.000 sec (  0.413%)
 iterations                     ...        0 min,  0.001 sec ( 19.351%)
 molecular gradient             ...        0 min,  0.001 sec ( 26.518%)
 printout                       ...        0 min,  0.001 sec ( 21.931%)

         :::::::::::::::::::::::::::::::::::::::::::::::::::::
         ::                     SUMMARY                     ::
         :::::::::::::::::::::::::::::::::::::::::::::::::::::
         :: total energy              -8.122483945238 Eh    ::
         :: gradient norm              0.000241328737 Eh/a0 ::
         :: HOMO-LUMO gap              2.493242310600 eV    ::
         ::.................................................::
         :: SCC energy                -8.248804705348 Eh    ::
         :: -> isotropic ES           -0.009296739511 Eh    ::
         :: -> anisotropic ES          0.000501275673 Eh    ::
         :: -> anisotropic XC          0.004858114879 Eh    ::
         :: -> dispersion             -0.001705839676 Eh    ::
         :: repulsion energy           0.126320754684 Eh    ::
         :: add. restraining           0.000000000000 Eh    ::
         :::::::::::::::::::::::::::::::::::::::::::::::::::::

           ------------------------------------------------- 
          |                Numerical Hessian                |
           ------------------------------------------------- 
step length          :   0.00500
SCC accuracy         :   0.30000
Hessian scale factor :   1.00000
frozen atoms in %    :   0.00000    0
RMS gradient         :   0.00024
estimated CPU  time      0.00 min
estimated wall time      0.00 min

writing file <hessian>.

 projected vibrational frequencies (cm-1)
eigval :       -0.00    -0.00     0.00     0.00     0.00     0.00
eigval :      559.73   635.39   914.06  1070.49  1070.51  1459.84
           -------------------------------------------------
          |                Property Printout                |
           -------------------------------------------------

    * Orbital Energies and Occupations

         #    Occupation            Energy/Eh            Energy/eV
      -------------------------------------------------------------
         1        2.0000           -0.7392969             -20.1173
         2        2.0000           -0.6283264             -17.0976
         3        2.0000           -0.6283259             -17.0976
         4        2.0000           -0.5530875             -15.0503
         5        2.0000           -0.5337377             -14.5237
         6        2.0000           -0.4803518             -13.0710
         7        2.0000           -0.4635492             -12.6138
         8        1.0000           -0.4132378             -11.2448
         9        1.0000           -0.4132374             -11.2448 (HOMO)
        10                         -0.3216125              -8.7515 (LUMO)
        11                         -0.3216119              -8.7515
        12                         -0.2357929              -6.4163
        13                          0.1274216               3.4673
        14                          0.1769278               4.8144
        15                          0.1769337               4.8146
        16                          0.5707595              15.5312
      -------------------------------------------------------------
                  HL-Gap            0.0916249 Eh            2.4932 eV
             Fermi-level           -0.4030675 Eh          -10.9680 eV

     #   Z        covCN         q      C6AA      α(0)
     1   6 C      2.638    -0.000    28.014     8.658
     2   6 C      2.638    -0.000    28.014     8.658
     3   6 C      2.638     0.000    28.014     8.658
     4   6 C      2.638     0.000    28.014     8.658

 Mol. C6AA /au·bohr⁶  :        448.218641
 Mol. C8AA /au·bohr⁸  :      12963.261994
 Mol. α(0) /au        :         34.632651


Wiberg/Mayer (AO) data.
largest (>0.10) Wiberg bond orders for each atom
          total WBO             WBO to atom ...
     1  C   2.904        C    4 1.176    C    3 1.176    C    2 0.552
     2  C   2.904        C    3 1.176    C    4 1.176    C    1 0.552
     3  C   2.904        C    2 1.176    C    1 1.176    C    4 0.552
     4  C   2.904        C    1 1.176    C    2 1.176    C    3 0.552

MOs/occ written to file <molden.input>


molecular dipole:
                 x           y           z       tot (Debye)
 q only:        0.000       0.000       0.000
   full:       -0.000       0.000       0.000       0.000
molecular quadrupole (traceless):
                xx          xy          yy          xz          yz          zz
 q only:        0.000      -0.000       0.000      -0.000      -0.000      -0.000
  q+dip:        0.823       0.322      -0.392      -0.230      -0.057      -0.431
   full:        2.218       0.867      -1.056      -0.619      -0.154      -1.162

           -------------------------------------------------
          |                Geometry Summary                 |
           -------------------------------------------------

      molecular mass/u    :       48.0429436
   center of mass at/Å    :       -0.0000000      -0.0000000      -0.0000003
  moments of inertia/u·Å² :        0.2361399E+02   0.2361410E+02   0.4363028E+02
rotational constants/cm⁻¹ :        0.7138832E+00   0.7138799E+00   0.3863746E+00

           -------------------------------------------------
          |               Frequency Printout                |
           -------------------------------------------------
 projected vibrational frequencies (cm-1)
eigval :       -0.00    -0.00     0.00     0.00     0.00     0.00
eigval :      559.73   635.39   914.06  1070.49  1070.51  1459.84
Molecule has the following symmetry elements: 3*(C2) (S4) 2*(sigma) 
It seems to be the D2d point group
 reduced masses (amu)
   1: 12.01   2: 12.01   3: 12.01   4: 12.01   5: 12.01   6: 12.01   7: 12.01   8: 12.01
   9: 12.01  10: 12.01  11: 12.01  12: 12.01
 IR intensities (amu)
   1:  0.00   2:  0.00   3:  0.00   4:  0.00   5:  0.00   6:  0.00   7:  0.00   8:  0.09
   9:  0.00  10:  1.81  11:  1.81  12:  0.00
 Raman intensities (amu)
   1:  0.00   2:  0.00   3:  0.00   4:  0.00   5:  0.00   6:  0.00   7:  0.00   8:  0.00
   9:  0.00  10:  0.00  11:  0.00  12:  0.00
 output can be read by thermo (or use thermo option).
 writing <g98.out> molden fake output.
 recommended (thermochemical) frequency scaling factor: 1.0
           -------------------------------------------------
          |             Thermodynamic Functions             |
           -------------------------------------------------

d2d symmetry found (for desy threshold:  0.10E+00) used in thermo

          ...................................................
          :                      SETUP                      :
          :.................................................:
          :  # frequencies                           6      :
          :  # imaginary freq.                       0      :
          :  linear?                             false      :
          :  only rotor calc.                    false      :
          :  symmetry                              d2d      :
          :  rotational number                       4      :
          :  scaling factor                  1.0000000      :
          :  rotor cutoff                   50.0000000 cm⁻¹ :
          :  imag. cutoff                  -20.0000000 cm⁻¹ :
          :.................................................:

    mode    ω/cm⁻¹     T·S(HO)/kcal·mol⁻¹    T·S(FR)/kcal·mol⁻¹   T·S(vib)
   ------------------------------------------------------------------------
   ------------------------------------------------------------------------

   temp. (K)  partition function   enthalpy   heat capacity  entropy
                                   cal/mol     cal/K/mol   cal/K/mol   J/K/mol
 298.15  VIB   1.15                  274.877      3.256      1.204
         ROT  0.298E+04              888.752      2.981     18.878
         INT  0.343E+04             1163.630      6.237     20.081
         TR   0.322E+27             1481.254      4.968     37.516
         TOT                        2644.8836    11.2050    57.5971   240.9863

   temp. (K)  partition function   enthalpy   heat capacity  entropy
                                   cal/mol     cal/K/mol   cal/K/mol   J/K/mol
 120.00  VIB   1.00                    2.906      0.172      0.028
         ROT   761.                  357.707      2.981     16.165
         INT   762.                  360.613      3.153     16.192
         TR   0.823E+26              596.178      4.968     32.997
         TOT                         956.7906     8.1209    49.1888   205.8060

   temp. (K)  partition function   enthalpy   heat capacity  entropy
                                   cal/mol     cal/K/mol   cal/K/mol   J/K/mol
 100.00  VIB   1.00                    0.710      0.060      0.008
         ROT   579.                  298.089      2.981     15.621
         INT   579.                  298.799      3.041     15.629
         TR   0.626E+26              496.815      4.968     32.091
         TOT                         795.6141     8.0087    47.7202   199.6615

   temp. (K)  partition function   enthalpy   heat capacity  entropy
                                   cal/mol     cal/K/mol   cal/K/mol   J/K/mol
  80.00  VIB   1.00                    0.088      0.011      0.001
         ROT   414.                  238.471      2.981     14.956
         INT   414.                  238.559      2.992     14.957
         TR   0.448E+26              397.452      4.968     30.983
         TOT                         636.0112     7.9605    45.9402   192.2139

   temp. (K)  partition function   enthalpy   heat capacity  entropy
                                   cal/mol     cal/K/mol   cal/K/mol   J/K/mol
  60.00  VIB   1.00                    0.003      0.001     -0.000
         ROT   269.                  178.853      2.981     14.098
         INT   269.                  178.856      2.982     14.098
         TR   0.291E+26              298.089      4.968     29.555
         TOT                         476.9452     7.9497    43.6529   182.6439

   temp. (K)  partition function   enthalpy   heat capacity  entropy
                                   cal/mol     cal/K/mol   cal/K/mol   J/K/mol
  40.00  VIB   1.00                    0.000      0.000     -0.000
         ROT   146.                  119.236      2.981     12.890
         INT   146.                  119.236      2.981     12.890
         TR   0.158E+26              198.726      4.968     27.541
         TOT                         317.9616     7.9490    40.4308   169.1623

   temp. (K)  partition function   enthalpy   heat capacity  entropy
                                   cal/mol     cal/K/mol   cal/K/mol   J/K/mol
  20.00  VIB   1.00                    0.000      0.000     -0.000
         ROT   51.8                   59.618      2.981     10.824
         INT   51.8                   59.618      2.981     10.823
         TR   0.560E+25               99.363      4.968     24.099
         TOT                         158.9808     7.9490    34.9225   146.1158

   temp. (K)  partition function   enthalpy   heat capacity  entropy
                                   cal/mol     cal/K/mol   cal/K/mol   J/K/mol
  10.00  VIB   1.00                    0.000      0.000     -0.000
         ROT   18.3                   29.809      2.981      8.757
         INT   18.3                   29.809      2.981      8.757
         TR   0.198E+25               49.681      4.968     20.657
         TOT                          79.4904     7.9490    29.4143   123.0692

       T/K    H(0)-H(T)+PV         H(T)/Eh          T*S/Eh         G(T)/Eh
   ------------------------------------------------------------------------
    298.15    0.421489E-02    0.172233E-01    0.273662E-01   -0.101430E-01
    120.00    0.152474E-02    0.145331E-01    0.940648E-02    0.512665E-02
    100.00    0.126789E-02    0.142763E-01    0.760470E-02    0.667157E-02
     80.00    0.101355E-02    0.140219E-01    0.585683E-02    0.816510E-02
     60.00    0.760061E-03    0.137684E-01    0.417392E-02    0.959452E-02
     40.00    0.506704E-03    0.135151E-01    0.257722E-02    0.109379E-01
     20.00    0.253352E-03    0.132617E-01    0.111305E-02    0.121487E-01
     10.00    0.126676E-03    0.131351E-01    0.468746E-03    0.126663E-01 (used)
   ------------------------------------------------------------------------

         :::::::::::::::::::::::::::::::::::::::::::::::::::::
         ::                  THERMODYNAMIC                  ::
         :::::::::::::::::::::::::::::::::::::::::::::::::::::
         :: total free energy          -8.109817628708 Eh   ::
         ::.................................................::
         :: total energy               -8.122483945526 Eh   ::
         :: zero point energy           0.013008386801 Eh   ::
         :: G(RRHO) w/o ZPVE           -0.000342069983 Eh   ::
         :: G(RRHO) contrib.            0.012666316818 Eh   ::
         :::::::::::::::::::::::::::::::::::::::::::::::::::::

optimized geometry written to: xtbopt.xyz


           -------------------------------------------------
          | TOTAL ENERGY               -8.122483945526 Eh   |
          | TOTAL ENTHALPY             -8.109348882710 Eh   |
          | TOTAL FREE ENERGY          -8.109817628708 Eh   |
          | GRADIENT NORM               0.000241157580 Eh/α |
          | HOMO-LUMO GAP               2.493239926265 eV   |
           -------------------------------------------------

------------------------------------------------------------------------
 * finished run on 2020/05/12 at 14:38:41.045     
------------------------------------------------------------------------
 total:
 * wall-time:     0 d,  0 h,  0 min,  0.116 sec
 *  cpu-time:     0 d,  0 h,  0 min,  0.114 sec
 * ratio c/w:     0.990 speedup
 SCF:
 * wall-time:     0 d,  0 h,  0 min,  0.005 sec
 *  cpu-time:     0 d,  0 h,  0 min,  0.005 sec
 * ratio c/w:     0.999 speedup
 ANC optimizer:
 * wall-time:     0 d,  0 h,  0 min,  0.041 sec
 *  cpu-time:     0 d,  0 h,  0 min,  0.041 sec
 * ratio c/w:     0.997 speedup
 numerical hessian:
 * wall-time:     0 d,  0 h,  0 min,  0.054 sec
 *  cpu-time:     0 d,  0 h,  0 min,  0.054 sec
 * ratio c/w:     0.993 speedup

