$hessian                                                                        
        1.4933045469  -0.0500096533  -0.1469798617  -1.0928486741   0.0389852844
        0.1058736036  -0.3235587998   0.0090168690   0.0279660378  -0.0360542618
        0.0159787030   0.0091430178  -0.0408428113  -0.0139712031   0.0039972026
       -0.0500096533   0.0842005397   0.0089412569   0.0386820297  -0.0258151740
       -0.0027935300   0.0026240629  -0.0627780687  -0.0063843562   0.0319957694
        0.0014310429  -0.0070982150  -0.0232922087   0.0029616602   0.0073348442
       -0.1469798617   0.0089412569   0.0797160497   0.1072061281  -0.0028737544
       -0.0400475845   0.0604020417  -0.0081960664  -0.0397079844  -0.0048825526
       -0.0001040618  -0.0016149952  -0.0157457555   0.0022326257   0.0016545144
       -1.0928486741   0.0386820297   0.1072061281   1.1477410578  -0.0409243676
       -0.1146196217  -0.0533221621   0.0021118393   0.0073505212  -0.0010355371
       -0.0043184070  -0.0008158434  -0.0005346845   0.0044489056   0.0008788158
        0.0389852844  -0.0258151740  -0.0028737544  -0.0409243676   0.0145662501
        0.0035348807   0.0021822601   0.0102608478  -0.0003318213  -0.0002227802
        0.0005994032   0.0002871191  -0.0000203968   0.0003886729  -0.0006164240
        0.1058736036  -0.0027935300  -0.0400475845  -0.1146196217   0.0035348807
        0.0275661918   0.0068567620  -0.0003084377   0.0099284186   0.0009424069
        0.0001080467   0.0014263615   0.0009468491  -0.0005409597   0.0011266126
       -0.3235587998   0.0026240629   0.0604020417  -0.0533221621   0.0021822601
        0.0068567620   0.5527977788  -0.0101326142   0.0649623275  -0.0763608148
        0.1028754440  -0.0391684278  -0.0995560021  -0.0975491528  -0.0930527033
        0.0090168690  -0.0627780687  -0.0081960664   0.0021118393   0.0102608478
       -0.0003084377  -0.0101326142   0.5862518487   0.0830277711   0.1029763173
       -0.3200182648   0.0775342042  -0.1039724114  -0.2137163631  -0.1520574712
        0.0279660378  -0.0063843562  -0.0397079844   0.0073505212  -0.0003318213
        0.0099284186   0.0649623275   0.0830277711   0.1657695805  -0.0242976325
        0.0456026707  -0.0264649644  -0.0759812539  -0.1219142643  -0.1095250504
       -0.0360542618   0.0319957694  -0.0048825526  -0.0010355371  -0.0002227802
        0.0009424069  -0.0763608148   0.1029763173  -0.0242976325   0.1072474529
       -0.1221219356   0.0262604634   0.0062031608  -0.0126273708   0.0019773148
        0.0159787030   0.0014310429  -0.0001040618  -0.0043184070   0.0005994032
        0.0001080467   0.1028754440  -0.3200182648   0.0456026707  -0.1221219356
        0.3437709587  -0.0521926848   0.0075861957  -0.0257831399   0.0065860293
        0.0091430178  -0.0070982150  -0.0016149952  -0.0008158434   0.0002871191
        0.0014263615  -0.0391684278   0.0775342042  -0.0264649644   0.0262604634
       -0.0521926848   0.0246004826   0.0045807901  -0.0185304235   0.0020531155
       -0.0408428113  -0.0232922087  -0.0157457555  -0.0005346845  -0.0000203968
        0.0009468491  -0.0995560021  -0.1039724114  -0.0759812539   0.0062031608
        0.0075861957   0.0045807901   0.1347303372   0.1196988213   0.0861993702
       -0.0139712031   0.0029616602   0.0022326257   0.0044489056   0.0003886729
       -0.0005409597  -0.0975491528  -0.2137163631  -0.1219142643  -0.0126273708
       -0.0257831399  -0.0185304235   0.1196988213   0.2361491699   0.1387530217
        0.0039972026   0.0073348442   0.0016545144   0.0008788158  -0.0006164240
        0.0011266126  -0.0930527033  -0.1520574712  -0.1095250504   0.0019773148
        0.0065860293   0.0020531155   0.0861993702   0.1387530217   0.1046908078
