5
 energy: -8.887383162943 gnorm: 0.000720637125 xtb: 6.2.2 (9d81278992624c895f80dd42a50cac0aa55982e2)
N         0.73340340840279   -0.04719408528395    0.03031353455351
C         1.88943744036989   -0.08948999546445   -0.08344688964736
N        -0.58409771754602   -0.01767788970026    0.25410762556016
H        -0.97309542354888    0.90146219821270    0.06321915735491
H        -1.06564670767778   -0.74710022776928   -0.26419342782471
