 Entering Gaussian System
 *********************************************
 Gaussian 98:
 frequency output generated by the xtb code
 *********************************************
                         Standard orientation:
 --------------------------------------------------------------------
  Center     Atomic     Atomic              Coordinates (Angstroms)
  Number     Number      Type              X           Y           Z
 --------------------------------------------------------------------
    1          7             0        0.733403   -0.047194    0.030314
    2          6             0        1.889437   -0.089490   -0.083447
    3          7             0       -0.584098   -0.017678    0.254108
    4          1             0       -0.973095    0.901462    0.063219
    5          1             0       -1.065647   -0.747100   -0.264193
 --------------------------------------------------------------------
     1 basis functions        1 primitive gaussians
     1 alpha electrons        1 beta electrons

 Harmonic frequencies (cm**-1), IR intensities (KM/Mole),
 Raman scattering activities (A**4/amu), Raman depolarization ratios,
 reduced masses (AMU), force constants (mDyne/A) and normal coordinates:
                      1                      2                      3
                        a                      a                      a 
 Frequencies --   340.5006               389.3238               812.9572
 Red. masses --    11.9808                12.5610                 4.8701
 Frc consts  --     0.0000                 0.0000                 0.0000
 IR Inten    --     0.0045                 0.1979                 0.8670
 Raman Activ --     0.0000                 0.0000                 0.0000
 Depolar     --     0.0000                 0.0000                 0.0000
 Atom AN      X      Y      Z        X      Y      Z        X      Y      Z
   1   7    -0.04  -0.75  -0.15     0.08  -0.16   0.77    -0.06  -0.03   0.17
   2   6     0.03   0.48   0.10    -0.03   0.10  -0.47    -0.07   0.01  -0.01
   3   7     0.01   0.22   0.04    -0.09   0.05  -0.24     0.23   0.08  -0.45
   4   1     0.20   0.14   0.00     0.07   0.03  -0.18    -0.19   0.01   0.56
   5   1    -0.18   0.15   0.05     0.07   0.03  -0.18    -0.20  -0.21   0.52
                      4                      5                      6
                        a                      a                      a 
 Frequencies --  1082.0515              1146.9191              1472.0613
 Red. masses --    11.8340                 3.2956                 2.0458
 Frc consts  --     0.0000                 0.0000                 0.0000
 IR Inten    --     0.8763                 0.0328                 0.3712
 Raman Activ --     0.0000                 0.0000                 0.0000
 Depolar     --     0.0000                 0.0000                 0.0000
 Atom AN      X      Y      Z        X      Y      Z        X      Y      Z
   1   7    -0.35   0.01   0.03     0.01   0.25   0.05     0.01  -0.01   0.06
   2   6    -0.51   0.02   0.05    -0.00  -0.02  -0.00     0.01   0.00  -0.01
   3   7     0.70  -0.04  -0.01    -0.02  -0.32  -0.06     0.27  -0.02   0.04
   4   1     0.22  -0.01  -0.13     0.60   0.16  -0.15    -0.57  -0.29  -0.23
   5   1     0.22   0.03  -0.12    -0.59   0.15   0.21    -0.53   0.42  -0.09
                      7                      8                      9
                        a                      a                      a 
 Frequencies --  2236.8100              3340.8368              3375.8778
 Red. masses --    13.0735                 1.4313                 2.1345
 Frc consts  --     0.0000                 0.0000                 0.0000
 IR Inten    --     1.0362                 0.0796                 0.0137
 Raman Activ --     0.0000                 0.0000                 0.0000
 Depolar     --     0.0000                 0.0000                 0.0000
 Atom AN      X      Y      Z        X      Y      Z        X      Y      Z
   1   7     0.73  -0.03  -0.07    -0.03   0.00  -0.00    -0.00  -0.00  -0.00
   2   6    -0.67   0.02   0.07     0.01  -0.00  -0.00    -0.00  -0.00  -0.00
   3   7    -0.10   0.01   0.00    -0.14   0.03  -0.11    -0.02  -0.29  -0.06
   4   1    -0.03  -0.02   0.02     0.25  -0.64   0.09    -0.27   0.61  -0.12
   5   1    -0.03   0.01   0.03     0.32   0.53   0.32     0.33   0.48   0.34
