5
 energy: -8.752708112553 gnorm: 0.264468354048 xtb: 6.2.2 (9d81278992624c895f80dd42a50cac0aa55982e2)
N         0.71599500000000   -0.17601200000000    0.68387000000000
C         1.55502300000000    0.01105100000000   -0.49512300000000
N        -0.63419800000000   -0.02683700000000    0.31436200000000
H        -0.77154000000000    0.93089800000000   -0.08571600000000
H        -0.86527900000000   -0.73910000000000   -0.41739300000000
5
 energy: -8.813738798510 gnorm: 0.175318787317 xtb: 6.2.2 (9d81278992624c895f80dd42a50cac0aa55982e2)
N         0.75815351643378   -0.15894894023273    0.58604195856209
C         1.53815572970313   -0.00465441857555   -0.41127907889051
N        -0.62494619803245   -0.02723780772706    0.31376515256378
H        -0.78997366445495    0.90971781611450   -0.08253711419061
H        -0.88138838364950   -0.71887664957916   -0.40599091804474
5
 energy: -8.774615112572 gnorm: 0.942620372106 xtb: 6.2.2 (9d81278992624c895f80dd42a50cac0aa55982e2)
N         0.79582188105618   -0.10522551666842    0.30489680182049
C         1.62841282817482   -0.04385918138018   -0.23939076108988
N        -0.67552061172480   -0.03308496829485    0.35749892739498
H        -0.83034364669338    0.87519711736248   -0.05577066602331
H        -0.91836945081282   -0.69302745101902   -0.36723430210228
5
 energy: -8.868444100983 gnorm: 0.078170099463 xtb: 6.2.2 (9d81278992624c895f80dd42a50cac0aa55982e2)
N         0.74058017674187   -0.09916338864063    0.28998607524641
C         1.76779984706110   -0.04564610705253   -0.26978707672872
N        -0.69340757793883   -0.03129975699899    0.35356554867927
H        -0.86327944108062    0.87561233158681   -0.03046618827364
H        -0.95169200478353   -0.69950307889467   -0.34329835892332
5
 energy: -8.876747678562 gnorm: 0.093964482764 xtb: 6.2.2 (9d81278992624c895f80dd42a50cac0aa55982e2)
N         0.75307454467992   -0.08021055827756    0.19102742918437
C         1.88461865236424   -0.06560790492652   -0.20229445653665
N        -0.66000909904977   -0.02647726106850    0.31984523541959
H        -0.94285325895003    0.90545189251121    0.00843216009479
H        -1.03482983904436   -0.73315616823863   -0.31701036816209
5
 energy: -8.881160122722 gnorm: 0.067946540182 xtb: 6.2.2 (9d81278992624c895f80dd42a50cac0aa55982e2)
N         0.73555573289951   -0.07869573649426    0.18835167883243
C         1.85983284801026   -0.06658080674812   -0.19039070388955
N        -0.60895635726045   -0.02329877050192    0.28941317805452
H        -0.94589679404632    0.92729373034883    0.02374167057945
H        -1.04053442960301   -0.75871841660453   -0.31111582357685
5
 energy: -8.883865044274 gnorm: 0.068455756100 xtb: 6.2.2 (9d81278992624c895f80dd42a50cac0aa55982e2)
N         0.71966871719126   -0.06973555606296    0.14772752574115
C         1.86090642268450   -0.07101144792385   -0.16838690134822
N        -0.60077487862461   -0.02334474463583    0.28733244050446
H        -0.94346484335061    0.90930639984878    0.03096510097013
H        -1.03633441790054   -0.74521465122615   -0.29763816586752
5
 energy: -8.885902169756 gnorm: 0.038684738171 xtb: 6.2.2 (9d81278992624c895f80dd42a50cac0aa55982e2)
N         0.72400003243264   -0.06185424853753    0.10681877762180
C         1.87092545011689   -0.07723510065388   -0.13987971966643
N        -0.59585076465553   -0.02309147764980    0.28466575746477
H        -0.95412652277147    0.89009415359053    0.03487297394627
H        -1.04494719512253   -0.72791332674933   -0.28647778936641
5
 energy: -8.886925750976 gnorm: 0.032243372486 xtb: 6.2.2 (9d81278992624c895f80dd42a50cac0aa55982e2)
N         0.73184488309067   -0.05271698270676    0.05860031867735
C         1.89227906496146   -0.08565531882284   -0.10352577673099
N        -0.58285941712884   -0.02079315758205    0.26942127497845
H        -0.97512229036516    0.89037146565908    0.04878268603413
H        -1.06614124055815   -0.73120600654744   -0.27327850295893
5
 energy: -8.887183372358 gnorm: 0.025015010002 xtb: 6.2.2 (9d81278992624c895f80dd42a50cac0aa55982e2)
N         0.73591583773511   -0.04961441493899    0.04181668350771
C         1.88217445351327   -0.08795494203050   -0.08907412264934
N        -0.58165763192408   -0.01913880788847    0.26075320322157
H        -0.97239883232333    0.89457422083450    0.05535976952829
H        -1.06403282700097   -0.73786605597654   -0.26885553360823
5
 energy: -8.887371336901 gnorm: 0.002660984657 xtb: 6.2.2 (9d81278992624c895f80dd42a50cac0aa55982e2)
N         0.73440463978112   -0.04632085585554    0.02566666537636
C         1.89212096071215   -0.09026931326589   -0.08024189736365
N        -0.58320271439690   -0.01808915279270    0.25590397624495
H        -0.97553992900028    0.89900372485128    0.06252536465758
H        -1.06778195709609   -0.74432440293715   -0.26385410891524
5
 energy: -8.887380999032 gnorm: 0.001183937256 xtb: 6.2.2 (9d81278992624c895f80dd42a50cac0aa55982e2)
N         0.73358142748974   -0.04700873401947    0.02936737189284
C         1.88992137748998   -0.08965432204075   -0.08272290418671
N        -0.58332737188251   -0.01797975060272    0.25538784099413
H        -0.97389195495466    0.90032380000969    0.06244002712425
H        -1.06628247814255   -0.74568099334676   -0.26447233582451
5
 energy: -8.887383163463 gnorm: 0.000720923108 xtb: 6.2.2 (9d81278992624c895f80dd42a50cac0aa55982e2)
N         0.73340354968172   -0.04719029810353    0.03031601225247
C         1.88943820018559   -0.08947995676100   -0.08344045043646
N        -0.58409851197618   -0.01768139152640    0.25410555581380
H        -0.97310036425113    0.90145699275093    0.06321733393359
H        -1.06564187364000   -0.74710534636000   -0.26419845156341
