5
 energy: -9.119516905692 gnorm: 0.295575814429 xtb: 6.2.2 (9d81278992624c895f80dd42a50cac0aa55982e2)
C         0.79422000000000   -0.45053900000000    0.56615800000000
C        -0.64864800000000   -0.05946000000000    0.30752600000000
O         1.60293500000000   -0.00791200000000   -0.48102700000000
H        -0.73942300000000    1.04499700000000    0.24004700000000
H        -1.00908400000000   -0.52708600000000   -0.63270400000000
5
 energy: -9.217561946121 gnorm: 0.226802298184 xtb: 6.2.2 (9d81278992624c895f80dd42a50cac0aa55982e2)
C         0.74852003414451   -0.35492067798420    0.40804072481152
C        -0.61718785169187   -0.04004686755393    0.26283641154088
O         1.71541089423758   -0.07715419272655   -0.39105372786427
H        -0.78569030745799    1.03872145056396    0.30568995596675
H        -1.06105276923223   -0.56659971229928   -0.58551336445488
5
 energy: -9.250598530212 gnorm: 0.373780295684 xtb: 6.2.2 (9d81278992624c895f80dd42a50cac0aa55982e2)
C         0.70552786086174   -0.23709871050479    0.20909162204943
C        -0.51814621053789   -0.03545406633570    0.22396123572528
O         1.66370937758409   -0.15177726553857   -0.24066041353684
H        -0.79019569098808    1.00123457784155    0.34186041322499
H        -1.06089533691986   -0.57690453546249   -0.53425285746285
5
 energy: -9.286983799089 gnorm: 0.275589389677 xtb: 6.2.2 (9d81278992624c895f80dd42a50cac0aa55982e2)
C         0.66064590921129   -0.15635748698693    0.07752053465307
C        -0.56429471250146   -0.02529803816604    0.21992624007461
O         1.88825071664315   -0.21248749273512   -0.20068260625894
H        -0.85582185275995    0.99272437867786    0.39332955315055
H        -1.12878006059303   -0.59858136078977   -0.49009372161929
5
 energy: -9.301975659152 gnorm: 0.091037188416 xtb: 6.2.2 (9d81278992624c895f80dd42a50cac0aa55982e2)
C         0.76001958676965   -0.18342629428136    0.09557428024642
C        -0.57340477658909   -0.01171851775899    0.19828054402365
O         1.91697419042647   -0.22587729984792   -0.18543750421875
H        -0.91462530816315    1.01018479490851    0.38973498948244
H        -1.18896369244388   -0.58916268302025   -0.49815230953377
5
 energy: -9.310330735674 gnorm: 0.059845332431 xtb: 6.2.2 (9d81278992624c895f80dd42a50cac0aa55982e2)
C         0.76596807886243   -0.15949597139497    0.05063189548092
C        -0.51779005549695    0.01145232476521    0.13935870725783
O         1.92159267490320   -0.25345543120063   -0.13718902269623
H        -0.94598645037301    1.01050763588326    0.42314168492871
H        -1.22378424789567   -0.60900855805287   -0.47594326497122
5
 energy: -9.314598285891 gnorm: 0.038421868185 xtb: 6.2.2 (9d81278992624c895f80dd42a50cac0aa55982e2)
C         0.72542055526566   -0.11671019004042   -0.01391297914739
C        -0.52887083532431    0.02138924967544    0.12488337410037
O         1.86519111820857   -0.26406387290275   -0.10064938620245
H        -0.89667515298487    0.96202392359172    0.42915492134221
H        -1.16506568516505   -0.60263911032398   -0.43947593009274
5
 energy: -9.316602734367 gnorm: 0.053326046669 xtb: 6.2.2 (9d81278992624c895f80dd42a50cac0aa55982e2)
C         0.74484835444164   -0.10043817621203   -0.04922312734919
C        -0.52242001564321    0.03768678067689    0.09353280074967
O         1.90786805626428   -0.28749970554277   -0.07162482321639
H        -0.92893805129855    0.96920979416214    0.45449872075934
H        -1.20135834376416   -0.61895869308424   -0.42718357094343
5
 energy: -9.317127862409 gnorm: 0.036076690129 xtb: 6.2.2 (9d81278992624c895f80dd42a50cac0aa55982e2)
C         0.76034092037336   -0.11491239927656   -0.02794363579263
C        -0.52059634828663    0.04874543481697    0.07304958498981
O         1.90009589506107   -0.28259052246246   -0.07805777990900
H        -0.93177818263794    0.97970921863957    0.46355835858723
H        -1.20806228450987   -0.63095173171753   -0.43060652787540
5
 energy: -9.317685683125 gnorm: 0.011943918810 xtb: 6.2.2 (9d81278992624c895f80dd42a50cac0aa55982e2)
C         0.75395468803806   -0.10706698671882   -0.04008719389559
C        -0.52215973891737    0.05057348105445    0.07023849405476
O         1.89919208154337   -0.28591762880204   -0.07180517779662
H        -0.92877789947361    0.96825571256445    0.46331762716111
H        -1.20220913119045   -0.62584457809804   -0.42166374952366
5
 energy: -9.317896868313 gnorm: 0.007609190023 xtb: 6.2.2 (9d81278992624c895f80dd42a50cac0aa55982e2)
C         0.75299016534625   -0.10383307498367   -0.04570731132878
C        -0.52070807912611    0.05872675388868    0.05511044085490
O         1.89922435460795   -0.28872827558520   -0.06663071883435
H        -0.92934250654024    0.96197060827775    0.46996444775621
H        -1.20216393428786   -0.62813601159756   -0.41273685844799
5
 energy: -9.318087144058 gnorm: 0.004472448306 xtb: 6.2.2 (9d81278992624c895f80dd42a50cac0aa55982e2)
C         0.75363605753847   -0.10444155718336   -0.04378118499947
C        -0.52039504567941    0.07008464763142    0.03448015521743
O         1.89968175389374   -0.28989463082923   -0.06602571614578
H        -0.93077717726335    0.95539901915025    0.47837557687181
H        -1.20214558848945   -0.63114747876908   -0.40304883094398
5
 energy: -9.318146259141 gnorm: 0.005898271752 xtb: 6.2.2 (9d81278992624c895f80dd42a50cac0aa55982e2)
C         0.75307872046724   -0.11319634471483   -0.03894624594115
C        -0.51985669486140    0.07842961775840    0.02006134003899
O         1.90171151863661   -0.28198732136514   -0.06624366465501
H        -0.92703425714785    0.95270207627117    0.48008138537029
H        -1.20789928709459   -0.63594802794959   -0.39495281481312
5
 energy: -9.317763029183 gnorm: 0.019503353139 xtb: 6.2.2 (9d81278992624c895f80dd42a50cac0aa55982e2)
C         0.75643413113097   -0.10434526115053   -0.01114561362121
C        -0.51935921503801    0.09103008992019   -0.00591049205208
O         1.89963515742059   -0.30156535590393   -0.08936654358999
H        -0.94696850588265    0.94791285879538    0.50382764068774
H        -1.18974156763090   -0.63303233166112   -0.39740499142446
5
 energy: -9.318185250306 gnorm: 0.001592770367 xtb: 6.2.2 (9d81278992624c895f80dd42a50cac0aa55982e2)
C         0.75345246404579   -0.11224912073638   -0.03063099660066
C        -0.52007836047922    0.07857832683887    0.01929958492287
O         1.90104931523103   -0.28545307584487   -0.07356708301250
H        -0.93143907628349    0.95250663060570    0.48269002526958
H        -1.20298434251410   -0.63338276086333   -0.39779153057928
5
 energy: -9.318186584591 gnorm: 0.000843538777 xtb: 6.2.2 (9d81278992624c895f80dd42a50cac0aa55982e2)
C         0.75369733301411   -0.11263642743937   -0.02989134998606
C        -0.51971353866843    0.07804775727394    0.01985942553877
O         1.90205038298115   -0.28504332188608   -0.07389660681365
H        -0.93165290577556    0.95321973988181    0.48241904645174
H        -1.20438127155127   -0.63358774783029   -0.39849051519079
