$hessian                                                                        
        1.6743112647  -0.2338600672  -0.0581970852  -0.6402886543   0.0861010709
        0.0204577222  -0.9813967381   0.1406403233   0.0355912851  -0.0216606968
        0.0081698467   0.0037949269  -0.0309651755  -0.0010511737  -0.0016468490
       -0.2338600672   0.1457203569   0.0322612929   0.0861947143  -0.0719745932
       -0.0274612842   0.1405734758  -0.0661089642  -0.0086328263   0.0252310988
       -0.0078755125   0.0005989727  -0.0181392218   0.0002387130   0.0032338449
       -0.0581970852   0.0322612929   0.0833688968   0.0202733557  -0.0274212675
       -0.0293131208   0.0356886436  -0.0086517466  -0.0422208711   0.0131968628
       -0.0001110960  -0.0065171077  -0.0109617768   0.0039228172  -0.0053177973
       -0.6402886543   0.0861947143   0.0202733557   0.8995600946  -0.0650703302
        0.0009271598  -0.0416749767   0.0096891579   0.0034782200  -0.0712121785
        0.0907645477   0.0474004267  -0.1463842851  -0.1215780898  -0.0720791622
        0.0861010709  -0.0719745932  -0.0274212675  -0.0650703302   0.4219457576
        0.2056096662   0.0097362533   0.0191207927   0.0100035841   0.0920775391
       -0.2174598900  -0.1076913087  -0.1228445331  -0.1516320671  -0.0805006742
        0.0204577222  -0.0274612842  -0.0293131208   0.0009271598   0.2056096662
        0.1542709919   0.0033405332   0.0100313484   0.0072527427   0.0480861259
       -0.1077248750  -0.0710779666  -0.0728115411  -0.0804548555  -0.0611326473
       -0.9813967381   0.1405734758   0.0356886436  -0.0416749767   0.0097362533
        0.0033405332   1.0213399522  -0.1501127131  -0.0384542519  -0.0003763772
       -0.0041944595  -0.0025826057   0.0021081397   0.0039974434   0.0020076808
        0.1406403233  -0.0661089642  -0.0086517466   0.0096891579   0.0191207927
        0.0100313484  -0.1501127131   0.0447164240   0.0049485660  -0.0029537456
        0.0022057308  -0.0026891558   0.0027369774   0.0000660166  -0.0036390120
        0.0355912851  -0.0086328263  -0.0422208711   0.0034782200   0.0100035841
        0.0072527427  -0.0384542519   0.0049485660   0.0246779106  -0.0019208015
       -0.0027570120   0.0053017707   0.0013055483  -0.0035623118   0.0049884470
       -0.0216606968   0.0252310988   0.0131968628  -0.0712121785   0.0920775391
        0.0480861259  -0.0003763772  -0.0029537456  -0.0019208015   0.0868952515
       -0.1007479132  -0.0518732663   0.0063540010  -0.0136069790  -0.0074889210
        0.0081698467  -0.0078755125  -0.0001110960   0.0907645477  -0.2174598900
       -0.1077248750  -0.0041944595   0.0022057308  -0.0027570120  -0.1007479132
        0.2382323414   0.1224969712   0.0060079783  -0.0151026698  -0.0119039882
        0.0037949269   0.0005989727  -0.0065171077   0.0474004267  -0.1076913087
       -0.0710779666  -0.0025826057  -0.0026891558   0.0053017707  -0.0518732663
        0.1224969712   0.0720519457   0.0032605183  -0.0127154794   0.0002413579
       -0.0309651755  -0.0181392218  -0.0109617768  -0.1463842851  -0.1228445331
       -0.0728115411   0.0021081397   0.0027369774   0.0013055483   0.0063540010
        0.0060079783   0.0032605183   0.1688873199   0.1322387991   0.0792072513
       -0.0010511737   0.0002387130   0.0039228172  -0.1215780898  -0.1516320671
       -0.0804548555   0.0039974434   0.0000660166  -0.0035623118  -0.0136069790
       -0.0151026698  -0.0127154794   0.1322387991   0.1664300073   0.0928098295
       -0.0016468490   0.0032338449  -0.0053177973  -0.0720791622  -0.0805006742
       -0.0611326473   0.0020076808  -0.0036390120   0.0049884470  -0.0074889210
       -0.0119039882   0.0002413579   0.0792072513   0.0928098295   0.0612206396
