      -----------------------------------------------------------      
     |                   =====================                   |     
     |                           x T B                           |     
     |                   =====================                   |     
     |                         S. Grimme                         |     
     |          Mulliken Center for Theoretical Chemistry        |     
     |                    University of Bonn                     |     
      -----------------------------------------------------------      

   * xtb version 6.2.2 (9d81278992624c895f80dd42a50cac0aa55982e2) compiled by '@Darwin' on 04/03/2020

   xtb is free software: you can redistribute it and/or modify it under
   the terms of the GNU Lesser General Public License as published by
   the Free Software Foundation, either version 3 of the License, or
   (at your option) any later version.
   
   xtb is distributed in the hope that it will be useful,
   but WITHOUT ANY WARRANTY; without even the implied warranty of
   MERCHANTABILITY or FITNESS FOR A PARTICULAR PURPOSE.  See the
   GNU Lesser General Public License for more details.
   
   Cite this work as:
   * S. Grimme, C. Bannwarth, P. Shushkov, J. Chem. Theory Comput., 2017,
     13, 1989-2009. DOI: 10.1021/acs.jctc.7b00118
   * C. Bannwarth, S. Ehlert and S. Grimme., J. Chem. Theory Comput., 2019,
     15, 1652-1671. DOI: 10.1021/acs.jctc.8b01176
   * P. Pracht, E. Caldeweyher, S. Ehlert, S. Grimme, ChemRxiv, 2019, preprint.
     DOI: 10.26434/chemrxiv.8326202.v1
   
   for DFT-D4:
   * E. Caldeweyher, C. Bannwarth and S. Grimme, J. Chem. Phys., 2017,
     147, 034112. DOI: 10.1063/1.4993215
   * E. Caldeweyher, S. Ehlert, A. Hansen, H. Neugebauer, S. Spicher,
     C. Bannwarth and S. Grimme, J. Chem. Phys., 2019, 150, 154122.
     DOI: 10.1063/1.5090222
   
   for sTDA-xTB:
   * S. Grimme and C. Bannwarth, J. Chem. Phys., 2016, 145, 054103.
     DOI: 10.1063/1.4959605
   
   in the mass-spec context:
   * V. Asgeirsson, C. Bauer and S. Grimme, Chem. Sci., 2017, 8, 4879.
     DOI: 10.1039/c7sc00601b
   
   for metadynamics refer to:
   * S. Grimme, J. Chem. Theory Comput., 2019, 155, 2847-2862
     DOI: 10.1021/acs.jctc.9b00143
   
   with help from (in alphabetical order)
   C. Bannwarth, F. Bohle, G. Brandenburg, E. Caldeweyher, M. Checinski,
   S. Dohm, S. Ehlert, S. Ehrlich, F. März, H. Neugebauer, J. Pisarek,
   P. Pracht, P. Shushkov, and S. Spicher.
   
 * started run on 2020/05/12 at 11:45:13.953     

           -------------------------------------------------
          |                Calculation Setup                |
           -------------------------------------------------

          program call               : xtb --input H2C2O1_3_S_0.input H2C2O1_3_S_0.xyz --ohess --molden --namespace H2C2O1_3_S_0 output.out
          calculation namespace      : H2C2O1_3_S_0
          coordinate file            : H2C2O1_3_S_0.xyz
          number of atoms            :                     5
          number of electrons        :                    16
          charge                     :                     0
          spin                       :                   0.0
          first test random number   :      0.94453313611958

   ID    Z sym.   atoms
    1    6 C      1, 2
    2    8 O      3
    3    1 H      4, 5

           -------------------------------------------------
          |                 G F N 2 - x T B                 |
           -------------------------------------------------

        Reference                      10.1021/acs.jctc.8b01176
      * Hamiltonian:
        H0-scaling (s, p, d)           1.850000    2.230000    2.230000
        zeta-weighting                 0.500000
      * Dispersion:
        s8                             2.700000
        a1                             0.520000
        a2                             5.000000
        s9                             5.000000
      * Repulsion:
        kExp                           1.500000    1.000000
        rExp                           1.000000
      * Coulomb:
        alpha                          2.000000
        third order                    shell-resolved
        anisotropic                    true
        a3                             3.000000
        a5                             4.000000
        cn-shift                       1.200000
        cn-exp                         4.000000
        max-rad                        5.000000


          ...................................................
          :                      SETUP                      :
          :.................................................:
          :  # basis functions                  14          :
          :  # atomic orbitals                  14          :
          :  # shells                            8          :
          :  # electrons                        16          :
          :  max. iterations                   250          :
          :  Hamiltonian                  GFN2-xTB          :
          :  restarted?                      false          :
          :  GBSA solvation                  false          :
          :  PC potential                    false          :
          :  electronic temp.          300.0000000     K    :
          :  accuracy                    1.0000000          :
          :  -> integral cutoff          0.2500000E+02      :
          :  -> integral neglect         0.1000000E-07      :
          :  -> SCF convergence          0.1000000E-05 Eh   :
          :  -> wf. convergence          0.1000000E-03 e    :
          :  Broyden damping             0.4000000          :
          ...................................................

 iter      E             dE          RMSdq      gap      omega  full diag
   1     -9.0417685 -0.904177E+01  0.735E+00    0.54       0.0  T
   2     -8.6407347  0.401034E+00  0.103E+01    1.11       1.0  T
   3     -9.0582940 -0.417559E+00  0.458E+00    0.36       1.0  T
   4     -8.9503265  0.107967E+00  0.755E+00    0.96       1.0  T
   5     -9.0645038 -0.114177E+00  0.495E+00    0.51       1.0  T
   6     -9.1549134 -0.904096E-01  0.213E+00    0.30       1.0  T
   7     -9.1254387  0.294746E-01  0.306E+00    0.31       1.0  T
   8     -9.1207414  0.469726E-02  0.340E+00    0.24       1.0  T
   9     -9.1709691 -0.502276E-01  0.253E-01    0.24       1.0  T
  10     -9.1704180  0.551051E-03  0.361E-01    0.23       1.0  T
  11     -9.1709622 -0.544183E-03  0.130E-01    0.23       1.0  T
  12     -9.1710408 -0.785939E-04  0.216E-02    0.23       2.1  T
  13     -9.1710406  0.239513E-06  0.244E-02    0.23       1.8  T
  14     -9.1710427 -0.213232E-05  0.101E-02    0.23       4.4  T
  15     -9.1710431 -0.374424E-06  0.219E-03    0.23      20.4  T
  16     -9.1710431 -0.202108E-08  0.927E-04    0.23      48.2  T
  17     -9.1710431 -0.346196E-08  0.131E-04    0.23     342.4  T

   *** convergence criteria satisfied after 17 iterations ***

         #    Occupation            Energy/Eh            Energy/eV
      -------------------------------------------------------------
         1        2.0000           -0.6980332             -18.9944
         2        2.0000           -0.6369022             -17.3310
         3        2.0000           -0.5806576             -15.8005
         4        2.0000           -0.5347622             -14.5516
         5        2.0000           -0.5303015             -14.4302
         6        2.0000           -0.5026084             -13.6767
         7        2.0000           -0.4846329             -13.1875
         8        1.9776           -0.3870248             -10.5315 (HOMO)
         9        0.0224           -0.3785079             -10.2997 (LUMO)
        10                         -0.3273152              -8.9067
        11                          0.0855950               2.3292
        12                          0.1018759               2.7722
        13                          0.1368009               3.7225
        14                          0.1576754               4.2906
      -------------------------------------------------------------
                  HL-Gap            0.0085170 Eh            0.2318 eV
             Fermi-level           -0.3827664 Eh          -10.4156 eV

 SCC (total)                   0 d,  0 h,  0 min,  0.003 sec
 SCC setup                      ...        0 min,  0.000 sec (  2.941%)
 Dispersion                     ...        0 min,  0.000 sec (  0.558%)
 integral evaluation            ...        0 min,  0.001 sec ( 24.123%)
 zeroth order Hamiltonian       ...        0 min,  0.000 sec (  0.942%)
 iterations                     ...        0 min,  0.001 sec ( 44.328%)
 molecular gradient             ...        0 min,  0.001 sec ( 23.696%)
 printout                       ...        0 min,  0.000 sec (  3.006%)

         :::::::::::::::::::::::::::::::::::::::::::::::::::::
         ::                     SUMMARY                     ::
         :::::::::::::::::::::::::::::::::::::::::::::::::::::
         :: total energy              -9.119516906074 Eh    ::
         :: gradient norm              0.295572979272 Eh/a0 ::
         :: HOMO-LUMO gap              0.231758736666 eV    ::
         ::.................................................::
         :: SCC energy                -9.171043085643 Eh    ::
         :: -> isotropic ES            0.022526271663 Eh    ::
         :: -> anisotropic ES          0.000273873101 Eh    ::
         :: -> anisotropic XC          0.006723980106 Eh    ::
         :: -> dispersion             -0.001364737840 Eh    ::
         :: repulsion energy           0.051526141943 Eh    ::
         :: add. restraining           0.000000000000 Eh    ::
         :::::::::::::::::::::::::::::::::::::::::::::::::::::

      ----------------------------------------------------------- 
     |                   =====================                   |
     |                        A N C O P T                        |
     |                   =====================                   |
     |               Approximate Normal Coordinate               |
     |                Rational Function Optimizer                |
      ----------------------------------------------------------- 

          ...................................................
          :                      SETUP                      :
          :.................................................:
          :   optimization level            normal          :
          :   max. optcycles                   200          :
          :   ANC micro-cycles                  20          :
          :   degrees of freedom                 9          :
          :.................................................:
          :   RF solver                   davidson          :
          :   write xtbopt.log                true          :
          :   linear?                        false          :
          :   energy convergence         0.5000000E-05 Eh   :
          :   grad. convergence          0.1000000E-02 Eh/α :
          :   maximium RF displ.         1.0000000          :
          :   Hlow (freq-cutoff)         0.1000000E-01      :
          :   Hmax (freq-cutoff)         5.0000000          :
          :   S6 in model hess.         20.0000000          :
          ...................................................

generating ANC from model Hessian ...
Using Lindh-Hessian (1995)
 Shifting diagonal of input Hessian by    0.0000000000000000     
 Lowest  eigenvalues of input Hessian
   -0.000000   -0.000000   -0.000000   -0.000000    0.000000    0.000000
    0.012290    0.033110    0.082580    0.099076    0.152091    0.533556
    0.956273    0.976081    1.245135
 Highest eigenvalues
    0.099076    0.152091    0.533556    0.956273    0.976081    1.245135


........................................................................
.............................. CYCLE    1 ..............................
........................................................................
   1     -9.1710431 -0.917104E+01  0.621E-05    0.23       0.0  T
   2     -9.1710431  0.350603E-08  0.834E-04    0.23      53.6  T
   3     -9.1710431 -0.351491E-08  0.408E-05    0.23    1095.3  T
     SCC iter.                  ...        0 min,  0.000 sec
     gradient                   ...        0 min,  0.001 sec
 * total energy  :    -9.1195169 Eh     change        0.3818634E-09 Eh
   gradient norm :     0.2955758 Eh/α   predicted     0.0000000E+00 (-100.00%)
   displ. norm   :     0.5281599 α      lambda       -0.1155634E+00
   maximum displ.:     0.3632105 α      in ANC's #2, #6, #5, ...

........................................................................
.............................. CYCLE    2 ..............................
........................................................................
   1     -9.2419250 -0.924193E+01  0.421E+00    2.00       0.0  T
   2     -9.0444194  0.197506E+00  0.683E+00    1.63       1.0  T
   3     -9.2947043 -0.250285E+00  0.166E+00    1.81       1.0  T
   4     -9.2980960 -0.339167E-02  0.880E-01    1.70       1.0  T
   5     -9.3001038 -0.200780E-02  0.210E-01    1.76       1.0  T
   6     -9.3002254 -0.121554E-03  0.582E-02    1.76       1.0  T
   7     -9.3002353 -0.996059E-05  0.173E-02    1.76       2.6  T
   8     -9.3002358 -0.438162E-06  0.302E-03    1.76      14.8  T
   9     -9.3002358 -0.275348E-07  0.350E-04    1.76     127.8  T
  10     -9.3002358 -0.511857E-10  0.959E-05    1.76     466.3  T
     SCC iter.                  ...        0 min,  0.001 sec
     gradient                   ...        0 min,  0.001 sec
 * total energy  :    -9.2175619 Eh     change       -0.9804504E-01 Eh
   gradient norm :     0.2263866 Eh/α   predicted    -0.7390006E-01 ( -24.63%)
   displ. norm   :     0.6064231 α      lambda       -0.1312686E+00
   maximum displ.:     0.3682277 α      in ANC's #6, #7, #9, ...

........................................................................
.............................. CYCLE    3 ..............................
........................................................................
   1     -9.4540213 -0.945402E+01  0.374E+00    5.15       0.0  T
   2     -9.4772845 -0.232631E-01  0.222E+00    3.77       1.0  T
   3     -9.4875818 -0.102973E-01  0.118E+00    4.30       1.0  T
   4     -9.4879783 -0.396529E-03  0.201E-01    4.16       1.0  T
   5     -9.4881408 -0.162493E-03  0.591E-02    4.20       1.0  T
   6     -9.4881408 -0.162352E-07  0.342E-02    4.21       1.3  T
   7     -9.4881442 -0.335737E-05  0.929E-03    4.20       4.8  T
   8     -9.4881442 -0.171971E-07  0.138E-03    4.20      32.5  T
   9     -9.4881442 -0.369748E-08  0.228E-04    4.20     195.8  T
  10     -9.4881442 -0.473008E-10  0.307E-05    4.20    1457.0  T
     SCC iter.                  ...        0 min,  0.001 sec
     gradient                   ...        0 min,  0.001 sec
 * total energy  :    -9.2505985 Eh     change       -0.3303658E-01 Eh
   gradient norm :     0.3673230 Eh/α   predicted    -0.8977126E-01 ( 171.73%)
   displ. norm   :     0.5911337 α      lambda       -0.1332091E+00
   maximum displ.:     0.4657829 α      in ANC's #2, #5, #6, ...

........................................................................
.............................. CYCLE    4 ..............................
........................................................................
   1     -9.3837038 -0.938370E+01  0.393E+00    3.12       0.0  T
   2     -9.4102896 -0.265858E-01  0.268E+00    4.13       1.0  T
   3     -9.4364675 -0.261778E-01  0.101E+00    3.57       1.0  T
   4     -9.4364990 -0.315005E-04  0.215E-01    3.58       1.0  T
   5     -9.4365828 -0.838250E-04  0.457E-02    3.61       1.0  T
   6     -9.4365858 -0.305662E-05  0.256E-02    3.61       1.7  T
   7     -9.4365875 -0.169388E-05  0.107E-02    3.61       4.2  T
   8     -9.4365877 -0.145832E-06  0.115E-03    3.61      38.7  T
   9     -9.4365877 -0.196934E-08  0.454E-04    3.61      98.5  T
  10     -9.4365877 -0.108058E-09  0.469E-05    3.61     953.5  T
     SCC iter.                  ...        0 min,  0.001 sec
     gradient                   ...        0 min,  0.001 sec
 * total energy  :    -9.2869838 Eh     change       -0.3638527E-01 Eh
   gradient norm :     0.2655781 Eh/α   predicted    -0.8987880E-01 ( 147.02%)
   displ. norm   :     0.2702890 α      lambda       -0.3879270E-01
   maximum displ.:     0.1694694 α      in ANC's #2, #5, #6, ...

........................................................................
.............................. CYCLE    5 ..............................
........................................................................
   1     -9.4087990 -0.940880E+01  0.177E+00    3.52       0.0  T
   2     -9.4123354 -0.353636E-02  0.147E+00    2.93       1.0  T
   3     -9.4203561 -0.802078E-02  0.496E-01    3.23       1.0  T
   4     -9.4203127  0.434729E-04  0.272E-01    3.15       1.0  T
   5     -9.4205246 -0.211908E-03  0.631E-02    3.19       1.0  T
   6     -9.4205279 -0.333917E-05  0.107E-02    3.19       4.2  T
   7     -9.4205283 -0.419756E-06  0.288E-03    3.19      15.5  T
   8     -9.4205283 -0.420939E-08  0.147E-04    3.19     303.6  T
   9     -9.4205283 -0.358646E-11  0.796E-05    3.19     561.9  T
     SCC iter.                  ...        0 min,  0.001 sec
     gradient                   ...        0 min,  0.001 sec
 * total energy  :    -9.3019757 Eh     change       -0.1499186E-01 Eh
   gradient norm :     0.0905857 Eh/α   predicted    -0.2081337E-01 (  38.83%)
   displ. norm   :     0.2466692 α      lambda       -0.1403714E-01
   maximum displ.:     0.1514732 α      in ANC's #2, #6, #9, ...

........................................................................
.............................. CYCLE    6 ..............................
........................................................................
   1     -9.4445712 -0.944457E+01  0.755E-01    3.47       0.0  T
   2     -9.4447202 -0.148992E-03  0.469E-01    3.47       1.0  T
   3     -9.4446907  0.295021E-04  0.213E-01    3.47       1.0  T
   4     -9.4447670 -0.763786E-04  0.159E-02    3.47       2.8  T
   5     -9.4447669  0.915419E-07  0.671E-03    3.47       6.7  T
   6     -9.4447671 -0.156741E-06  0.102E-03    3.47      44.0  T
   7     -9.4447671 -0.127588E-08  0.483E-04    3.47      92.6  T
   8     -9.4447671 -0.460840E-10  0.107E-04    3.47     416.6  T
     SCC iter.                  ...        0 min,  0.001 sec
     gradient                   ...        0 min,  0.001 sec
 * total energy  :    -9.3103307 Eh     change       -0.8355077E-02 Eh
   gradient norm :     0.0598358 Eh/α   predicted    -0.7445615E-02 ( -10.89%)
   displ. norm   :     0.2824327 α      lambda       -0.1346339E-01
   maximum displ.:     0.1886725 α      in ANC's #6, #2, #9, ...

........................................................................
.............................. CYCLE    7 ..............................
........................................................................
   1     -9.4875227 -0.948752E+01  0.765E-01    3.99       0.0  T
   2     -9.4877161 -0.193378E-03  0.454E-01    3.88       1.0  T
   3     -9.4877150  0.115917E-05  0.297E-01    3.97       1.0  T
   4     -9.4878563 -0.141364E-03  0.314E-02    3.93       1.4  T
   5     -9.4878570 -0.657207E-06  0.112E-02    3.93       4.0  T
   6     -9.4878572 -0.234402E-06  0.501E-03    3.93       8.9  T
   7     -9.4878572 -0.319717E-08  0.644E-04    3.93      69.4  T
   8     -9.4878572 -0.131603E-08  0.316E-04    3.93     141.6  T
     SCC iter.                  ...        0 min,  0.001 sec
     gradient                   ...        0 min,  0.001 sec
 * total energy  :    -9.3145983 Eh     change       -0.4267550E-02 Eh
   gradient norm :     0.0384088 Eh/α   predicted    -0.7268665E-02 (  70.32%)
   displ. norm   :     0.1876596 α      lambda       -0.5027705E-02
   maximum displ.:     0.1689574 α      in ANC's #2, #9, #4, ...

........................................................................
.............................. CYCLE    8 ..............................
........................................................................
   1     -9.4657943 -0.946579E+01  0.634E-01    3.58       0.0  T
   2     -9.4661548 -0.360539E-03  0.397E-01    3.74       1.0  T
   3     -9.4664835 -0.328682E-03  0.232E-01    3.65       1.0  T
   4     -9.4665143 -0.308139E-04  0.252E-02    3.68       1.8  T
   5     -9.4665168 -0.249092E-05  0.811E-03    3.67       5.5  T
   6     -9.4665168 -0.279777E-07  0.112E-03    3.67      40.0  T
   7     -9.4665168 -0.261072E-08  0.310E-04    3.67     144.2  T
   8     -9.4665168 -0.460290E-10  0.205E-05    3.67    2182.4  T
     SCC iter.                  ...        0 min,  0.001 sec
     gradient                   ...        0 min,  0.001 sec
 * total energy  :    -9.3166027 Eh     change       -0.2004448E-02 Eh
   gradient norm :     0.0513244 Eh/α   predicted    -0.2602380E-02 (  29.83%)
   displ. norm   :     0.0839660 α      lambda       -0.2270611E-02
   maximum displ.:     0.0609455 α      in ANC's #5, #7, #4, ...

........................................................................
.............................. CYCLE    9 ..............................
........................................................................
   1     -9.4680870 -0.946809E+01  0.568E-01    3.78       0.0  T
   2     -9.4685517 -0.464703E-03  0.379E-01    3.61       1.0  T
   3     -9.4689218 -0.370035E-03  0.181E-01    3.69       1.0  T
   4     -9.4689278 -0.596758E-05  0.466E-02    3.67       1.0  T
   5     -9.4689337 -0.590527E-05  0.142E-02    3.68       3.1  T
   6     -9.4689339 -0.245771E-06  0.231E-03    3.68      19.4  T
   7     -9.4689339 -0.221595E-09  0.799E-04    3.68      56.0  T
   8     -9.4689339 -0.112561E-08  0.733E-05    3.68     610.1  T
     SCC iter.                  ...        0 min,  0.001 sec
     gradient                   ...        0 min,  0.001 sec
 * total energy  :    -9.3171279 Eh     change       -0.5251280E-03 Eh
   gradient norm :     0.0338776 Eh/α   predicted    -0.1143311E-02 ( 117.72%)
   displ. norm   :     0.0460965 α      lambda       -0.8868851E-03
   maximum displ.:     0.0361639 α      in ANC's #6, #5, #9, ...

........................................................................
.............................. CYCLE   10 ..............................
........................................................................
   1     -9.4718000 -0.947180E+01  0.174E-01    3.67       0.0  T
   2     -9.4718353 -0.353106E-04  0.120E-01    3.71       1.0  T
   3     -9.4718592 -0.239539E-04  0.631E-02    3.69       1.0  T
   4     -9.4718606 -0.136184E-05  0.159E-02    3.70       2.8  T
   5     -9.4718610 -0.440475E-06  0.582E-03    3.70       7.7  T
   6     -9.4718611 -0.580327E-07  0.895E-04    3.70      50.0  T
   7     -9.4718611 -0.699707E-10  0.125E-04    3.70     358.3  T
     SCC iter.                  ...        0 min,  0.000 sec
     gradient                   ...        0 min,  0.001 sec
 * total energy  :    -9.3176857 Eh     change       -0.5578207E-03 Eh
   gradient norm :     0.0113633 Eh/α   predicted    -0.4443854E-03 ( -20.34%)
   displ. norm   :     0.0440770 α      lambda       -0.2891324E-03
   maximum displ.:     0.0328074 α      in ANC's #6, #4, #9, ...

........................................................................
.............................. CYCLE   11 ..............................
........................................................................
   1     -9.4733163 -0.947332E+01  0.147E-01    3.70       0.0  T
   2     -9.4733207 -0.438396E-05  0.925E-02    3.71       1.0  T
   3     -9.4733173  0.334026E-05  0.497E-02    3.69       1.0  T
   4     -9.4733233 -0.597037E-05  0.545E-03    3.70       8.2  T
   5     -9.4733234 -0.998341E-07  0.195E-03    3.70      23.0  T
   6     -9.4733234 -0.727914E-08  0.426E-04    3.70     104.9  T
   7     -9.4733234 -0.390994E-10  0.462E-05    3.70     968.7  T
     SCC iter.                  ...        0 min,  0.000 sec
     gradient                   ...        0 min,  0.001 sec
 * total energy  :    -9.3178969 Eh     change       -0.2111852E-03 Eh
   gradient norm :     0.0075020 Eh/α   predicted    -0.1448489E-03 ( -31.41%)
   displ. norm   :     0.0527792 α      lambda       -0.2767768E-03
   maximum displ.:     0.0312641 α      in ANC's #6, #7, #4, ...

........................................................................
.............................. CYCLE   12 ..............................
........................................................................
   1     -9.4742783 -0.947428E+01  0.203E-01    3.70       0.0  T
   2     -9.4742788 -0.461144E-06  0.124E-01    3.70       1.0  T
   3     -9.4742777  0.112719E-05  0.179E-02    3.70       2.5  T
   4     -9.4742791 -0.139215E-05  0.207E-03    3.70      21.6  T
   5     -9.4742791 -0.539150E-08  0.101E-03    3.70      44.2  T
   6     -9.4742791 -0.118776E-08  0.376E-04    3.70     118.8  T
   7     -9.4742791 -0.182858E-10  0.381E-05    3.70    1173.5  T
     SCC iter.                  ...        0 min,  0.000 sec
     gradient                   ...        0 min,  0.001 sec
 * total energy  :    -9.3180871 Eh     change       -0.1902757E-03 Eh
   gradient norm :     0.0043807 Eh/α   predicted    -0.1387736E-03 ( -27.07%)
   displ. norm   :     0.0459303 α      lambda       -0.1377643E-03
   maximum displ.:     0.0272176 α      in ANC's #7, #1, #5, ...

........................................................................
.............................. CYCLE   13 ..............................
........................................................................
   1     -9.4741315 -0.947413E+01  0.187E-01    3.69       0.0  T
   2     -9.4741321 -0.563102E-06  0.115E-01    3.69       1.0  T
   3     -9.4741324 -0.279738E-06  0.585E-03    3.69       7.6  T
   4     -9.4741324 -0.675422E-07  0.318E-03    3.69      14.1  T
   5     -9.4741324 -0.584463E-08  0.105E-03    3.69      42.6  T
   6     -9.4741324 -0.237083E-08  0.430E-04    3.69     103.9  T
   7     -9.4741324 -0.114818E-09  0.732E-05    3.69     611.0  T
     SCC iter.                  ...        0 min,  0.000 sec
     gradient                   ...        0 min,  0.001 sec
 * total energy  :    -9.3181463 Eh     change       -0.5911508E-04 Eh
   gradient norm :     0.0057943 Eh/α   predicted    -0.6902798E-04 (  16.77%)
   displ. norm   :     0.1187181 α      lambda       -0.2763857E-03
   maximum displ.:     0.0923729 α      in ANC's #1, #7, #5, ...

........................................................................
.............................. CYCLE   14 ..............................
........................................................................
   1     -9.4720601 -0.947206E+01  0.407E-01    3.67       0.0  T
   2     -9.4720659 -0.577064E-05  0.252E-01    3.67       1.0  T
   3     -9.4720617  0.422105E-05  0.441E-02    3.66       1.0  T
   4     -9.4720697 -0.802681E-05  0.110E-02    3.67       4.1  T
   5     -9.4720698 -0.576389E-07  0.265E-03    3.67      16.9  T
   6     -9.4720698 -0.177826E-08  0.118E-03    3.67      37.8  T
   7     -9.4720698 -0.154120E-08  0.233E-04    3.67     192.3  T
   8     -9.4720698 -0.675033E-10  0.916E-05    3.67     488.2  T
     SCC iter.                  ...        0 min,  0.001 sec
     gradient                   ...        0 min,  0.001 sec
 * total energy  :    -9.3177630 Eh     change        0.3832300E-03 Eh
   gradient norm :     0.0191982 Eh/α   predicted    -0.1401402E-03 (-136.57%)
   displ. norm   :     0.0970607 α      lambda       -0.8617467E-03
   maximum displ.:     0.0707788 α      in ANC's #1, #7, #5, ...

........................................................................
.............................. CYCLE   15 ..............................
........................................................................
   1     -9.4742711 -0.947427E+01  0.336E-01    3.70       0.0  T
   2     -9.4742747 -0.364821E-05  0.207E-01    3.69       1.0  T
   3     -9.4742703  0.444708E-05  0.405E-02    3.70       1.1  T
   4     -9.4742771 -0.687381E-05  0.855E-03    3.69       5.2  T
   5     -9.4742772 -0.359701E-07  0.215E-03    3.69      20.8  T
   6     -9.4742772 -0.117728E-08  0.980E-04    3.69      45.6  T
   7     -9.4742772 -0.113680E-08  0.204E-04    3.69     219.3  T
     SCC iter.                  ...        0 min,  0.000 sec
     gradient                   ...        0 min,  0.001 sec
 * total energy  :    -9.3181853 Eh     change       -0.4222211E-03 Eh
   gradient norm :     0.0015594 Eh/α   predicted    -0.4349335E-03 (   3.01%)
   displ. norm   :     0.0045798 α      lambda       -0.2822208E-05
   maximum displ.:     0.0029059 α      in ANC's #6, #9, #2, ...

........................................................................
.............................. CYCLE   16 ..............................
........................................................................
   1     -9.4737267 -0.947373E+01  0.165E-02    3.68       0.0  T
   2     -9.4737271 -0.377358E-06  0.101E-02    3.69       4.4  T
   3     -9.4737274 -0.297441E-06  0.512E-03    3.69       8.7  T
   4     -9.4737274 -0.705804E-08  0.106E-03    3.69      42.1  T
   5     -9.4737274 -0.458103E-08  0.199E-04    3.69     225.2  T
   6     -9.4737274 -0.910383E-11  0.262E-05    3.69    1705.5  T
     SCC iter.                  ...        0 min,  0.000 sec
     gradient                   ...        0 min,  0.001 sec
 * total energy  :    -9.3181866 Eh     change       -0.1334285E-05 Eh
   gradient norm :     0.0008360 Eh/α   predicted    -0.1410112E-05 (   5.68%)
   displ. norm   :     0.0032705 α      lambda       -0.7781665E-06
   maximum displ.:     0.0017300 α      in ANC's #4, #2, #9, ...

   *** GEOMETRY OPTIMIZATION CONVERGED AFTER 16 ITERATIONS ***

------------------------------------------------------------------------
 total energy gain   :        -0.1986697 Eh     -124.6671 kcal/mol
 total RMSD          :         0.8983121 a0        0.4754 Å
 total power (kW/mol):       -32.6004481 (step)********** (real)
------------------------------------------------------------------------

 ANCopt (total)                0 d,  0 h,  0 min,  0.037 sec
 optimizer setup                ...        0 min,  0.000 sec (  0.194%)
 model hessian                  ...        0 min,  0.000 sec (  0.285%)
 ANC generation                 ...        0 min,  0.000 sec (  0.156%)
 coordinate transformation      ...        0 min,  0.000 sec (  0.115%)
 single point calculation       ...        0 min,  0.035 sec ( 95.165%)
 optimization log               ...        0 min,  0.000 sec (  1.211%)
 hessian update                 ...        0 min,  0.000 sec (  0.115%)
 rational function              ...        0 min,  0.001 sec (  1.354%)

================
 final structure:
================
5
 xtb: 6.2.2 (9d81278992624c895f80dd42a50cac0aa55982e2)
C         0.75369733301411   -0.11263642743937   -0.02989134998606
C        -0.51971353866843    0.07804775727394    0.01985942553877
O         1.90205038298115   -0.28504332188608   -0.07389660681365
H        -0.93165290577556    0.95321973988181    0.48241904645174
H        -1.20438127155127   -0.63358774783029   -0.39849051519079

 Bond Distances (Angstroems)
 ---------------------------
C1-C2=1.2886         C1-O3=1.1621         C2-C1=1.2886         C2-H4=1.0722         C2-H5=1.0725         O3-C1=1.1621         
H4-C2=1.0722         H5-C2=1.0725         
 C  H  Rav=1.0723 sigma=0.0001  Rmin=1.0722  Rmax=1.0725     2
 C  C  Rav=1.2886 sigma=0.0000  Rmin=1.2886  Rmax=1.2886     1
 O  C  Rav=1.1621 sigma=0.0000  Rmin=1.1621  Rmax=1.1621     1

 selected bond angles (degree)
 --------------------
O3-C1-C2=179.95                H4-C2-C1=121.14                H5-C2-C1=121.17                H5-C2-H4=117.69                

 selected dihedral angles (degree)
 ---------------------------------
H4-C2-C1-O3= 88.52            H5-C2-C1-O3=268.62            
           -------------------------------------------------
          |                Final Singlepoint                |
           -------------------------------------------------

          ...................................................
          :                      SETUP                      :
          :.................................................:
          :  # basis functions                  14          :
          :  # atomic orbitals                  14          :
          :  # shells                            8          :
          :  # electrons                        16          :
          :  max. iterations                   250          :
          :  Hamiltonian                  GFN2-xTB          :
          :  restarted?                      false          :
          :  GBSA solvation                  false          :
          :  PC potential                    false          :
          :  electronic temp.          300.0000000     K    :
          :  accuracy                    1.0000000          :
          :  -> integral cutoff          0.2500000E+02      :
          :  -> integral neglect         0.1000000E-07      :
          :  -> SCF convergence          0.1000000E-05 Eh   :
          :  -> wf. convergence          0.1000000E-03 e    :
          :  Broyden damping             0.4000000          :
          ...................................................

 iter      E             dE          RMSdq      gap      omega  full diag
   1     -9.4737274 -0.947373E+01  0.548E-06    3.69       0.0  T
   2     -9.4737274 -0.710543E-14  0.331E-06    3.69   13525.7  T
   3     -9.4737274  0.532907E-14  0.105E-06    3.69   42729.4  T

   *** convergence criteria satisfied after 3 iterations ***

         #    Occupation            Energy/Eh            Energy/eV
      -------------------------------------------------------------
         1        2.0000           -0.7468826             -20.3237
         2        2.0000           -0.6498610             -17.6836
         3        2.0000           -0.5824906             -15.8504
         4        2.0000           -0.5739647             -15.6184
         5        2.0000           -0.5706326             -15.5277
         6        2.0000           -0.5132807             -13.9671
         7        2.0000           -0.4867743             -13.2458
         8        2.0000           -0.3903767             -10.6227 (HOMO)
         9                         -0.2548535              -6.9349 (LUMO)
        10                         -0.1655352              -4.5044
        11                          0.1350535               3.6750
        12                          0.3258930               8.8680
        13                          0.3549419               9.6585
        14                          1.1778808              32.0518
      -------------------------------------------------------------
                  HL-Gap            0.1355232 Eh            3.6878 eV
             Fermi-level           -0.3226151 Eh           -8.7788 eV

 SCC (total)                   0 d,  0 h,  0 min,  0.002 sec
 SCC setup                      ...        0 min,  0.000 sec (  3.993%)
 Dispersion                     ...        0 min,  0.000 sec (  0.451%)
 integral evaluation            ...        0 min,  0.001 sec ( 39.606%)
 zeroth order Hamiltonian       ...        0 min,  0.000 sec (  0.592%)
 iterations                     ...        0 min,  0.000 sec ( 12.957%)
 molecular gradient             ...        0 min,  0.001 sec ( 39.426%)
 printout                       ...        0 min,  0.000 sec (  2.486%)

         :::::::::::::::::::::::::::::::::::::::::::::::::::::
         ::                     SUMMARY                     ::
         :::::::::::::::::::::::::::::::::::::::::::::::::::::
         :: total energy              -9.318186584668 Eh    ::
         :: gradient norm              0.000843398437 Eh/a0 ::
         :: HOMO-LUMO gap              3.687775018157 eV    ::
         ::.................................................::
         :: SCC energy                -9.473727403225 Eh    ::
         :: -> isotropic ES            0.016631109611 Eh    ::
         :: -> anisotropic ES          0.001841547431 Eh    ::
         :: -> anisotropic XC          0.005606297032 Eh    ::
         :: -> dispersion             -0.001369800088 Eh    ::
         :: repulsion energy           0.155540804034 Eh    ::
         :: add. restraining           0.000000000000 Eh    ::
         :::::::::::::::::::::::::::::::::::::::::::::::::::::

           ------------------------------------------------- 
          |                Numerical Hessian                |
           ------------------------------------------------- 
step length          :   0.00500
SCC accuracy         :   0.30000
Hessian scale factor :   1.00000
frozen atoms in %    :   0.00000    0
RMS gradient         :   0.00084
estimated CPU  time      0.00 min
estimated wall time      0.00 min

writing file <hessian>.

 projected vibrational frequencies (cm-1)
eigval :       -0.00    -0.00     0.00     0.00     0.00     0.00
eigval :      385.65   437.74   678.23   888.63  1198.75  1376.46
eigval :     2306.69  3135.98  3157.14
           -------------------------------------------------
          |                Property Printout                |
           -------------------------------------------------

    * Orbital Energies and Occupations

         #    Occupation            Energy/Eh            Energy/eV
      -------------------------------------------------------------
         1        2.0000           -0.7468826             -20.3237
         2        2.0000           -0.6498610             -17.6836
         3        2.0000           -0.5824906             -15.8504
         4        2.0000           -0.5739647             -15.6184
         5        2.0000           -0.5706326             -15.5277
         6        2.0000           -0.5132807             -13.9671
         7        2.0000           -0.4867743             -13.2458
         8        2.0000           -0.3903767             -10.6227 (HOMO)
         9                         -0.2548535              -6.9349 (LUMO)
        10                         -0.1655352              -4.5044
        11                          0.1350535               3.6750
        12                          0.3258931               8.8680
        13                          0.3549419               9.6585
        14                          1.1778808              32.0518
      -------------------------------------------------------------
                  HL-Gap            0.1355232 Eh            3.6878 eV
             Fermi-level           -0.3226151 Eh           -8.7788 eV

     #   Z        covCN         q      C6AA      α(0)
     1   6 C      1.836     0.252    25.336     8.132
     2   6 C      2.834    -0.204    33.385     9.469
     3   8 O      0.856    -0.240    18.731     5.803
     4   1 H      0.926     0.096     1.822     2.111
     5   1 H      0.926     0.096     1.823     2.111

 Mol. C6AA /au·bohr⁶  :        316.240930
 Mol. C8AA /au·bohr⁸  :       7519.874898
 Mol. α(0) /au        :         27.624830


Wiberg/Mayer (AO) data.
largest (>0.10) Wiberg bond orders for each atom
          total WBO             WBO to atom ...
     1  C   3.881        O    3 2.008    C    2 1.808
     2  C   3.906        C    1 1.808    H    5 0.917    H    4 0.917    O    3 0.265
     3  O   2.354        C    1 2.008    C    2 0.265
     4  H   0.991        C    2 0.917
     5  H   0.991        C    2 0.917

MOs/occ written to file <molden.input>


molecular dipole:
                 x           y           z       tot (Debye)
 q only:       -0.691       0.104       0.027
   full:       -0.795       0.119       0.031       2.045
molecular quadrupole (traceless):
                xx          xy          yy          xz          yz          zz
 q only:       -2.249       0.562       1.317       0.177       0.342       0.932
  q+dip:       -1.941       0.579       1.559       0.236       0.965       0.382
   full:       -3.305       0.902       2.279       0.328       1.049       1.026

           -------------------------------------------------
          |                Geometry Summary                 |
           -------------------------------------------------

      molecular mass/u    :       42.0367582
   center of mass at/Å    :        0.7395662      -0.1107115      -0.0289817
  moments of inertia/u·Å² :        0.1697548E+01   0.4838941E+02   0.5008695E+02
rotational constants/cm⁻¹ :        0.9930578E+01   0.3483744E+00   0.3365673E+00

 * 4 selected distances

     #   Z        #   Z                                     value/Å
     1   6 C      2   6 C                                 1.2885693 (max)
     1   6 C      3   8 O                                 1.1620565
     2   6 C      4   1 H                                 1.0721854 (min)
     2   6 C      5   1 H                                 1.0724792
Molecule has the following symmetry elements: (C2) 2*(sigma) 
It seems to be the C2v point group

 * 3 distinct bonds (by element types)

   Z      Z             #   av. dist./Å        max./Å        min./Å
   1 H    6 C           2     1.0723323     1.0724792     1.0721854
   6 C    6 C           1     1.2885693     1.2885693     1.2885693
   6 C    8 O           1     1.1620565     1.1620565     1.1620565

           -------------------------------------------------
          |               Frequency Printout                |
           -------------------------------------------------
 projected vibrational frequencies (cm-1)
eigval :       -0.00    -0.00     0.00     0.00     0.00     0.00
eigval :      385.65   437.74   678.23   888.63  1198.75  1376.46
eigval :     2306.69  3135.98  3157.14
 reduced masses (amu)
   1: 10.78   2: 13.53   3: 14.89   4: 12.41   5: 10.02   6:  2.60   7:  8.54   8: 12.42
   9:  3.31  10:  6.49  11:  6.36  12:  8.42  13: 12.70  14:  1.56  15:  2.09
 IR intensities (amu)
   1:  0.14   2:  0.12   3:  0.12   4:  0.21   5:  0.13   6:  0.04   7:  0.31   8:  0.83
   9:  0.27  10:  0.40  11:  0.41  12:  0.07  13:  3.55  14:  0.30  15:  0.07
 Raman intensities (amu)
   1:  0.00   2:  0.00   3:  0.00   4:  0.00   5:  0.00   6:  0.00   7:  0.00   8:  0.00
   9:  0.00  10:  0.00  11:  0.00  12:  0.00  13:  0.00  14:  0.00  15:  0.00
 output can be read by thermo (or use thermo option).
 writing <g98.out> molden fake output.
 recommended (thermochemical) frequency scaling factor: 1.0
           -------------------------------------------------
          |             Thermodynamic Functions             |
           -------------------------------------------------

c2v symmetry found (for desy threshold:  0.10E+00) used in thermo

          ...................................................
          :                      SETUP                      :
          :.................................................:
          :  # frequencies                           9      :
          :  # imaginary freq.                       0      :
          :  linear?                             false      :
          :  only rotor calc.                    false      :
          :  symmetry                              c2v      :
          :  rotational number                       2      :
          :  scaling factor                  1.0000000      :
          :  rotor cutoff                   50.0000000 cm⁻¹ :
          :  imag. cutoff                  -20.0000000 cm⁻¹ :
          :.................................................:

    mode    ω/cm⁻¹     T·S(HO)/kcal·mol⁻¹    T·S(FR)/kcal·mol⁻¹   T·S(vib)
   ------------------------------------------------------------------------
   ------------------------------------------------------------------------

   temp. (K)  partition function   enthalpy   heat capacity  entropy
                                   cal/mol     cal/K/mol   cal/K/mol   J/K/mol
 298.15  VIB   1.43                  502.823      4.600      2.392
         ROT  0.245E+04              888.752      2.981     18.489
         INT  0.349E+04             1391.575      7.581     20.881
         TR   0.264E+27             1481.254      4.968     37.118
         TOT                        2872.8294    12.5493    57.9989   242.6673

   temp. (K)  partition function   enthalpy   heat capacity  entropy
                                   cal/mol     cal/K/mol   cal/K/mol   J/K/mol
 120.00  VIB   1.02                   18.175      0.760      0.182
         ROT   626.                  357.707      2.981     15.776
         INT   635.                  375.882      3.741     15.959
         TR   0.673E+26              596.178      4.968     32.599
         TOT                         972.0602     8.7094    48.5572   203.1632

   temp. (K)  partition function   enthalpy   heat capacity  entropy
                                   cal/mol     cal/K/mol   cal/K/mol   J/K/mol
 100.00  VIB   1.01                    6.736      0.397      0.079
         ROT   476.                  298.089      2.981     15.233
         INT   479.                  304.825      3.378     15.312
         TR   0.512E+26              496.815      4.968     31.693
         TOT                         801.6396     8.3465    47.0050   196.6689

   temp. (K)  partition function   enthalpy   heat capacity  entropy
                                   cal/mol     cal/K/mol   cal/K/mol   J/K/mol
  80.00  VIB   1.00                    1.560      0.142      0.022
         ROT   341.                  238.471      2.981     14.568
         INT   341.                  240.032      3.123     14.590
         TR   0.367E+26              397.452      4.968     30.585
         TOT                         637.4836     8.0907    45.1750   189.0121

   temp. (K)  partition function   enthalpy   heat capacity  entropy
                                   cal/mol     cal/K/mol   cal/K/mol   J/K/mol
  60.00  VIB   1.00                    0.141      0.022      0.003
         ROT   221.                  178.853      2.981     13.710
         INT   221.                  178.994      3.003     13.713
         TR   0.238E+26              298.089      4.968     29.157
         TOT                         477.0834     7.9715    42.8691   179.3645

   temp. (K)  partition function   enthalpy   heat capacity  entropy
                                   cal/mol     cal/K/mol   cal/K/mol   J/K/mol
  40.00  VIB   1.00                    0.001      0.000     -0.000
         ROT   120.                  119.236      2.981     12.501
         INT   120.                  119.237      2.981     12.501
         TR   0.130E+26              198.726      4.968     27.143
         TOT                         317.9628     7.9495    39.6443   165.8717

   temp. (K)  partition function   enthalpy   heat capacity  entropy
                                   cal/mol     cal/K/mol   cal/K/mol   J/K/mol
  20.00  VIB   1.00                    0.000      0.000     -0.001
         ROT   42.6                   59.618      2.981     10.435
         INT   42.6                   59.618      2.981     10.435
         TR   0.458E+25               99.363      4.968     23.701
         TOT                         158.9808     7.9490    34.1358   142.8240

   temp. (K)  partition function   enthalpy   heat capacity  entropy
                                   cal/mol     cal/K/mol   cal/K/mol   J/K/mol
  10.00  VIB   1.00                    0.000      0.000     -0.001
         ROT   15.0                   29.809      2.981      8.369
         INT   15.0                   29.809      2.981      8.368
         TR   0.162E+25               49.681      4.968     20.259
         TOT                          79.4904     7.9490    28.6272   119.7764

       T/K    H(0)-H(T)+PV         H(T)/Eh          T*S/Eh         G(T)/Eh
   ------------------------------------------------------------------------
    298.15    0.457815E-02    0.354821E-01    0.275571E-01    0.792496E-02
    120.00    0.154908E-02    0.324530E-01    0.928570E-02    0.231673E-01
    100.00    0.127749E-02    0.321814E-01    0.749072E-02    0.246907E-01
     80.00    0.101589E-02    0.319198E-01    0.575927E-02    0.261606E-01
     60.00    0.760281E-03    0.316642E-01    0.409898E-02    0.275652E-01
     40.00    0.506706E-03    0.314106E-01    0.252709E-02    0.288836E-01
     20.00    0.253352E-03    0.311573E-01    0.108798E-02    0.300693E-01
     10.00    0.126676E-03    0.310306E-01    0.456204E-03    0.305744E-01 (used)
   ------------------------------------------------------------------------

         :::::::::::::::::::::::::::::::::::::::::::::::::::::
         ::                  THERMODYNAMIC                  ::
         :::::::::::::::::::::::::::::::::::::::::::::::::::::
         :: total free energy          -9.287612169991 Eh   ::
         ::.................................................::
         :: total energy               -9.318186584677 Eh   ::
         :: zero point energy           0.030903942714 Eh   ::
         :: G(RRHO) w/o ZPVE           -0.000329528028 Eh   ::
         :: G(RRHO) contrib.            0.030574414685 Eh   ::
         :::::::::::::::::::::::::::::::::::::::::::::::::::::

optimized geometry written to: xtbopt.xyz


           -------------------------------------------------
          | TOTAL ENERGY               -9.318186584677 Eh   |
          | TOTAL ENTHALPY             -9.287155965947 Eh   |
          | TOTAL FREE ENERGY          -9.287612169991 Eh   |
          | GRADIENT NORM               0.000843365977 Eh/α |
          | HOMO-LUMO GAP               3.687774739877 eV   |
           -------------------------------------------------

------------------------------------------------------------------------
 * finished run on 2020/05/12 at 11:45:14.073     
------------------------------------------------------------------------
 total:
 * wall-time:     0 d,  0 h,  0 min,  0.120 sec
 *  cpu-time:     0 d,  0 h,  0 min,  0.120 sec
 * ratio c/w:     0.999 speedup
 SCF:
 * wall-time:     0 d,  0 h,  0 min,  0.003 sec
 *  cpu-time:     0 d,  0 h,  0 min,  0.003 sec
 * ratio c/w:     0.998 speedup
 ANC optimizer:
 * wall-time:     0 d,  0 h,  0 min,  0.040 sec
 *  cpu-time:     0 d,  0 h,  0 min,  0.040 sec
 * ratio c/w:     1.000 speedup
 numerical hessian:
 * wall-time:     0 d,  0 h,  0 min,  0.060 sec
 *  cpu-time:     0 d,  0 h,  0 min,  0.060 sec
 * ratio c/w:     0.998 speedup

