5
 energy: -9.318186584668 gnorm: 0.000843398437 xtb: 6.2.2 (9d81278992624c895f80dd42a50cac0aa55982e2)
C         0.75369663889615   -0.11264042595736   -0.02989378429819
C        -0.51971306067886    0.07805051314735    0.01986110346207
O         1.90204863251339   -0.28505340996682   -0.07390274872699
H        -0.93164623075147    0.95322545996175    0.48242063484791
H        -1.20438597997920   -0.63358213718492   -0.39848520528480
