[Molden Format]
[Title]
[Atoms] AU
C      1     6  0.14242800964202E+01 -0.21285953587152E+00 -0.56491059910984E-01
C      2     6 -0.98211525695353E+00  0.14749408005050E+00  0.37532042593943E-01
O      3     8  0.35943506576858E+01 -0.53867282574995E+00 -0.13965594199378E+00
H      4     1 -0.17605560578160E+01  0.18013348872205E+01  0.91164279214853E+00
H      5     1 -0.22759594393365E+01 -0.11972966056495E+01 -0.75302783283771E+00
[GTO]
           1 0
 s           4   1.0000000000000000     
   51.049363095579913      -0.16312063210127389     
   8.7911227406887544      -0.19911024581000730     
  0.70640422258929825       0.31882047753655751     
  0.26922813413411617       0.12706504184240380     
 p           4   1.0000000000000000     
   5.8263656140800002       0.73716451545209605     
   1.5106896018720002       0.68216371614850257     
  0.53256483288000001       0.35783053929253711     
  0.21202323690600003        5.3983030275847881E-002

           2 0
 s           4   1.0000000000000000     
   51.049363095579913      -0.16312063210127389     
   8.7911227406887544      -0.19911024581000730     
  0.70640422258929825       0.31882047753655751     
  0.26922813413411617       0.12706504184240380     
 p           4   1.0000000000000000     
   5.8263656140800002       0.73716451545209605     
   1.5106896018720002       0.68216371614850257     
  0.53256483288000001       0.35783053929253711     
  0.21202323690600003        5.3983030275847881E-002

           3 0
 s           4   1.0000000000000000     
   69.137961906196551      -0.20478756370077797     
   11.906129132707308      -0.24997023136827334     
  0.95670827744340703       0.40025880240639616     
  0.36462520496073686       0.15952206667693555     
 p           4   1.0000000000000000     
   8.2124193257781641        1.1321556799186829     
   2.1293576997098116        1.0476840782254817     
  0.75066448202360914       0.54956508217158984     
  0.29885246543283073        8.2908486592766617E-002

           4 0
 s           3   1.0000000000000000     
   3.3702276975336001       0.27359110588908298     
  0.61389118221497996       0.26460540653860526     
  0.16614291148415999        8.2465947534082318E-002

           5 0
 s           3   1.0000000000000000     
   3.3702276975336001       0.27359110588908298     
  0.61389118221497996       0.26460540653860526     
  0.16614291148415999        8.2465947534082318E-002

[MO]
Sym=     1a
Ene=  -0.74688263846844083     
Spin= Alpha
Occup=     2.00000000
           1 -0.34336287151997880     
           2 -0.22046384866624127     
           3   3.3101762642763780E-002
           4   8.4414925603733034E-003
           5  -2.4492536111334649E-002
           6  -4.0224002197466809E-002
           7   6.0290804241008673E-003
           8   1.5607273282337837E-003
           9 -0.64774048692599195     
          10  0.22253604701256657     
          11  -3.3422101233607796E-002
          12  -8.5201747382662868E-003
          13  -2.0961926729482811E-003
          14  -2.0921922526564319E-003
Sym=     2a
Ene=  -0.64986098037051754     
Spin= Alpha
Occup=     2.00000000
           1  0.43603057298006076     
           2 -0.24971422960695663     
           3   3.7403892965669566E-002
           4   9.7802851727592163E-003
           5  0.38356577618459087     
           6  0.16556281153754251     
           7  -2.4780763661866642E-002
           8  -6.4339990492674869E-003
           9 -0.35646634436685942     
          10 -0.26801879237522291     
          11   4.0175661779424506E-002
          12   1.0412761555250545E-002
          13   8.4460654581394290E-002
          14   8.4364628896950483E-002
Sym=     3a
Ene=  -0.58249059980785989     
Spin= Alpha
Occup=     2.00000000
           1  0.12229796576175328     
           2  0.20875425820061824     
           3  -3.1165087267340637E-002
           4  -9.0277386858707235E-003
           5 -0.37221995157518245     
           6   7.5682261789815533E-002
           7  -1.1354486454324067E-002
           8  -3.2875917778127594E-003
           9 -0.49715628099998982     
          10 -0.55291916015270981     
          11   8.3203843581186945E-002
          12   2.0003726698692353E-002
          13 -0.17730326763654858     
          14 -0.17709924719580375     
Sym=     4a
Ene=  -0.57396465902184268     
Spin= Alpha
Occup=     2.00000000
           1  -3.1207102002591162E-005
           2  -7.5917293493811905E-002
           3 -0.44178924969877875     
           4 -0.24525330969254239     
           5   2.9256490788543067E-004
           6  -2.8583607166980125E-002
           7 -0.16659417773024768     
           8  -9.2480810080556017E-002
           9   3.3463530939460771E-004
          10  -9.7757236035051764E-002
          11 -0.57258733635156267     
          12 -0.31783613629294494     
          13  -9.0820457304845073E-002
          14   9.1018418415638611E-002
Sym=     5a
Ene=  -0.57063260577595420     
Spin= Alpha
Occup=     2.00000000
           1  -5.0838085404088691E-005
           2  -1.9229802394083711E-002
           3 -0.24719682267351648     
           4  0.45124168934745823     
           5  -7.6245902817444438E-004
           6  -5.4046761795176817E-003
           7  -7.0455549037692342E-002
           8  0.12858858387434477     
           9  -7.9808938895052054E-004
          10  -2.8162756415467019E-002
          11 -0.33966909009304574     
          12  0.62058078216336310     
          13  -3.2143952069058654E-004
          14  -3.2184994954590916E-004
Sym=     6a
Ene=  -0.51328067364622831     
Spin= Alpha
Occup=     2.00000000
           1 -0.18139176414687860     
           2  0.30749154087295932     
           3  -4.6166708032056365E-002
           4  -1.1827664810124322E-002
           5  0.15492762996664342     
           6 -0.47675181029841873     
           7   7.1278006942648450E-002
           8   1.8975655173976133E-002
           9 -0.18126202958480603     
          10 -0.35089008747823364     
          11   5.2704878597852889E-002
          12   1.3198617613461555E-002
          13  0.29527842006160648     
          14  0.29533573556021936     
Sym=     7a
Ene=  -0.48677428331408279     
Spin= Alpha
Occup=     2.00000000
           1  -5.2213949402584703E-005
           2  -6.6027061661043764E-004
           3  -4.1681901208872113E-003
           4  -2.3114916946976025E-003
           5  -1.2386827346270253E-004
           6   7.6530685894618505E-002
           7  0.44614442358428863     
           8  0.24766771721645509     
           9  -1.7242303438025166E-005
          10  -6.3670691595654527E-002
          11 -0.37134585026105038     
          12 -0.20614361866956590     
          13  0.38426843633545144     
          14 -0.38434454105583765     
Sym=     8a
Ene=  -0.39037672659643041     
Spin= Alpha
Occup=     2.00000000
           1  -2.8306800906991328E-005
           2  -1.3949595643738162E-002
           3 -0.17429450027802820     
           4  0.31828151017325412     
           5  -3.3157873514740705E-004
           6  -2.7137429386385633E-002
           7 -0.35296216701942340     
           8  0.64420559540820610     
           9  -5.2522418938038953E-005
          10   2.1530174307610672E-002
          11  0.26648537741888695     
          12 -0.48669491201079274     
          13  -2.9762858015452813E-005
          14  -2.9787165641083431E-005
Sym=     9a
Ene=  -0.25485349861297052     
Spin= Alpha
Occup=     0.00000000
           1   7.1582160956689132E-005
           2  0.12933916991983796     
           3  0.75481473161162649     
           4  0.41901330601093834     
           5  -9.6006582880767417E-005
           6  -5.1813826927024258E-003
           7  -3.0675610782410396E-002
           8  -1.7025276335811215E-002
           9  -1.5576745441277293E-006
          10  -9.6880152314933798E-002
          11 -0.56540988437680928     
          12 -0.31387057156915671     
          13 -0.28583914816347639     
          14  0.28593692975834772     
Sym=    10a
Ene=  -0.16553521564707210     
Spin= Alpha
Occup=     0.00000000
           1  -7.0598465921592414E-004
           2  -3.2474349857899730E-002
           3 -0.40940689699360622     
           4  0.74753426457513761     
           5   9.0338845863643187E-004
           6   2.6405532837140283E-002
           7  0.33885594691165061     
           8 -0.61856949292529828     
           9   1.1494179576843656E-004
          10   1.8962489023404149E-002
          11  0.24183062902552127     
          12 -0.44148966928318073     
          13  -4.8034112452106757E-004
          14  -4.8057877071743687E-004
Sym=    11a
Ene=   0.13505349916094936     
Spin= Alpha
Occup=     0.00000000
           1 -0.45149934547923687     
           2   2.0472030186096505E-002
           3  -2.1436924210377472E-003
           4  -1.2711597532507114E-003
           5   1.1012662890870983     
           6 -0.26907271681331563     
           7   3.8470099106976262E-002
           8   1.0897236475948476E-002
           9  0.17759841264603590     
          10 -0.28942382776547265     
          11   4.3078128930671020E-002
          12   1.1297059688702845E-002
          13 -0.70443783563642004     
          14 -0.70644619802061714     
Sym=    12a
Ene=   0.32589305744624297     
Spin= Alpha
Occup=     0.00000000
           1   1.5201206480729772E-003
           2   4.8423948696574987E-002
           3  0.28142587798571161     
           4  0.15623567281610953     
           5  -1.6356226899316777E-003
           6 -0.17201287028914039     
           7  -1.0006258864754809     
           8 -0.55549379916668584     
           9  -6.7244241032620225E-004
          10  -1.6032855748822020E-002
          11  -9.9152164119666292E-002
          12  -5.4999953716939068E-002
          13  0.83281570619797318     
          14 -0.83122977793034070     
Sym=    13a
Ene=   0.35494194312471672     
Spin= Alpha
Occup=     0.00000000
           1  -1.1096317585934061     
           2  -3.7341172624084122E-003
           3   1.0677939396558792E-003
           4  -2.5596830795531113E-004
           5   2.8123093961847492E-002
           6  0.93443857026436539     
           7 -0.14079504886949018     
           8  -3.7167820189677812E-002
           9  0.39512119607575519     
          10 -0.56981938103916663     
          11   8.5381173644003591E-002
          12   2.1963667115596813E-002
          13  0.36072625226717592     
          14  0.35935030917169342     
Sym=    14a
Ene=    1.1778808186089216     
Spin= Alpha
Occup=     0.00000000
           1   5.2347069680201815E-002
           2   1.4755774277832754     
           3 -0.22130450007901056     
           4  -5.7061576684779833E-002
           5  0.67642855432235638     
           6  0.75980475182472329     
           7 -0.11355599111845809     
           8  -2.9823783970969756E-002
           9 -0.80242593645556159     
          10  0.73369946902883720     
          11 -0.11021635366662105     
          12  -2.7987764503977761E-002
          13   6.7667402243993743E-002
          14   6.7959767092148890E-002
