$hessian                                                                        
        0.8824496484  -0.0421414343   0.0842363770  -0.2290541951   0.1825957113
       -0.0437353271  -0.1071285854  -0.0031955716  -0.0017513670  -0.2042040434
       -0.1684913347  -0.0560254867  -0.3420628245   0.0312326293   0.0172758037
       -0.0421414343   0.2584461430   0.0275486204   0.1425405028  -0.0698973181
        0.0197638307   0.0136821710  -0.0270000578   0.0062516709  -0.1422131876
       -0.1243665730  -0.0478415051   0.0281319481  -0.0371821941  -0.0057226168
        0.0842363770   0.0275486204   0.0494121101  -0.0258096158   0.0456949949
       -0.0222407021  -0.0063714846  -0.0046261374   0.0142706010  -0.0603898900
       -0.0663872518  -0.0351250361   0.0083346134  -0.0022302260  -0.0063169728
       -0.2290541951   0.1425405028  -0.0258096158   0.3902944582  -0.0285002648
        0.0008348133  -0.1643033207  -0.1307769173   0.0411503726   0.0107942956
        0.0058156156  -0.0093192376  -0.0077312381   0.0109210638  -0.0068563325
        0.1825957113  -0.0698973181   0.0456949949  -0.0285002648   0.3361462737
       -0.0490080919  -0.1596771332  -0.0590140926   0.0400209295   0.0084911248
       -0.2099908827  -0.0374302429  -0.0029094381   0.0027560198   0.0007224105
       -0.0437353271   0.0197638307  -0.0222407021   0.0008348133  -0.0490080919
        0.0284914783   0.0433344059   0.0193464330  -0.0259583573  -0.0006668495
        0.0113278839   0.0222762700   0.0002329573  -0.0014300557  -0.0025686888
       -0.1071285854   0.0136821710  -0.0063714846  -0.1643033207  -0.1596771332
        0.0433344059   0.4472898644   0.0447538293  -0.0802970718  -0.1720329923
        0.1002558753   0.0438714241  -0.0038249660   0.0009852576  -0.0005372736
       -0.0031955716  -0.0270000578  -0.0046261374  -0.1307769173  -0.0590140926
        0.0193464330   0.0447538293   0.1393518468  -0.0028491785   0.0890952572
       -0.0545436171  -0.0143487253   0.0001234024   0.0012059208   0.0024776081
       -0.0017513670   0.0062516709   0.0142706010   0.0411503726   0.0400209295
       -0.0259583573  -0.0802970718  -0.0028491785   0.0416716422   0.0405297970
       -0.0429584980  -0.0352749648   0.0003682692  -0.0004649239   0.0052910789
       -0.2042040434  -0.1422131876  -0.0603898900   0.0107942956   0.0084911248
       -0.0006668495  -0.1720329923   0.0890952572   0.0405297970   0.3766602058
        0.0586171174   0.0211980619  -0.0112174657  -0.0139903119  -0.0006711193
       -0.1684913347  -0.1243665730  -0.0663872518   0.0058156156  -0.2099908827
        0.0113278839   0.1002558753  -0.0545436171  -0.0429584980   0.0586171174
        0.3858672195   0.0977218749   0.0038027264   0.0030338534   0.0002959910
       -0.0560254867  -0.0478415051  -0.0351250361  -0.0093192376  -0.0374302429
        0.0222762700   0.0438714241  -0.0143487253  -0.0352749648   0.0211980619
        0.0977218749   0.0515247934   0.0002752384   0.0018985984  -0.0034010625
       -0.3420628245   0.0281319481   0.0083346134  -0.0077312381  -0.0029094381
        0.0002329573  -0.0038249660   0.0001234024   0.0003682692  -0.0112174657
        0.0038027264   0.0002752384   0.3648364943  -0.0291486388  -0.0092110783
        0.0312326293  -0.0371821941  -0.0022302260   0.0109210638   0.0027560198
       -0.0014300557   0.0009852576   0.0012059208  -0.0004649239  -0.0139903119
        0.0030338534   0.0018985984  -0.0291486388   0.0301864001   0.0022266072
        0.0172758037  -0.0057226168  -0.0063169728  -0.0068563325   0.0007224105
       -0.0025686888  -0.0005372736   0.0024776081   0.0052910789  -0.0006711193
        0.0002959910  -0.0034010625  -0.0092110783   0.0022266072   0.0069956452
