$hessian                                                                        
        0.1170149917   0.0031434488   0.0628132778  -0.1314235683  -0.0000725550
       -0.0113349208   0.0518450355  -0.0020504512  -0.0298018466  -0.0187903769
       -0.0070005531  -0.0105163192  -0.0186460821   0.0059801105  -0.0111601912
        0.0031434488   0.0153626850   0.0125408580  -0.0048179175  -0.0154226215
       -0.0000586822   0.0018382353  -0.0040206194  -0.0122220805  -0.0070624635
        0.0016502585  -0.0083917449   0.0068986968   0.0024302974   0.0081316497
        0.0628132778   0.0125408580   0.2335402349  -0.0923307025   0.0003486141
       -0.0174886183   0.0362417934  -0.0125754051  -0.2137542090  -0.0029477037
        0.0001673236  -0.0007443795  -0.0037766650  -0.0004813906  -0.0015530281
       -0.1314235683  -0.0048179175  -0.0923307025   0.4923166213   0.0005153094
        0.0049302828  -0.1338582536   0.0059182529   0.0894778792  -0.1149846725
       -0.1257658925   0.0063024098  -0.1120501269   0.1241502478  -0.0083798692
       -0.0000725550  -0.0154226215   0.0003486141   0.0005153094   0.5354847736
       -0.0267214545   0.0011826805  -0.0154874840  -0.0004948381  -0.1480887443
       -0.2510118486   0.0115851144   0.1464633094  -0.2535628195   0.0152825642
       -0.0113349208  -0.0000586822  -0.0174886183   0.0049302828  -0.0267214545
        0.0791253994   0.0084200032  -0.0000332890  -0.0150107878   0.0075832245
        0.0118296854  -0.0231233444  -0.0095985896   0.0149837404  -0.0235026488
        0.0518450355   0.0018382353   0.0362417934  -0.1338582536   0.0011826805
        0.0084200032   0.1200747907  -0.0044301854  -0.0654770327  -0.0191048074
       -0.0057712986   0.0108097964  -0.0189567653   0.0071805682   0.0100054398
       -0.0020504512  -0.0040206194  -0.0125754051   0.0059182529  -0.0154874840
       -0.0000332890  -0.0044301854   0.0154385467   0.0130539903  -0.0068985581
        0.0025520864   0.0078636088   0.0074609419   0.0015174703  -0.0083089050
       -0.0298018466  -0.0122220805  -0.2137542090   0.0894778792  -0.0004948381
       -0.0150107878  -0.0654770327   0.0130539903   0.2303876596   0.0033201889
       -0.0006562855  -0.0011920788   0.0024808113   0.0003192138  -0.0004305839
       -0.0187903769  -0.0070624635  -0.0029477037  -0.1149846725  -0.1480887443
        0.0075832245  -0.0191048074  -0.0068985581   0.0033201889   0.1423445579
        0.1505014242  -0.0073491909   0.0105352988   0.0115483417  -0.0006065187
       -0.0070005531   0.0016502585   0.0001673236  -0.1257658925  -0.2510118486
        0.0118296854  -0.0057712986   0.0025520864  -0.0006562855   0.1505014242
        0.2758452812  -0.0131871039  -0.0119636800  -0.0290357775   0.0018463804
       -0.0105163192  -0.0083917449  -0.0007443795   0.0063024098   0.0115851144
       -0.0231233444   0.0108097964   0.0078636088  -0.0011920788  -0.0073491909
       -0.0131871039   0.0204243522   0.0007533040   0.0021301256   0.0046354505
       -0.0186460821   0.0068986968  -0.0037766650  -0.1120501269   0.1464633094
       -0.0095985896  -0.0189567653   0.0074609419   0.0024808113   0.0105352988
       -0.0119636800   0.0007533040   0.1391176755  -0.1488592681   0.0101411393
        0.0059801105   0.0024302974  -0.0004813906   0.1241502478  -0.2535628195
        0.0149837404   0.0071805682   0.0015174703   0.0003192138   0.0115483417
       -0.0290357775   0.0021301256  -0.1488592681   0.2786508293  -0.0169516892
       -0.0111601912   0.0081316497  -0.0015530281  -0.0083798692   0.0152825642
       -0.0235026488   0.0100054398  -0.0083089050  -0.0004305839  -0.0006065187
        0.0018463804   0.0046354505   0.0101411393  -0.0169516892   0.0208508103
