      -----------------------------------------------------------      
     |                   =====================                   |     
     |                           x T B                           |     
     |                   =====================                   |     
     |                         S. Grimme                         |     
     |          Mulliken Center for Theoretical Chemistry        |     
     |                    University of Bonn                     |     
      -----------------------------------------------------------      

   * xtb version 6.2.2 (9d81278992624c895f80dd42a50cac0aa55982e2) compiled by '@Darwin' on 04/03/2020

   xtb is free software: you can redistribute it and/or modify it under
   the terms of the GNU Lesser General Public License as published by
   the Free Software Foundation, either version 3 of the License, or
   (at your option) any later version.
   
   xtb is distributed in the hope that it will be useful,
   but WITHOUT ANY WARRANTY; without even the implied warranty of
   MERCHANTABILITY or FITNESS FOR A PARTICULAR PURPOSE.  See the
   GNU Lesser General Public License for more details.
   
   Cite this work as:
   * S. Grimme, C. Bannwarth, P. Shushkov, J. Chem. Theory Comput., 2017,
     13, 1989-2009. DOI: 10.1021/acs.jctc.7b00118
   * C. Bannwarth, S. Ehlert and S. Grimme., J. Chem. Theory Comput., 2019,
     15, 1652-1671. DOI: 10.1021/acs.jctc.8b01176
   * P. Pracht, E. Caldeweyher, S. Ehlert, S. Grimme, ChemRxiv, 2019, preprint.
     DOI: 10.26434/chemrxiv.8326202.v1
   
   for DFT-D4:
   * E. Caldeweyher, C. Bannwarth and S. Grimme, J. Chem. Phys., 2017,
     147, 034112. DOI: 10.1063/1.4993215
   * E. Caldeweyher, S. Ehlert, A. Hansen, H. Neugebauer, S. Spicher,
     C. Bannwarth and S. Grimme, J. Chem. Phys., 2019, 150, 154122.
     DOI: 10.1063/1.5090222
   
   for sTDA-xTB:
   * S. Grimme and C. Bannwarth, J. Chem. Phys., 2016, 145, 054103.
     DOI: 10.1063/1.4959605
   
   in the mass-spec context:
   * V. Asgeirsson, C. Bauer and S. Grimme, Chem. Sci., 2017, 8, 4879.
     DOI: 10.1039/c7sc00601b
   
   for metadynamics refer to:
   * S. Grimme, J. Chem. Theory Comput., 2019, 155, 2847-2862
     DOI: 10.1021/acs.jctc.9b00143
   
   with help from (in alphabetical order)
   C. Bannwarth, F. Bohle, G. Brandenburg, E. Caldeweyher, M. Checinski,
   S. Dohm, S. Ehlert, S. Ehrlich, F. März, H. Neugebauer, J. Pisarek,
   P. Pracht, P. Shushkov, and S. Spicher.
   
 * started run on 2020/05/12 at 11:44:09.109     

           -------------------------------------------------
          |                Calculation Setup                |
           -------------------------------------------------

          program call               : xtb --input C4N1_25_S_3.input C4N1_25_S_3.xyz --ohess --molden --namespace C4N1_25_S_3 output.out
          calculation namespace      : C4N1_25_S_3
          coordinate file            : C4N1_25_S_3.xyz
          number of atoms            :                     5
          number of electrons        :                    21
          charge                     :                     0
          spin                       :                   1.5
          first test random number   :      0.80933185280630

   ID    Z sym.   atoms
    1    6 C      1, 3-5
    2    7 N      2

           -------------------------------------------------
          |                 G F N 2 - x T B                 |
           -------------------------------------------------

        Reference                      10.1021/acs.jctc.8b01176
      * Hamiltonian:
        H0-scaling (s, p, d)           1.850000    2.230000    2.230000
        zeta-weighting                 0.500000
      * Dispersion:
        s8                             2.700000
        a1                             0.520000
        a2                             5.000000
        s9                             5.000000
      * Repulsion:
        kExp                           1.500000    1.000000
        rExp                           1.000000
      * Coulomb:
        alpha                          2.000000
        third order                    shell-resolved
        anisotropic                    true
        a3                             3.000000
        a5                             4.000000
        cn-shift                       1.200000
        cn-exp                         4.000000
        max-rad                        5.000000


          ...................................................
          :                      SETUP                      :
          :.................................................:
          :  # basis functions                  20          :
          :  # atomic orbitals                  20          :
          :  # shells                           10          :
          :  # electrons                        21          :
          :  max. iterations                   250          :
          :  Hamiltonian                  GFN2-xTB          :
          :  restarted?                      false          :
          :  GBSA solvation                  false          :
          :  PC potential                    false          :
          :  electronic temp.          300.0000000     K    :
          :  accuracy                    1.0000000          :
          :  -> integral cutoff          0.2500000E+02      :
          :  -> integral neglect         0.1000000E-07      :
          :  -> SCF convergence          0.1000000E-05 Eh   :
          :  -> wf. convergence          0.1000000E-03 e    :
          :  Broyden damping             0.4000000          :
          ...................................................

 iter      E             dE          RMSdq      gap      omega  full diag
   1    -10.8623570 -0.108624E+02  0.102E+01    0.27       0.0  T
   2    -10.2599529  0.602404E+00  0.105E+01    1.70       1.0  T
   3     -9.7911526  0.468800E+00  0.104E+01    1.03       1.0  T
   4    -10.7964564 -0.100530E+01  0.503E+00    0.76       1.0  T
   5    -10.9503387 -0.153882E+00  0.216E+00    0.40       1.0  T
   6    -10.9503036  0.350844E-04  0.212E+00    0.31       1.0  T
   7    -10.9500880  0.215551E-03  0.198E+00    0.31       1.0  T
   8    -10.9532523 -0.316430E-02  0.122E+00    0.34       1.0  T
   9    -10.9551996 -0.194725E-02  0.487E-01    0.33       1.0  T
  10    -10.9553542 -0.154619E-03  0.296E-01    0.32       1.0  T
  11    -10.9554774 -0.123222E-03  0.616E-02    0.32       1.0  T
  12    -10.9554972 -0.198112E-04  0.245E-02    0.32       1.8  T
  13    -10.9554979 -0.684966E-06  0.113E-02    0.32       4.0  T
  14    -10.9554988 -0.852448E-06  0.281E-03    0.32      15.9  T
  15    -10.9554988 -0.699001E-08  0.421E-04    0.32     106.2  T
  16    -10.9554988 -0.874376E-10  0.112E-04    0.32     399.9  T

   *** convergence criteria satisfied after 16 iterations ***

         #    Occupation            Energy/Eh            Energy/eV
      -------------------------------------------------------------
         1        2.0000           -0.7932911             -21.5865
       ...           ...                  ...                  ...
         6        2.0000           -0.5649473             -15.3730
         7        2.0000           -0.5338512             -14.5268
         8        2.0000           -0.5252498             -14.2928
         9        1.9999           -0.4770423             -12.9810
        10        1.0001           -0.4594531             -12.5024
        11        1.0000           -0.4165697             -11.3354
        12        0.9980           -0.3897281             -10.6050 (HOMO)
        13        0.0020           -0.3779246             -10.2839 (LUMO)
        14                         -0.3216791              -8.7533
        15                         -0.2800494              -7.6205
        16                         -0.0603658              -1.6426
        17                         -0.0425102              -1.1568
       ...                                ...                  ...
        20                          0.2195011               5.9729
      -------------------------------------------------------------
                  HL-Gap            0.0118035 Eh            0.3212 eV
             Fermi-level           -0.4260371 Eh          -11.5931 eV

 SCC (total)                   0 d,  0 h,  0 min,  0.006 sec
 SCC setup                      ...        0 min,  0.000 sec (  1.883%)
 Dispersion                     ...        0 min,  0.000 sec (  0.637%)
 integral evaluation            ...        0 min,  0.002 sec ( 33.452%)
 zeroth order Hamiltonian       ...        0 min,  0.000 sec (  0.423%)
 iterations                     ...        0 min,  0.002 sec ( 33.311%)
 molecular gradient             ...        0 min,  0.002 sec ( 27.389%)
 printout                       ...        0 min,  0.000 sec (  2.706%)

         :::::::::::::::::::::::::::::::::::::::::::::::::::::
         ::                     SUMMARY                     ::
         :::::::::::::::::::::::::::::::::::::::::::::::::::::
         :: total energy             -10.871393951617 Eh    ::
         :: gradient norm              0.106234807375 Eh/a0 ::
         :: HOMO-LUMO gap              0.321189953936 eV    ::
         ::.................................................::
         :: SCC energy               -10.955498781672 Eh    ::
         :: -> isotropic ES           -0.029408447196 Eh    ::
         :: -> anisotropic ES          0.005671428782 Eh    ::
         :: -> anisotropic XC          0.005930086392 Eh    ::
         :: -> dispersion             -0.003058424845 Eh    ::
         :: repulsion energy           0.084104753232 Eh    ::
         :: add. restraining           0.000000000000 Eh    ::
         :::::::::::::::::::::::::::::::::::::::::::::::::::::

      ----------------------------------------------------------- 
     |                   =====================                   |
     |                        A N C O P T                        |
     |                   =====================                   |
     |               Approximate Normal Coordinate               |
     |                Rational Function Optimizer                |
      ----------------------------------------------------------- 

          ...................................................
          :                      SETUP                      :
          :.................................................:
          :   optimization level            normal          :
          :   max. optcycles                   200          :
          :   ANC micro-cycles                  20          :
          :   degrees of freedom                 9          :
          :.................................................:
          :   RF solver                   davidson          :
          :   write xtbopt.log                true          :
          :   linear?                        false          :
          :   energy convergence         0.5000000E-05 Eh   :
          :   grad. convergence          0.1000000E-02 Eh/α :
          :   maximium RF displ.         1.0000000          :
          :   Hlow (freq-cutoff)         0.1000000E-01      :
          :   Hmax (freq-cutoff)         5.0000000          :
          :   S6 in model hess.         20.0000000          :
          ...................................................

generating ANC from model Hessian ...
Using Lindh-Hessian (1995)
 Shifting diagonal of input Hessian by    0.0000000000000000     
 Lowest  eigenvalues of input Hessian
   -0.000000   -0.000000   -0.000000    0.000000    0.000000    0.000000
    0.107650    0.116857    0.168049    0.638181    0.681802    1.041508
    1.090931    1.443688    1.544181
 Highest eigenvalues
    0.638181    0.681802    1.041508    1.090931    1.443688    1.544181


........................................................................
.............................. CYCLE    1 ..............................
........................................................................
   1    -10.9554988 -0.109555E+02  0.135E-05    0.32       0.0  T
   2    -10.9554988  0.182627E-10  0.485E-05    0.32     922.9  T
   3    -10.9554988 -0.190337E-10  0.905E-06    0.32    4940.0  T
     SCC iter.                  ...        0 min,  0.000 sec
     gradient                   ...        0 min,  0.001 sec
 * total energy  :   -10.8713940 Eh     change       -0.1539011E-08 Eh
   gradient norm :     0.1062341 Eh/α   predicted     0.0000000E+00 (-100.00%)
   displ. norm   :     0.2485826 α      lambda       -0.1847341E-01
   maximum displ.:     0.1854481 α      in ANC's #1, #3, #4, ...

........................................................................
.............................. CYCLE    2 ..............................
........................................................................
   1    -10.9830368 -0.109830E+02  0.145E+00    0.37       0.0  T
   2    -10.9611246  0.219122E-01  0.189E+00    0.52       1.0  T
   3    -10.9665209 -0.539622E-02  0.154E+00    0.34       1.0  T
   4    -10.9830826 -0.165617E-01  0.404E-01    0.40       1.0  T
   5    -10.9844052 -0.132258E-02  0.137E-01    0.41       1.0  T
   6    -10.9845339 -0.128752E-03  0.580E-02    0.40       1.0  T
   7    -10.9845339  0.290854E-07  0.188E-02    0.40       2.4  T
   8    -10.9845371 -0.319361E-05  0.691E-03    0.40       6.5  T
   9    -10.9845374 -0.278819E-06  0.137E-03    0.40      32.6  T
  10    -10.9845374 -0.122507E-07  0.476E-04    0.40      94.0  T
  11    -10.9845374 -0.140715E-08  0.207E-04    0.40     216.0  T
     SCC iter.                  ...        0 min,  0.001 sec
     gradient                   ...        0 min,  0.002 sec
 * total energy  :   -10.8869037 Eh     change       -0.1550977E-01 Eh
   gradient norm :     0.0787248 Eh/α   predicted    -0.9807469E-02 ( -36.77%)
   displ. norm   :     0.4030017 α      lambda       -0.2415946E-01
   maximum displ.:     0.2456702 α      in ANC's #1, #3, #4, ...

........................................................................
.............................. CYCLE    3 ..............................
........................................................................
   1    -11.0125493 -0.110125E+02  0.492E+00    0.52       0.0  T
   2    -10.9011600  0.111389E+00  0.454E+00    0.08       1.0  T
   3    -10.8089607  0.921993E-01  0.573E+00    0.81       1.0  T
   4    -10.9425526 -0.133592E+00  0.311E+00    0.72       1.0  T
   5    -10.9874200 -0.448673E-01  0.259E+00    0.39       1.0  T
   6    -11.0315854 -0.441655E-01  0.797E-01    0.39       1.0  T
   7    -11.0321932 -0.607805E-03  0.657E-01    0.39       1.0  T
   8    -11.0319264  0.266799E-03  0.408E-01    0.38       1.0  T
   9    -11.0322203 -0.293826E-03  0.202E-01    0.38       1.0  T
  10    -11.0322781 -0.578444E-04  0.150E-01    0.38       1.0  T
  11    -11.0323148 -0.367264E-04  0.112E-01    0.38       1.0  T
  12    -11.0323636 -0.488087E-04  0.439E-02    0.37       1.0  T
  13    -11.0323677 -0.401508E-05  0.496E-03    0.37       9.0  T
  14    -11.0323678 -0.105961E-06  0.164E-03    0.37      27.3  T
  15    -11.0323678 -0.381517E-08  0.258E-04    0.37     173.3  T
  16    -11.0323678 -0.128704E-09  0.683E-05    0.37     654.4  T
     SCC iter.                  ...        0 min,  0.002 sec
     gradient                   ...        0 min,  0.001 sec
 * total energy  :   -10.9063625 Eh     change       -0.1945876E-01 Eh
   gradient norm :     0.0784028 Eh/α   predicted    -0.1404161E-01 ( -27.84%)
   displ. norm   :     0.8702636 α      lambda       -0.4977636E-01
   maximum displ.:     0.5056838 α      in ANC's #3, #1, #4, ...

........................................................................
.............................. CYCLE    4 ..............................
........................................................................
   1    -11.1365005 -0.111365E+02  0.463E+00    0.76       0.0  T
   2    -11.0635215  0.729789E-01  0.429E+00    0.52       1.0  T
   3    -11.0454798  0.180418E-01  0.367E+00    1.24       1.0  T
   4    -11.1438526 -0.983728E-01  0.985E-01    0.56       1.0  T
   5    -11.1467594 -0.290680E-02  0.658E-01    0.60       1.0  T
   6    -11.1467544  0.496489E-05  0.619E-01    0.61       1.0  T
   7    -11.1472400 -0.485616E-03  0.187E-01    0.58       1.0  T
   8    -11.1473761 -0.136105E-03  0.568E-02    0.57       1.0  T
   9    -11.1473752  0.883550E-06  0.504E-02    0.57       1.0  T
  10    -11.1473808 -0.555788E-05  0.216E-02    0.57       2.1  T
  11    -11.1473813 -0.492738E-06  0.279E-03    0.57      16.0  T
  12    -11.1473813 -0.127783E-07  0.283E-04    0.57     158.1  T
  13    -11.1473813 -0.399577E-09  0.104E-04    0.57     429.3  T
     SCC iter.                  ...        0 min,  0.001 sec
     gradient                   ...        0 min,  0.001 sec
 * total energy  :   -10.9318104 Eh     change       -0.2544792E-01 Eh
   gradient norm :     0.3342708 Eh/α   predicted    -0.4373739E-01 (  71.87%)
   displ. norm   :     0.4144432 α      lambda       -0.5401269E-01
   maximum displ.:     0.3808661 α      in ANC's #3, #1, #5, ...

........................................................................
.............................. CYCLE    5 ..............................
........................................................................
   1    -11.1191372 -0.111191E+02  0.238E+00    0.98       0.0  T
   2    -11.0454944  0.736428E-01  0.279E+00    1.12       1.0  T
   3    -11.0887932 -0.432988E-01  0.230E+00    1.03       1.0  T
   4    -11.1245644 -0.357712E-01  0.715E-01    0.99       1.0  T
   5    -11.1290582 -0.449378E-02  0.209E-01    0.98       1.0  T
   6    -11.1291450 -0.868404E-04  0.157E-01    0.99       1.0  T
   7    -11.1291383  0.674424E-05  0.578E-02    0.99       1.0  T
   8    -11.1291713 -0.330017E-04  0.933E-03    0.99       4.8  T
   9    -11.1291711  0.188562E-06  0.927E-03    0.99       4.8  T
  10    -11.1291718 -0.677242E-06  0.289E-03    0.99      15.5  T
  11    -11.1291718 -0.905049E-08  0.477E-04    0.99      93.8  T
  12    -11.1291718 -0.884507E-09  0.121E-04    0.99     370.7  T
     SCC iter.                  ...        0 min,  0.001 sec
     gradient                   ...        0 min,  0.001 sec
 * total energy  :   -10.9707286 Eh     change       -0.3891822E-01 Eh
   gradient norm :     0.1219103 Eh/α   predicted    -0.3164505E-01 ( -18.69%)
   displ. norm   :     0.4768899 α      lambda       -0.2964418E-01
   maximum displ.:     0.4118336 α      in ANC's #3, #5, #1, ...

........................................................................
.............................. CYCLE    6 ..............................
........................................................................
   1    -11.1397916 -0.111398E+02  0.273E+00    1.38       0.0  T
   2    -11.1232082  0.165834E-01  0.214E+00    1.35       1.0  T
   3    -11.1124497  0.107585E-01  0.200E+00    1.34       1.0  T
   4    -11.1466207 -0.341710E-01  0.733E-01    1.49       1.0  T
   5    -11.1484027 -0.178199E-02  0.269E-01    1.38       1.0  T
   6    -11.1490336 -0.630971E-03  0.119E-01    1.43       1.0  T
   7    -11.1490577 -0.241028E-04  0.246E-02    1.42       1.8  T
   8    -11.1490631 -0.537430E-05  0.624E-03    1.42       7.2  T
   9    -11.1490631  0.436591E-07  0.319E-03    1.42      14.0  T
  10    -11.1490632 -0.803748E-07  0.439E-04    1.42     101.8  T
  11    -11.1490632 -0.276936E-09  0.218E-04    1.42     205.0  T
     SCC iter.                  ...        0 min,  0.001 sec
     gradient                   ...        0 min,  0.001 sec
 * total energy  :   -10.9713260 Eh     change       -0.5973782E-03 Eh
   gradient norm :     0.1081008 Eh/α   predicted    -0.1819298E-01 (2945.47%)
   displ. norm   :     0.2483144 α      lambda       -0.2122823E-01
   maximum displ.:     0.2356053 α      in ANC's #1, #3, #5, ...

........................................................................
.............................. CYCLE    7 ..............................
........................................................................
   1    -11.1112874 -0.111113E+02  0.134E+00    1.25       0.0  T
   2    -11.0991831  0.121043E-01  0.140E+00    1.26       1.0  T
   3    -11.1081043 -0.892124E-02  0.925E-01    1.27       1.0  T
   4    -11.1133529 -0.524857E-02  0.443E-01    1.18       1.0  T
   5    -11.1144878 -0.113489E-02  0.156E-01    1.28       1.0  T
   6    -11.1146352 -0.147419E-03  0.383E-02    1.25       1.2  T
   7    -11.1146366 -0.135814E-05  0.389E-03    1.25      11.5  T
   8    -11.1146366  0.773422E-08  0.291E-03    1.25      15.4  T
   9    -11.1146365  0.446297E-07  0.332E-03    1.25      13.5  T
  10    -11.1146366 -0.824261E-07  0.181E-04    1.25     247.6  T
  11    -11.1146366 -0.208656E-09  0.627E-05    1.25     713.0  T
     SCC iter.                  ...        0 min,  0.002 sec
     gradient                   ...        0 min,  0.001 sec
 * total energy  :   -10.9785443 Eh     change       -0.7218339E-02 Eh
   gradient norm :     0.0619261 Eh/α   predicted    -0.1126858E-01 (  56.11%)
   displ. norm   :     0.4723422 α      lambda       -0.1154467E-01
   maximum displ.:     0.3648826 α      in ANC's #3, #1, #4, ...

........................................................................
.............................. CYCLE    8 ..............................
........................................................................
   1    -11.1252381 -0.111252E+02  0.197E+00    0.81       0.0  T
   2    -11.1227180  0.252007E-02  0.144E+00    0.83       1.0  T
   3    -11.1053648  0.173533E-01  0.174E+00    0.86       1.0  T
   4    -11.1093688 -0.400405E-02  0.135E+00    0.82       1.0  T
   5    -11.1268665 -0.174977E-01  0.140E-01    0.81       1.0  T
   6    -11.1269630 -0.965363E-04  0.508E-02    0.81       1.0  T
   7    -11.1269631 -0.562480E-07  0.114E-02    0.81       3.9  T
   8    -11.1269635 -0.459045E-06  0.844E-03    0.81       5.3  T
   9    -11.1269641 -0.601481E-06  0.200E-03    0.81      22.3  T
  10    -11.1269641 -0.816791E-08  0.485E-04    0.81      92.2  T
  11    -11.1269641 -0.575533E-09  0.145E-04    0.81     308.0  T
     SCC iter.                  ...        0 min,  0.001 sec
     gradient                   ...        0 min,  0.001 sec
 * total energy  :   -10.9736522 Eh     change        0.4892183E-02 Eh
   gradient norm :     0.0547227 Eh/α   predicted    -0.7060170E-02 (-244.32%)
   displ. norm   :     0.2916554 α      lambda       -0.1307641E-01
   maximum displ.:     0.2241719 α      in ANC's #3, #4, #5, ...

........................................................................
.............................. CYCLE    9 ..............................
........................................................................
   1    -11.1329447 -0.111329E+02  0.129E+00    1.35       0.0  T
   2    -11.1323333  0.611336E-03  0.802E-01    1.34       1.0  T
   3    -11.1284636  0.386975E-02  0.860E-01    1.37       1.0  T
   4    -11.1304090 -0.194539E-02  0.594E-01    1.35       1.0  T
   5    -11.1337769 -0.336794E-02  0.882E-02    1.35       1.0  T
   6    -11.1338449 -0.679755E-04  0.252E-02    1.35       1.8  T
   7    -11.1338449 -0.647706E-08  0.600E-03    1.35       7.5  T
   8    -11.1338453 -0.398225E-06  0.160E-03    1.35      27.9  T
   9    -11.1338453 -0.718919E-08  0.119E-03    1.35      37.5  T
  10    -11.1338453 -0.661192E-08  0.834E-05    1.35     535.9  T
  11    -11.1338453 -0.100595E-10  0.373E-05    1.35    1198.8  T
     SCC iter.                  ...        0 min,  0.001 sec
     gradient                   ...        0 min,  0.001 sec
 * total energy  :   -10.9811555 Eh     change       -0.7503318E-02 Eh
   gradient norm :     0.0148284 Eh/α   predicted    -0.7094362E-02 (  -5.45%)
   displ. norm   :     0.0639053 α      lambda       -0.6198658E-03
   maximum displ.:     0.0404505 α      in ANC's #1, #3, #5, ...

........................................................................
.............................. CYCLE   10 ..............................
........................................................................
   1    -11.1321963 -0.111322E+02  0.261E-01    1.40       0.0  T
   2    -11.1319248  0.271521E-03  0.232E-01    1.40       1.0  T
   3    -11.1319591 -0.343313E-04  0.207E-01    1.40       1.0  T
   4    -11.1321527 -0.193648E-03  0.124E-01    1.40       1.0  T
   5    -11.1322874 -0.134666E-03  0.809E-03    1.40       5.5  T
   6    -11.1322872  0.198132E-06  0.654E-03    1.40       6.8  T
   7    -11.1322874 -0.238054E-06  0.116E-03    1.40      38.5  T
   8    -11.1322875 -0.872268E-08  0.436E-04    1.40     102.5  T
   9    -11.1322875 -0.428564E-09  0.842E-05    1.40     531.3  T
     SCC iter.                  ...        0 min,  0.001 sec
     gradient                   ...        0 min,  0.001 sec
 * total energy  :   -10.9815622 Eh     change       -0.4067489E-03 Eh
   gradient norm :     0.0147204 Eh/α   predicted    -0.3111996E-03 ( -23.49%)
   displ. norm   :     0.0466131 α      lambda       -0.3504363E-03
   maximum displ.:     0.0358263 α      in ANC's #1, #5, #7, ...

........................................................................
.............................. CYCLE   11 ..............................
........................................................................
   1    -11.1327392 -0.111327E+02  0.240E-01    1.38       0.0  T
   2    -11.1322338  0.505421E-03  0.257E-01    1.37       1.0  T
   3    -11.1325784 -0.344599E-03  0.193E-01    1.37       1.0  T
   4    -11.1328094 -0.231012E-03  0.799E-02    1.37       1.0  T
   5    -11.1328489 -0.395572E-04  0.914E-03    1.37       4.9  T
   6    -11.1328495 -0.529671E-06  0.367E-03    1.37      12.2  T
   7    -11.1328495 -0.191350E-07  0.889E-04    1.37      50.3  T
   8    -11.1328495 -0.569070E-08  0.360E-04    1.37     124.4  T
     SCC iter.                  ...        0 min,  0.001 sec
     gradient                   ...        0 min,  0.002 sec
 * total energy  :   -10.9818400 Eh     change       -0.2777527E-03 Eh
   gradient norm :     0.0144674 Eh/α   predicted    -0.1755988E-03 ( -36.78%)
   displ. norm   :     0.0850207 α      lambda       -0.5738338E-03
   maximum displ.:     0.0636081 α      in ANC's #1, #7, #4, ...

........................................................................
.............................. CYCLE   12 ..............................
........................................................................
   1    -11.1343106 -0.111343E+02  0.500E-01    1.29       0.0  T
   2    -11.1319670  0.234361E-02  0.551E-01    1.25       1.0  T
   3    -11.1337237 -0.175669E-02  0.390E-01    1.28       1.0  T
   4    -11.1347061 -0.982463E-03  0.123E-01    1.28       1.0  T
   5    -11.1347920 -0.858776E-04  0.240E-02    1.27       1.9  T
   6    -11.1347956 -0.359566E-05  0.870E-03    1.27       5.1  T
   7    -11.1347957 -0.960360E-07  0.239E-03    1.27      18.7  T
   8    -11.1347957 -0.223704E-07  0.190E-03    1.27      23.6  T
   9    -11.1347957 -0.284894E-07  0.350E-04    1.27     127.8  T
  10    -11.1347957 -0.100814E-09  0.510E-05    1.27     877.0  T
     SCC iter.                  ...        0 min,  0.001 sec
     gradient                   ...        0 min,  0.001 sec
 * total energy  :   -10.9822446 Eh     change       -0.4046188E-03 Eh
   gradient norm :     0.0141749 Eh/α   predicted    -0.2889895E-03 ( -28.58%)
   displ. norm   :     0.0722011 α      lambda       -0.3536511E-03
   maximum displ.:     0.0500575 α      in ANC's #1, #7, #4, ...

........................................................................
.............................. CYCLE   13 ..............................
........................................................................
   1    -11.1364673 -0.111365E+02  0.437E-01    1.20       0.0  T
   2    -11.1346883  0.177906E-02  0.487E-01    1.14       1.0  T
   3    -11.1360779 -0.138961E-02  0.331E-01    1.19       1.0  T
   4    -11.1367834 -0.705552E-03  0.862E-02    1.18       1.0  T
   5    -11.1368238 -0.403648E-04  0.207E-02    1.17       2.2  T
   6    -11.1368264 -0.265960E-05  0.677E-03    1.17       6.6  T
   7    -11.1368265 -0.135807E-07  0.157E-03    1.17      28.5  T
   8    -11.1368265 -0.185546E-07  0.679E-04    1.17      65.8  T
   9    -11.1368265 -0.254446E-08  0.336E-04    1.17     133.0  T
     SCC iter.                  ...        0 min,  0.001 sec
     gradient                   ...        0 min,  0.001 sec
 * total energy  :   -10.9825018 Eh     change       -0.2572461E-03 Eh
   gradient norm :     0.0113865 Eh/α   predicted    -0.1777474E-03 ( -30.90%)
   displ. norm   :     0.0667661 α      lambda       -0.2374987E-03
   maximum displ.:     0.0448570 α      in ANC's #1, #7, #4, ...

........................................................................
.............................. CYCLE   14 ..............................
........................................................................
   1    -11.1381346 -0.111381E+02  0.371E-01    1.12       0.0  T
   2    -11.1369689  0.116564E-02  0.405E-01    1.06       1.0  T
   3    -11.1378602 -0.891230E-03  0.277E-01    1.12       1.0  T
   4    -11.1383471 -0.486959E-03  0.641E-02    1.10       1.0  T
   5    -11.1383703 -0.232174E-04  0.155E-02    1.10       2.9  T
   6    -11.1383716 -0.131881E-05  0.531E-03    1.10       8.4  T
   7    -11.1383716  0.520830E-08  0.111E-03    1.10      40.4  T
   8    -11.1383717 -0.846206E-08  0.512E-04    1.10      87.3  T
   9    -11.1383717 -0.131739E-08  0.289E-04    1.10     154.9  T
     SCC iter.                  ...        0 min,  0.001 sec
     gradient                   ...        0 min,  0.001 sec
 * total energy  :   -10.9826699 Eh     change       -0.1680898E-03 Eh
   gradient norm :     0.0082290 Eh/α   predicted    -0.1192788E-03 ( -29.04%)
   displ. norm   :     0.0533798 α      lambda       -0.1475454E-03
   maximum displ.:     0.0339016 α      in ANC's #7, #1, #4, ...

........................................................................
.............................. CYCLE   15 ..............................
........................................................................
   1    -11.1392900 -0.111393E+02  0.252E-01    1.07       0.0  T
   2    -11.1388997  0.390315E-03  0.248E-01    1.04       1.0  T
   3    -11.1390826 -0.182837E-03  0.202E-01    1.08       1.0  T
   4    -11.1393620 -0.279439E-03  0.372E-02    1.06       1.2  T
   5    -11.1393703 -0.825863E-05  0.912E-03    1.06       4.9  T
   6    -11.1393706 -0.349446E-06  0.337E-03    1.06      13.3  T
   7    -11.1393706  0.139317E-08  0.622E-04    1.06      71.9  T
   8    -11.1393706 -0.164618E-08  0.430E-04    1.06     104.1  T
     SCC iter.                  ...        0 min,  0.001 sec
     gradient                   ...        0 min,  0.001 sec
 * total energy  :   -10.9827790 Eh     change       -0.1090303E-03 Eh
   gradient norm :     0.0066804 Eh/α   predicted    -0.7398361E-04 ( -32.14%)
   displ. norm   :     0.0500962 α      lambda       -0.1371494E-03
   maximum displ.:     0.0344720 α      in ANC's #7, #1, #9, ...

........................................................................
.............................. CYCLE   16 ..............................
........................................................................
   1    -11.1400855 -0.111401E+02  0.198E-01    1.05       0.0  T
   2    -11.1399850  0.100551E-03  0.153E-01    1.03       1.0  T
   3    -11.1397769  0.208136E-03  0.197E-01    1.06       1.0  T
   4    -11.1401064 -0.329539E-03  0.160E-02    1.04       2.8  T
   5    -11.1401073 -0.934353E-06  0.806E-03    1.04       5.5  T
   6    -11.1401076 -0.264857E-06  0.294E-03    1.04      15.2  T
   7    -11.1401076 -0.858344E-08  0.440E-04    1.04     101.6  T
   8    -11.1401076 -0.108065E-08  0.221E-04    1.04     202.0  T
     SCC iter.                  ...        0 min,  0.001 sec
     gradient                   ...        0 min,  0.002 sec
 * total energy  :   -10.9828785 Eh     change       -0.9951944E-04 Eh
   gradient norm :     0.0053714 Eh/α   predicted    -0.6874526E-04 ( -30.92%)
   displ. norm   :     0.0342774 α      lambda       -0.1088986E-03
   maximum displ.:     0.0230897 α      in ANC's #7, #5, #9, ...

........................................................................
.............................. CYCLE   17 ..............................
........................................................................
   1    -11.1407531 -0.111408E+02  0.131E-01    1.05       0.0  T
   2    -11.1407445  0.852108E-05  0.825E-02    1.05       1.0  T
   3    -11.1406118  0.132731E-03  0.126E-01    1.04       1.0  T
   4    -11.1407514 -0.139585E-03  0.258E-02    1.05       1.7  T
   5    -11.1407574 -0.605105E-05  0.551E-03    1.05       8.1  T
   6    -11.1407575 -0.432901E-07  0.252E-03    1.05      17.7  T
   7    -11.1407575 -0.927249E-08  0.239E-04    1.05     187.2  T
   8    -11.1407575 -0.260901E-09  0.937E-05    1.05     477.5  T
     SCC iter.                  ...        0 min,  0.001 sec
     gradient                   ...        0 min,  0.001 sec
 * total energy  :   -10.9829545 Eh     change       -0.7598292E-04 Eh
   gradient norm :     0.0035336 Eh/α   predicted    -0.5451258E-04 ( -28.26%)
   displ. norm   :     0.0257685 α      lambda       -0.6640908E-04
   maximum displ.:     0.0165390 α      in ANC's #5, #4, #3, ...

........................................................................
.............................. CYCLE   18 ..............................
........................................................................
   1    -11.1408366 -0.111408E+02  0.162E-01    1.08       0.0  T
   2    -11.1406430  0.193628E-03  0.169E-01    1.10       1.0  T
   3    -11.1407716 -0.128665E-03  0.125E-01    1.08       1.0  T
   4    -11.1408638 -0.921461E-04  0.478E-02    1.08       1.0  T
   5    -11.1408798 -0.160741E-04  0.516E-03    1.09       8.7  T
   6    -11.1408798  0.251070E-08  0.204E-03    1.09      22.0  T
   7    -11.1408799 -0.954551E-08  0.449E-04    1.09      99.5  T
   8    -11.1408799  0.651212E-11  0.430E-04    1.09     104.0  T
     SCC iter.                  ...        0 min,  0.001 sec
     gradient                   ...        0 min,  0.001 sec
 * total energy  :   -10.9830004 Eh     change       -0.4589009E-04 Eh
   gradient norm :     0.0020728 Eh/α   predicted    -0.3322640E-04 ( -27.60%)
   displ. norm   :     0.0344069 α      lambda       -0.3483917E-04
   maximum displ.:     0.0212954 α      in ANC's #1, #4, #5, ...

........................................................................
.............................. CYCLE   19 ..............................
........................................................................
   1    -11.1404591 -0.111405E+02  0.209E-01    1.12       0.0  T
   2    -11.1401000  0.359107E-03  0.223E-01    1.15       1.0  T
   3    -11.1403450 -0.244992E-03  0.165E-01    1.12       1.0  T
   4    -11.1405117 -0.166663E-03  0.588E-02    1.13       1.0  T
   5    -11.1405333 -0.216108E-04  0.668E-03    1.13       6.7  T
   6    -11.1405334 -0.155062E-06  0.276E-03    1.13      16.2  T
   7    -11.1405335 -0.311800E-07  0.363E-04    1.13     123.2  T
   8    -11.1405335  0.797090E-09  0.433E-04    1.13     103.2  T
     SCC iter.                  ...        0 min,  0.001 sec
     gradient                   ...        0 min,  0.001 sec
 * total energy  :   -10.9830205 Eh     change       -0.2011834E-04 Eh
   gradient norm :     0.0015981 Eh/α   predicted    -0.1744100E-04 ( -13.31%)
   displ. norm   :     0.0161982 α      lambda       -0.4892759E-05
   maximum displ.:     0.0101939 α      in ANC's #7, #1, #9, ...

........................................................................
.............................. CYCLE   20 ..............................
........................................................................
   1    -11.1398779 -0.111399E+02  0.751E-02    1.14       0.0  T
   2    -11.1398509  0.270122E-04  0.663E-02    1.15       1.0  T
   3    -11.1398472  0.371524E-05  0.693E-02    1.14       1.0  T
   4    -11.1398826 -0.353920E-04  0.162E-02    1.14       2.8  T
   5    -11.1398837 -0.110589E-05  0.496E-03    1.14       9.0  T
   6    -11.1398839 -0.211994E-06  0.114E-03    1.14      39.1  T
   7    -11.1398839  0.101505E-08  0.405E-04    1.14     110.5  T
   8    -11.1398839 -0.128116E-08  0.106E-04    1.14     423.3  T
     SCC iter.                  ...        0 min,  0.001 sec
     gradient                   ...        0 min,  0.001 sec
 * total energy  :   -10.9830239 Eh     change       -0.3420270E-05 Eh
   gradient norm :     0.0007964 Eh/α   predicted    -0.2447712E-05 ( -28.44%)
   displ. norm   :     0.0033590 α      lambda       -0.1065233E-05
   maximum displ.:     0.0027995 α      in ANC's #4, #5, #3, ...

   *** GEOMETRY OPTIMIZATION CONVERGED AFTER 20 ITERATIONS ***

------------------------------------------------------------------------
 total energy gain   :        -0.1116299 Eh      -70.0488 kcal/mol
 total RMSD          :         1.0198392 a0        0.5397 Å
 total power (kW/mol):       -14.6542184 (step)-3862.4572 (real)
------------------------------------------------------------------------

 ANCopt (total)                0 d,  0 h,  0 min,  0.076 sec
 optimizer setup                ...        0 min,  0.000 sec (  0.124%)
 model hessian                  ...        0 min,  0.000 sec (  0.187%)
 ANC generation                 ...        0 min,  0.000 sec (  0.104%)
 coordinate transformation      ...        0 min,  0.000 sec (  0.044%)
 single point calculation       ...        0 min,  0.074 sec ( 97.757%)
 optimization log               ...        0 min,  0.000 sec (  0.606%)
 hessian update                 ...        0 min,  0.000 sec (  0.046%)
 rational function              ...        0 min,  0.000 sec (  0.514%)

================
 final structure:
================
5
 xtb: 6.2.2 (9d81278992624c895f80dd42a50cac0aa55982e2)
C         1.83341775759778   -0.25894032276481   -0.00949600221995
N         0.62403214226112   -0.08814767122607   -0.00204392372658
C        -1.47905858929305    0.20650492572204    0.10912906599131
C        -0.35911567442639    0.99048196422535   -0.02715724965826
C        -0.61927563613947   -0.84989889595651   -0.07043189038651

 Bond Distances (Angstroems)
 ---------------------------
C1-N2=1.2214         N2-C1=1.2214         N2-C4=1.4597         N2-C5=1.4597         C3-C4=1.3739         C3-C5=1.3738         
C4-N2=1.4597         C4-C3=1.3739         C4-C5=1.8592         C5-N2=1.4597         C5-C3=1.3738         C5-C4=1.8592         
 C  C  Rav=1.5356 sigma=0.2288  Rmin=1.3738  Rmax=1.8592     3
 N  C  Rav=1.3803 sigma=0.1123  Rmin=1.2214  Rmax=1.4597     3

 selected bond angles (degree)
 --------------------
C4-N2-C1=140.37                C5-N2-C1=140.36                C5-N2-C4= 79.11                C5-C3-C4= 85.16                
C3-C4-N2= 97.22                C5-C4-N2= 50.44                C5-C4-C3= 47.42                C3-C5-N2= 97.22                
C4-C5-N2= 50.44                C4-C5-C3= 47.42                

 selected dihedral angles (degree)
 ---------------------------------
C3-C4-N2-C1=184.13            C3-C4-N2-C5=  8.41            C5-C4-N2-C1=175.72            N2-C4-C3-C5=351.19            
C3-C5-N2-C1=175.87            C3-C5-N2-C4=351.59            C4-C5-N2-C1=184.28            N2-C5-C3-C4=  8.81            
N2-C5-C4-C3=191.37            C3-C5-C4-N2=168.63            
           -------------------------------------------------
          |                Final Singlepoint                |
           -------------------------------------------------

          ...................................................
          :                      SETUP                      :
          :.................................................:
          :  # basis functions                  20          :
          :  # atomic orbitals                  20          :
          :  # shells                           10          :
          :  # electrons                        21          :
          :  max. iterations                   250          :
          :  Hamiltonian                  GFN2-xTB          :
          :  restarted?                      false          :
          :  GBSA solvation                  false          :
          :  PC potential                    false          :
          :  electronic temp.          300.0000000     K    :
          :  accuracy                    1.0000000          :
          :  -> integral cutoff          0.2500000E+02      :
          :  -> integral neglect         0.1000000E-07      :
          :  -> SCF convergence          0.1000000E-05 Eh   :
          :  -> wf. convergence          0.1000000E-03 e    :
          :  Broyden damping             0.4000000          :
          ...................................................

 iter      E             dE          RMSdq      gap      omega  full diag
   1    -11.1398839 -0.111399E+02  0.410E-05    1.14       0.0  T
   2    -11.1398839  0.274110E-10  0.583E-05    1.14     766.4  T
   3    -11.1398839 -0.295657E-10  0.249E-05    1.14    1797.1  T

   *** convergence criteria satisfied after 3 iterations ***

         #    Occupation            Energy/Eh            Energy/eV
      -------------------------------------------------------------
         1        2.0000           -0.7459984             -20.2997
       ...           ...                  ...                  ...
         6        2.0000           -0.5759594             -15.6727
         7        2.0000           -0.4940931             -13.4450
         8        2.0000           -0.4811977             -13.0941
         9        2.0000           -0.4680327             -12.7358
        10        1.0000           -0.4177361             -11.3672
        11        1.0000           -0.4061293             -11.0513
        12        1.0000           -0.3666879              -9.9781 (HOMO)
        13                         -0.3247606              -8.8372 (LUMO)
        14                         -0.3145431              -8.5592
        15                         -0.2002122              -5.4481
        16                         -0.0142751              -0.3884
        17                          0.0257148               0.6997
       ...                                ...                  ...
        20                          0.7191875              19.5701
      -------------------------------------------------------------
                  HL-Gap            0.0419273 Eh            1.1409 eV
             Fermi-level           -0.3943043 Eh          -10.7296 eV

 SCC (total)                   0 d,  0 h,  0 min,  0.003 sec
 SCC setup                      ...        0 min,  0.000 sec (  1.452%)
 Dispersion                     ...        0 min,  0.000 sec (  0.246%)
 integral evaluation            ...        0 min,  0.001 sec ( 41.738%)
 zeroth order Hamiltonian       ...        0 min,  0.000 sec (  0.939%)
 iterations                     ...        0 min,  0.000 sec (  9.996%)
 molecular gradient             ...        0 min,  0.001 sec ( 44.222%)
 printout                       ...        0 min,  0.000 sec (  1.156%)

         :::::::::::::::::::::::::::::::::::::::::::::::::::::
         ::                     SUMMARY                     ::
         :::::::::::::::::::::::::::::::::::::::::::::::::::::
         :: total energy             -10.983023891545 Eh    ::
         :: gradient norm              0.000796963870 Eh/a0 ::
         :: HOMO-LUMO gap              1.140900323793 eV    ::
         ::.................................................::
         :: SCC energy               -11.139883888638 Eh    ::
         :: -> isotropic ES           -0.014902463823 Eh    ::
         :: -> anisotropic ES          0.002120364806 Eh    ::
         :: -> anisotropic XC          0.006386291653 Eh    ::
         :: -> dispersion             -0.002909930034 Eh    ::
         :: repulsion energy           0.156859987027 Eh    ::
         :: add. restraining           0.000000000000 Eh    ::
         :::::::::::::::::::::::::::::::::::::::::::::::::::::

           ------------------------------------------------- 
          |                Numerical Hessian                |
           ------------------------------------------------- 
step length          :   0.00500
SCC accuracy         :   0.30000
Hessian scale factor :   1.00000
frozen atoms in %    :   0.00000    0
RMS gradient         :   0.00080
estimated CPU  time      0.00 min
estimated wall time      0.00 min

writing file <hessian>.

 projected vibrational frequencies (cm-1)
eigval :       -0.00    -0.00     0.00     0.00     0.00     0.00
eigval :       67.65   211.84   374.07   406.68   648.83   882.41
eigval :      920.64  1462.26  1716.80
           -------------------------------------------------
          |                Property Printout                |
           -------------------------------------------------

    * Orbital Energies and Occupations

         #    Occupation            Energy/Eh            Energy/eV
      -------------------------------------------------------------
         1        2.0000           -0.7459986             -20.2997
         2        2.0000           -0.7151969             -19.4615
         3        2.0000           -0.6456771             -17.5698
         4        2.0000           -0.6301166             -17.1463
         5        2.0000           -0.5928089             -16.1312
         6        2.0000           -0.5759596             -15.6727
         7        2.0000           -0.4940930             -13.4450
         8        2.0000           -0.4811978             -13.0941
         9        2.0000           -0.4680327             -12.7358
        10        1.0000           -0.4177364             -11.3672
        11        1.0000           -0.4061293             -11.0513
        12        1.0000           -0.3666879              -9.9781 (HOMO)
        13                         -0.3247606              -8.8372 (LUMO)
        14                         -0.3145431              -8.5592
        15                         -0.2002123              -5.4481
        16                         -0.0142751              -0.3884
        17                          0.0257148               0.6997
        18                          0.2168854               5.9018
        19                          0.4199480              11.4274
        20                          0.7191875              19.5701
      -------------------------------------------------------------
                  HL-Gap            0.0419274 Eh            1.1409 eV
             Fermi-level           -0.3943044 Eh          -10.7296 eV

     #   Z        covCN         q      C6AA      α(0)
     1   6 C      0.916    -0.098    38.562    10.395
     2   7 N      2.873     0.164    18.488     6.386
     3   6 C      2.110     0.022    30.295     8.894
     4   6 C      2.648    -0.044    29.066     8.820
     5   6 C      2.648    -0.044    29.066     8.820

 Mol. C6AA /au·bohr⁶  :        716.854444
 Mol. C8AA /au·bohr⁸  :      19901.247434
 Mol. α(0) /au        :         43.315131


Wiberg/Mayer (AO) data.
largest (>0.10) Wiberg bond orders for each atom
          total WBO             WBO to atom ...
     1  C   2.296        N    2 1.958    C    3 0.184
     2  N   3.680        C    1 1.958    C    4 0.846    C    5 0.846
     3  C   2.935        C    5 1.361    C    4 1.361    C    1 0.184
     4  C   2.689        C    3 1.361    N    2 0.846    C    5 0.404
     5  C   2.689        C    3 1.361    N    2 0.846    C    4 0.404

MOs/occ written to file <molden.input>


molecular dipole:
                 x           y           z       tot (Debye)
 q only:       -0.127       0.018       0.014
   full:       -0.281       0.040       0.006       0.721
molecular quadrupole (traceless):
                xx          xy          yy          xz          yz          zz
 q only:       -0.721       0.126       0.149      -0.023      -0.006       0.571
  q+dip:       -1.899       0.256      -0.141      -0.094      -0.037       2.040
   full:       -3.518       0.522       0.114       0.049      -0.083       3.404

           -------------------------------------------------
          |                Geometry Summary                 |
           -------------------------------------------------

      molecular mass/u    :       62.0496468
   center of mass at/Å    :        0.0200734      -0.0028356      -0.0000658
  moments of inertia/u·Å² :        0.2092675E+02   0.7957197E+02   0.1001610E+03
rotational constants/cm⁻¹ :        0.8055544E+00   0.2118539E+00   0.1683053E+00

 * 1 selected distances

     #   Z        #   Z                                     value/Å
     1   6 C      2   7 N                                 1.2214087 (max)

 * 1 distinct bonds (by element types)

   Z      Z             #   av. dist./Å        max./Å        min./Å
   6 C    7 N           1     1.2214087     1.2214087     1.2214087

           -------------------------------------------------
          |               Frequency Printout                |
           -------------------------------------------------
Molecule has the following symmetry elements: (sigma) 
It seems to be the Cs point group
 projected vibrational frequencies (cm-1)
eigval :       -0.00    -0.00     0.00     0.00     0.00     0.00
eigval :       67.65   211.84   374.07   406.68   648.83   882.41
eigval :      920.64  1462.26  1716.80
 reduced masses (amu)
   1: 12.40   2: 12.45   3: 12.33   4: 12.31   5: 12.06   6: 12.09   7: 12.97   8: 12.11
   9: 13.30  10: 12.41  11: 12.33  12: 12.28  13: 12.10  14: 12.03  15: 12.96
 IR intensities (amu)
   1:  0.03   2:  0.06   3:  0.05   4:  0.00   5:  0.03   6:  0.06   7:  0.87   8:  0.23
   9:  0.18  10:  0.08  11:  0.13  12:  0.05  13:  1.77  14:  0.29  15:  0.83
 Raman intensities (amu)
   1:  0.00   2:  0.00   3:  0.00   4:  0.00   5:  0.00   6:  0.00   7:  0.00   8:  0.00
   9:  0.00  10:  0.00  11:  0.00  12:  0.00  13:  0.00  14:  0.00  15:  0.00
 output can be read by thermo (or use thermo option).
 writing <g98.out> molden fake output.
 recommended (thermochemical) frequency scaling factor: 1.0
           -------------------------------------------------
          |             Thermodynamic Functions             |
           -------------------------------------------------

cs  symmetry found (for desy threshold:  0.10E+00) used in thermo

          ...................................................
          :                      SETUP                      :
          :.................................................:
          :  # frequencies                           9      :
          :  # imaginary freq.                       0      :
          :  linear?                             false      :
          :  only rotor calc.                    false      :
          :  symmetry                               cs      :
          :  rotational number                       1      :
          :  scaling factor                  1.0000000      :
          :  rotor cutoff                   50.0000000 cm⁻¹ :
          :  imag. cutoff                  -20.0000000 cm⁻¹ :
          :.................................................:

    mode    ω/cm⁻¹     T·S(HO)/kcal·mol⁻¹    T·S(FR)/kcal·mol⁻¹   T·S(vib)
   ------------------------------------------------------------------------
       1     67.65    -0.00001 ( 77.02%)     0.00134 ( 22.98%)     0.00030
       2    211.84    -0.00000 ( 99.69%)     0.01265 (  0.31%)     0.00004
   ------------------------------------------------------------------------

   temp. (K)  partition function   enthalpy   heat capacity  entropy
                                   cal/mol     cal/K/mol   cal/K/mol   J/K/mol
 298.15  VIB   8.39                 1399.107      8.821      8.695
         ROT  0.312E+05              888.752      2.981     23.545
         INT  0.262E+06             2287.859     11.802     32.240
         TR   0.473E+27             1481.254      4.968     38.278
         TOT                        3769.1133    16.7699    70.5182   295.0479

   temp. (K)  partition function   enthalpy   heat capacity  entropy
                                   cal/mol     cal/K/mol   cal/K/mol   J/K/mol
 120.00  VIB   1.99                  228.570      3.960      3.249
         ROT  0.797E+04              357.707      2.981     20.832
         INT  0.159E+05              586.277      6.941     24.081
         TR   0.121E+27              596.178      4.968     33.759
         TOT                        1182.4546    11.9095    57.8398   242.0016

   temp. (K)  partition function   enthalpy   heat capacity  entropy
                                   cal/mol     cal/K/mol   cal/K/mol   J/K/mol
 100.00  VIB   1.70                  156.106      3.284      2.626
         ROT  0.606E+04              298.089      2.981     20.289
         INT  0.103E+05              454.195      6.265     22.915
         TR   0.919E+26              496.815      4.968     32.853
         TOT                         951.0097    11.2330    55.7685   233.3355

   temp. (K)  partition function   enthalpy   heat capacity  entropy
                                   cal/mol     cal/K/mol   cal/K/mol   J/K/mol
  80.00  VIB   1.46                   97.204      2.609      2.013
         ROT  0.434E+04              238.471      2.981     19.624
         INT  0.631E+04              335.675      5.590     21.637
         TR   0.657E+26              397.452      4.968     31.745
         TOT                         733.1268    10.5578    53.3821   223.3506

   temp. (K)  partition function   enthalpy   heat capacity  entropy
                                   cal/mol     cal/K/mol   cal/K/mol   J/K/mol
  60.00  VIB   1.25                   51.585      1.958      1.407
         ROT  0.282E+04              178.853      2.981     18.766
         INT  0.353E+04              230.439      4.939     20.173
         TR   0.427E+26              298.089      4.968     30.317
         TOT                         528.5276     9.9068    50.4895   211.2481

   temp. (K)  partition function   enthalpy   heat capacity  entropy
                                   cal/mol     cal/K/mol   cal/K/mol   J/K/mol
  40.00  VIB   1.10                   18.903      1.298      0.793
         ROT  0.153E+04              119.236      2.981     17.557
         INT  0.168E+04              138.139      4.279     18.351
         TR   0.232E+26              198.726      4.968     28.303
         TOT                         336.8645     9.2470    46.6539   195.1998

   temp. (K)  partition function   enthalpy   heat capacity  entropy
                                   cal/mol     cal/K/mol   cal/K/mol   J/K/mol
  20.00  VIB   1.01                    1.501      0.368      0.195
         ROT   542.                   59.618      2.981     15.491
         INT   546.                   61.119      3.349     15.686
         TR   0.822E+25               99.363      4.968     24.861
         TOT                         160.4815     8.3171    40.5473   169.6499

   temp. (K)  partition function   enthalpy   heat capacity  entropy
                                   cal/mol     cal/K/mol   cal/K/mol   J/K/mol
  10.00  VIB   1.00                    0.011      0.011     -0.035
         ROT   192.                   29.809      2.981     13.425
         INT   192.                   29.820      2.992     13.390
         TR   0.290E+25               49.681      4.968     21.419
         TOT                          79.5019     7.9602    34.8097   145.6436

       T/K    H(0)-H(T)+PV         H(T)/Eh          T*S/Eh         G(T)/Eh
   ------------------------------------------------------------------------
    298.15    0.600646E-02    0.212501E-01    0.335054E-01   -0.122553E-01
    120.00    0.188436E-02    0.171280E-01    0.110608E-01    0.606718E-02
    100.00    0.151553E-02    0.167592E-01    0.888728E-02    0.787190E-02
     80.00    0.116831E-02    0.164120E-01    0.680558E-02    0.960638E-02
     60.00    0.842262E-03    0.160859E-01    0.482761E-02    0.112583E-01
     40.00    0.536828E-03    0.157805E-01    0.297391E-02    0.128066E-01
     20.00    0.255744E-03    0.154994E-01    0.129233E-02    0.142071E-01
     10.00    0.126694E-03    0.153703E-01    0.554727E-03    0.148156E-01 (used)
   ------------------------------------------------------------------------

         :::::::::::::::::::::::::::::::::::::::::::::::::::::
         ::                  THERMODYNAMIC                  ::
         :::::::::::::::::::::::::::::::::::::::::::::::::::::
         :: total free energy         -10.968208279641 Eh   ::
         ::.................................................::
         :: total energy              -10.983023891871 Eh   ::
         :: zero point energy           0.015243645304 Eh   ::
         :: G(RRHO) w/o ZPVE           -0.000428033074 Eh   ::
         :: G(RRHO) contrib.            0.014815612230 Eh   ::
         :::::::::::::::::::::::::::::::::::::::::::::::::::::

optimized geometry written to: xtbopt.xyz


           -------------------------------------------------
          | TOTAL ENERGY              -10.983023891871 Eh   |
          | TOTAL ENTHALPY            -10.967653552284 Eh   |
          | TOTAL FREE ENERGY         -10.968208279641 Eh   |
          | GRADIENT NORM               0.000797104699 Eh/α |
          | HOMO-LUMO GAP               1.140901763215 eV   |
           -------------------------------------------------

------------------------------------------------------------------------
 * finished run on 2020/05/12 at 11:44:09.315     
------------------------------------------------------------------------
 total:
 * wall-time:     0 d,  0 h,  0 min,  0.205 sec
 *  cpu-time:     0 d,  0 h,  0 min,  0.205 sec
 * ratio c/w:     0.999 speedup
 SCF:
 * wall-time:     0 d,  0 h,  0 min,  0.007 sec
 *  cpu-time:     0 d,  0 h,  0 min,  0.007 sec
 * ratio c/w:     1.000 speedup
 ANC optimizer:
 * wall-time:     0 d,  0 h,  0 min,  0.080 sec
 *  cpu-time:     0 d,  0 h,  0 min,  0.080 sec
 * ratio c/w:     1.000 speedup
 numerical hessian:
 * wall-time:     0 d,  0 h,  0 min,  0.103 sec
 *  cpu-time:     0 d,  0 h,  0 min,  0.103 sec
 * ratio c/w:     0.999 speedup

