5
 energy: -10.841109437240 gnorm: 0.337206121899 xtb: 6.2.2 (9d81278992624c895f80dd42a50cac0aa55982e2)
N        -1.71201800000000   -0.60489100000000    0.02566200000000
C        -0.45732400000000    0.06541700000000    0.31209800000000
C         0.67882800000000   -0.68696200000000   -0.35775800000000
C        -0.52281600000000    1.48968800000000   -0.20681500000000
C         2.01333000000000   -0.26325300000000    0.22681200000000
5
 energy: -10.957495419428 gnorm: 0.241068346902 xtb: 6.2.2 (9d81278992624c895f80dd42a50cac0aa55982e2)
N        -1.63759147683291   -0.56075726458924    0.03559580296453
C        -0.47959014152516    0.06570508240507    0.24793137768543
C         0.72063815810039   -0.59925775354587   -0.27710059194688
C        -0.53284686424826    1.40525959073202   -0.18676474557833
C         1.92939032450593   -0.31095065500198    0.18033715687524
5
 energy: -10.880224008504 gnorm: 1.068529574531 xtb: 6.2.2 (9d81278992624c895f80dd42a50cac0aa55982e2)
N        -1.54646973729866   -0.50605943737165    0.06360590295785
C        -0.53099474189742    0.07337340271809    0.14647917787313
C         0.85143454264458   -0.50545959392200   -0.16556104649958
C        -0.57611517245716    1.33878240705087   -0.15606196533990
C         1.80214510900866   -0.40063777847531    0.11153693100849
5
 energy: -10.997200730400 gnorm: 0.146859955261 xtb: 6.2.2 (9d81278992624c895f80dd42a50cac0aa55982e2)
N        -1.57327089489910   -0.53346382873565    0.05501118781517
C        -0.54324674918403    0.08819502571348    0.15807332183808
C         0.76209042033553   -0.49740066454458   -0.18791027012727
C        -0.60083191701879    1.36049203836184   -0.16950503967265
C         1.95525914076639   -0.41782357079509    0.14432980014667
5
 energy: -11.005212004380 gnorm: 0.116177094382 xtb: 6.2.2 (9d81278992624c895f80dd42a50cac0aa55982e2)
N        -1.62510302260146   -0.58479928383743    0.11857278011491
C        -0.54331247387504    0.10584238248780    0.06803522677582
C         0.83398252522831   -0.44785185184936   -0.19245355375683
C        -0.66656461771920    1.44310541630219   -0.17154395347465
C         2.00099758896740   -0.51629766310320    0.17738850034075
5
 energy: -11.010993216213 gnorm: 0.083362170946 xtb: 6.2.2 (9d81278992624c895f80dd42a50cac0aa55982e2)
N        -1.62374027110799   -0.54582977167477    0.06021568593502
C        -0.57466487702850    0.10514638696738    0.08301588167581
C         0.86167510365380   -0.44321714355588   -0.07980278799942
C        -0.72474176917467    1.43318659192617   -0.16209461484545
C         2.06147181365736   -0.54928706366290    0.09866483523404
5
 energy: -11.015106309415 gnorm: 0.048539313365 xtb: 6.2.2 (9d81278992624c895f80dd42a50cac0aa55982e2)
N        -1.59208636253656   -0.51086217524793    0.08867050936905
C        -0.53738698219657    0.09903144570831    0.06829266344965
C         0.87719988959907   -0.41883938741493   -0.12198212871893
C        -0.77621580794314    1.41255697170138   -0.17132004379814
C         2.02848926307720   -0.58188785474683    0.13633799969837
5
 energy: -11.018605902915 gnorm: 0.104153196099 xtb: 6.2.2 (9d81278992624c895f80dd42a50cac0aa55982e2)
N        -1.55191293244746   -0.48364299621736    0.13547160584002
C        -0.48750666813248    0.11880627694156    0.03208922081540
C         0.91591781988889   -0.32646424524413   -0.16277787617835
C        -0.90632702666343    1.40005001856820   -0.19514429844874
C         2.02982880735448   -0.70875005404828    0.19036034797168
5
 energy: -11.038520941262 gnorm: 0.188329834535 xtb: 6.2.2 (9d81278992624c895f80dd42a50cac0aa55982e2)
N        -1.54565170378093   -0.39506907536495    0.18967536926044
C        -0.36374195070912    0.11261433551813   -0.05454806643316
C         0.99047458887341   -0.21965322211211   -0.17280161325884
C        -1.10371868907742    1.35346657189405   -0.20532000587086
C         2.02263775469405   -0.85135960993511    0.24299331630242
5
 energy: -11.018532628964 gnorm: 0.423559252606 xtb: 6.2.2 (9d81278992624c895f80dd42a50cac0aa55982e2)
N        -1.64192681779110   -0.26458455644996    0.16771989163555
C        -0.16080651720010    0.04678297154408   -0.13996624401343
C         1.03566765944078   -0.16332186064506   -0.05570844536980
C        -1.19499475773480    1.22765844179832   -0.17112049807101
C         1.96206043328523   -0.84653599624739    0.19907429581869
5
 energy: -11.067992428608 gnorm: 0.253581587986 xtb: 6.2.2 (9d81278992624c895f80dd42a50cac0aa55982e2)
N        -1.64460481784253   -0.22756097458459    0.17903073713263
C        -0.21941619572403    0.05923060441769   -0.13350961503792
C         1.09977533889731   -0.08430920517918   -0.05527806383240
C        -1.27309249599943    1.19149727334659   -0.19106936273277
C         2.03733817066868   -0.93885869800052    0.20082530447046
5
 energy: -11.086440968881 gnorm: 0.156389794218 xtb: 6.2.2 (9d81278992624c895f80dd42a50cac0aa55982e2)
N        -1.56472634886426   -0.28801908477356    0.10738160384052
C        -0.33044302467293    0.12257262205067    0.02159500910584
C         1.02585335562879   -0.13688926241026   -0.08212713772644
C        -1.16510971521812    1.18442801830348   -0.21130222714466
C         2.03442573312652   -0.88209329317033    0.16445175192474
5
 energy: -11.083396728890 gnorm: 0.286305752194 xtb: 6.2.2 (9d81278992624c895f80dd42a50cac0aa55982e2)
N        -1.49440516153977   -0.11509419405216    0.06876279236362
C        -0.19588904964713    0.15891267761022    0.05652334683277
C         1.07785357315625   -0.06848212754835   -0.06860350568072
C        -1.41266553554603    1.03085077334916   -0.22500578492794
C         2.02510617357669   -1.00618812935889    0.16832215141228
5
 energy: -11.112073668815 gnorm: 0.090015197123 xtb: 6.2.2 (9d81278992624c895f80dd42a50cac0aa55982e2)
N        -1.49509719137244   -0.18910798949237    0.07137400212548
C        -0.23557438757580    0.16894009911413   -0.01582630432111
C         1.06490021385750   -0.20436661305781   -0.01723190869906
C        -1.37650139379026    1.17919233887775   -0.18091416085568
C         2.04227275888100   -0.95465883544171    0.14259737175036
5
 energy: -11.112694617052 gnorm: 0.121176271886 xtb: 6.2.2 (9d81278992624c895f80dd42a50cac0aa55982e2)
N        -1.59652755312906   -0.17644986369573    0.07591965814070
C        -0.26489127903555    0.12061202703559   -0.04507099699036
C         1.07909764968043   -0.18519406637287    0.01474076248786
C        -1.27392103802908    1.11919642609896   -0.16217297527048
C         2.05624222051327   -0.87816552306596    0.11658255163228
5
 energy: -11.115822561437 gnorm: 0.066706981821 xtb: 6.2.2 (9d81278992624c895f80dd42a50cac0aa55982e2)
N        -1.53430282577079   -0.19439988022282    0.06595262314466
C        -0.25027725325971    0.14624731333524    0.01054070363763
C         1.03517466037704   -0.11732776201584   -0.01419516372365
C        -1.27030675398402    1.08153115116022   -0.19154440101549
C         2.01971217263748   -0.91605182225681    0.12924523795685
5
 energy: -11.118706894679 gnorm: 0.027033914570 xtb: 6.2.2 (9d81278992624c895f80dd42a50cac0aa55982e2)
N        -1.50793559152263   -0.17164617264868    0.04873326535153
C        -0.23572301888832    0.17052862225374   -0.01379532638657
C         1.05158858969474   -0.17777726913797    0.02394730961955
C        -1.35191851718693    1.11707864743450   -0.17118227421634
C         2.04398853790313   -0.93818482790160    0.11229602563182
5
 energy: -11.119322671298 gnorm: 0.013051730648 xtb: 6.2.2 (9d81278992624c895f80dd42a50cac0aa55982e2)
N        -1.52559518115528   -0.18122962928272    0.05342886591777
C        -0.23906201778834    0.16022392583640   -0.01462975854614
C         1.04719428617385   -0.17219280019611    0.01923612915729
C        -1.32242301663204    1.11518878350395   -0.17204589265973
C         2.03988592940180   -0.92199127986152    0.11400965613081
5
 energy: -11.119415905621 gnorm: 0.008452185826 xtb: 6.2.2 (9d81278992624c895f80dd42a50cac0aa55982e2)
N        -1.52766096284129   -0.18272289572887    0.04962374565849
C        -0.24276390425521    0.16188498888723   -0.01374337308651
C         1.04385490031000   -0.17218491612390    0.02526309454903
C        -1.31512532492665    1.11035944893426   -0.17005270832931
C         2.04169529171315   -0.91733762596872    0.10890824120830
5
 energy: -11.119459779998 gnorm: 0.005991990143 xtb: 6.2.2 (9d81278992624c895f80dd42a50cac0aa55982e2)
N        -1.52585299353694   -0.18314608339740    0.04655995896021
C        -0.24157771323295    0.16474770518306   -0.01348426321383
C         1.04117027205774   -0.17511776929232    0.02913001455230
C        -1.31688483215626    1.11059297457148   -0.16865559913825
C         2.04314526686840   -0.91707782706483    0.10644888883957
5
 energy: -11.119514410510 gnorm: 0.003617609833 xtb: 6.2.2 (9d81278992624c895f80dd42a50cac0aa55982e2)
N        -1.52573047104581   -0.18331703436902    0.03994637615683
C        -0.24027982171645    0.16927710647809   -0.01252164400303
C         1.03651485959652   -0.18370119854768    0.03680668002855
C        -1.31947365040798    1.11180806935378   -0.16546767915924
C         2.04896908357372   -0.91406794291518    0.10123526697689
5
 energy: -11.119347303914 gnorm: 0.007652737120 xtb: 6.2.2 (9d81278992624c895f80dd42a50cac0aa55982e2)
N        -1.52805641595990   -0.18332530561756    0.03431930819308
C        -0.24115780592057    0.16974489373043   -0.00130521473766
C         1.03694714913322   -0.18824128089832   -0.00264704636575
C        -1.31968812371366    1.11368576906537   -0.15534098461612
C         2.05195519646090   -0.91186507627993    0.12497293752644
5
 energy: -11.119553408825 gnorm: 0.004255893933 xtb: 6.2.2 (9d81278992624c895f80dd42a50cac0aa55982e2)
N        -1.53238604655263   -0.17926771127534    0.04278680827759
C        -0.24291330275881    0.16051105464704   -0.03814287597132
C         1.03550826880789   -0.19127227549904    0.00794119008406
C        -1.31788366978161    1.11729682030570   -0.14249671336975
C         2.05767475028516   -0.90726888817835    0.12991059097941
5
 energy: -11.119588771582 gnorm: 0.003051772918 xtb: 6.2.2 (9d81278992624c895f80dd42a50cac0aa55982e2)
N        -1.53263165561195   -0.17852767098425    0.04011732091840
C        -0.24285759894384    0.16162384205352   -0.01685484807261
C         1.03381164077640   -0.19107282947477    0.02988299011562
C        -1.31535487103015    1.11457759982555   -0.16056133310664
C         2.05703248480954   -0.90660194142006    0.10741487014524
5
 energy: -11.119618054865 gnorm: 0.002122766067 xtb: 6.2.2 (9d81278992624c895f80dd42a50cac0aa55982e2)
N        -1.53573320345930   -0.17640682053362    0.03992545410630
C        -0.24417331499147    0.15813792964527   -0.01859456819784
C         1.03245511456271   -0.19471758513196    0.02396231582159
C        -1.31365184309669    1.11615736182647   -0.15738776822181
C         2.06110324698474   -0.90317188580616    0.11209356649176
5
 energy: -11.119667861995 gnorm: 0.002883785500 xtb: 6.2.2 (9d81278992624c895f80dd42a50cac0aa55982e2)
N        -1.54662051964530   -0.16807824680144    0.03961301369071
C        -0.24885582544434    0.14492670341854   -0.02139144729090
C         1.02648774581058   -0.20776498847045    0.01623738531852
C        -1.30639621437159    1.12101705234016   -0.15272939587109
C         2.07538481365065   -0.89010152048682    0.11826944415275
5
 energy: -11.119682479567 gnorm: 0.002235001910 xtb: 6.2.2 (9d81278992624c895f80dd42a50cac0aa55982e2)
N        -1.55057261661736   -0.16427529354222    0.03931228553959
C        -0.25065783299957    0.13928079244569   -0.01939879354629
C         1.02344563907379   -0.21329367371183    0.01920902493511
C        -1.30292453210040    1.12248861397383   -0.15457375493837
C         2.08070934264353   -0.88420143916548    0.11545023800995
5
 energy: -11.119689114326 gnorm: 0.000730763204 xtb: 6.2.2 (9d81278992624c895f80dd42a50cac0aa55982e2)
N        -1.55261085294730   -0.16146592317812    0.03916864771470
C        -0.25183772756624    0.13520598360042   -0.01771390155323
C         1.02114484830563   -0.21736556735727    0.02305672225671
C        -1.30065746027812    1.12345745729555   -0.15666434617384
C         2.08396119248603   -0.87983295036059    0.11215187775566
5
 energy: -11.119689643858 gnorm: 0.000275538174 xtb: 6.2.2 (9d81278992624c895f80dd42a50cac0aa55982e2)
N        -1.55286763852356   -0.16068444873385    0.03915171689273
C        -0.25222205194617    0.13404413196925   -0.01762084765033
C         1.02057550114517   -0.21874398363242    0.02349749156994
C        -1.30039619340758    1.12397768426663   -0.15684995685281
C         2.08491038273214   -0.87859438386961    0.11182059604047
