 Entering Gaussian System
 *********************************************
 Gaussian 98:
 frequency output generated by the xtb code
 *********************************************
                         Standard orientation:
 --------------------------------------------------------------------
  Center     Atomic     Atomic              Coordinates (Angstroms)
  Number     Number      Type              X           Y           Z
 --------------------------------------------------------------------
    1          7             0       -1.552868   -0.160676    0.039157
    2          6             0       -0.252221    0.134045   -0.017620
    3          6             0        1.020574   -0.218749    0.023494
    4          6             0       -1.300391    1.123984   -0.156847
    5          6             0        2.084906   -0.878605    0.111815
 --------------------------------------------------------------------
     1 basis functions        1 primitive gaussians
     1 alpha electrons        1 beta electrons

 Harmonic frequencies (cm**-1), IR intensities (KM/Mole),
 Raman scattering activities (A**4/amu), Raman depolarization ratios,
 reduced masses (AMU), force constants (mDyne/A) and normal coordinates:
                      1                      2                      3
                        a                      a                      a 
 Frequencies --   155.3185               175.0749               428.8601
 Red. masses --    12.3503                12.0321                12.0922
 Frc consts  --     0.0000                 0.0000                 0.0000
 IR Inten    --     0.6330                 0.4085                 0.7007
 Raman Activ --     0.0000                 0.0000                 0.0000
 Depolar     --     0.0000                 0.0000                 0.0000
 Atom AN      X      Y      Z        X      Y      Z        X      Y      Z
   1   7     0.31  -0.26   0.04    -0.00  -0.02  -0.10    -0.20  -0.03   0.01
   2   6     0.14   0.43  -0.07     0.00   0.07   0.47    -0.14  -0.48   0.07
   3   6     0.18   0.40  -0.06     0.01   0.08   0.56     0.19   0.59  -0.09
   4   6    -0.26  -0.11   0.02    -0.00  -0.06  -0.38     0.47  -0.05   0.00
   5   6    -0.40  -0.43   0.07    -0.01  -0.08  -0.54    -0.30  -0.03   0.01
                      4                      5                      6
                        a                      a                      a 
 Frequencies --   491.3237               738.5161               854.4142
 Red. masses --    12.0840                12.2063                13.0051
 Frc consts  --     0.0000                 0.0000                 0.0000
 IR Inten    --     0.4204                 0.7156                 0.7978
 Raman Activ --     0.0000                 0.0000                 0.0000
 Depolar     --     0.0000                 0.0000                 0.0000
 Atom AN      X      Y      Z        X      Y      Z        X      Y      Z
   1   7     0.00   0.03   0.19    -0.06   0.30  -0.05     0.70  -0.05   0.00
   2   6    -0.01  -0.11  -0.75     0.04  -0.42   0.06    -0.09  -0.41   0.06
   3   6     0.01   0.09   0.59     0.35   0.18  -0.03    -0.27  -0.06   0.01
   4   6     0.00   0.02   0.11    -0.62   0.18  -0.02    -0.11   0.34  -0.05
   5   6    -0.00  -0.02  -0.16     0.29  -0.27   0.04    -0.29   0.18  -0.02
                      7                      8                      9
                        a                      a                      a 
 Frequencies --  1226.8510              1706.4336              1841.2065
 Red. masses --    12.4767                12.1607                12.4356
 Frc consts  --     0.0000                 0.0000                 0.0000
 IR Inten    --     1.2616                 1.8042                 0.4722
 Raman Activ --     0.0000                 0.0000                 0.0000
 Depolar     --     0.0000                 0.0000                 0.0000
 Atom AN      X      Y      Z        X      Y      Z        X      Y      Z
   1   7    -0.05  -0.47   0.07     0.24   0.13  -0.02    -0.27  -0.37   0.06
   2   6    -0.54   0.14  -0.02    -0.36   0.06  -0.01     0.58  -0.09   0.01
   3   6     0.29  -0.07   0.01    -0.51   0.34  -0.05    -0.45   0.20  -0.03
   4   6     0.09   0.54  -0.08     0.11  -0.21   0.03    -0.00   0.41  -0.06
   5   6     0.22  -0.10   0.01     0.50  -0.33   0.04     0.16  -0.12   0.02
