$hessian                                                                        
        1.1873714104   0.0523506059  -0.3257017945  -0.5057846692  -0.0213249594
        0.1343678329  -0.0783391530  -0.0047623557   0.0279613992  -0.6179283218
       -0.0273946565   0.1697746611   0.0146807337   0.0011313656  -0.0064020986
        0.0523506059   0.0345930627  -0.0136396201  -0.0218620547  -0.0378292321
        0.0022832719  -0.0050204181   0.0168961165   0.0008350741  -0.0270470430
       -0.0112683872   0.0088560430   0.0015789099  -0.0023915598   0.0016652310
       -0.3257017945  -0.0136396201   0.1264570004   0.1340443576   0.0067562482
       -0.0708554611   0.0280263480   0.0010762856   0.0122039042   0.1698613179
        0.0065609903  -0.0622902947  -0.0062302290  -0.0007539039  -0.0055151489
       -0.5057846692  -0.0218620547   0.1340443576   1.1774144879   0.0531896545
       -0.3206599115  -0.5068640953  -0.0225658666   0.1327705281  -0.0825169761
       -0.0038961758   0.0265425415  -0.0822487473  -0.0048655575   0.0273024843
       -0.0213249594  -0.0378292321   0.0067562482   0.0531896545   0.0614423617
       -0.0137820333  -0.0225770238  -0.0383013647   0.0077038133  -0.0043279974
        0.0072873953  -0.0002806807  -0.0049596739   0.0074008398  -0.0003973474
        0.1343678329   0.0022832719  -0.0708554611  -0.3206599115  -0.0137820333
        0.1374089662   0.1328832876   0.0063036378  -0.0756778635   0.0262712082
        0.0034182113   0.0033759584   0.0271375829   0.0017769122   0.0057484001
       -0.0783391530  -0.0050204181   0.0280263480  -0.5068640953  -0.0225770238
        0.1328832876   1.1871413223   0.0576565187  -0.3260616154   0.0148738214
        0.0010942366  -0.0057379456  -0.6168118954  -0.0311533133   0.1708899253
       -0.0047623557   0.0168961165   0.0010762856  -0.0225658666  -0.0383013647
        0.0063036378   0.0576565187   0.0362634206  -0.0166556252   0.0009736393
       -0.0025209963   0.0000564904  -0.0313019357  -0.0123371761   0.0092192114
        0.0279613992   0.0008350741   0.0122039042   0.1327705281   0.0077038133
       -0.0756778635  -0.3260616154  -0.0166556252   0.1283382350  -0.0055996482
       -0.0004385290  -0.0034672166   0.1709293362   0.0085552668  -0.0613970590
       -0.6179283218  -0.0270470430   0.1698613179  -0.0825169761  -0.0043279974
        0.0262712082   0.0148738214   0.0009736393  -0.0055996482   0.6883657140
        0.0306937381  -0.1919455234  -0.0027942375  -0.0002923370   0.0014126454
       -0.0273946565  -0.0112683872   0.0065609903  -0.0038961758   0.0072873953
        0.0034182113   0.0010942366  -0.0025209963  -0.0004385290   0.0306937381
        0.0058293343  -0.0089075561  -0.0004971425   0.0006726538  -0.0006331166
        0.1697746611   0.0088560430  -0.0622902947   0.0265425415  -0.0002806807
        0.0033759584  -0.0057379456   0.0000564904  -0.0034672166  -0.1919455234
       -0.0089075561   0.0607826595   0.0013662664   0.0002757034   0.0015988934
        0.0146807337   0.0015789099  -0.0062302290  -0.0822487473  -0.0049596739
        0.0271375829  -0.6168118954  -0.0313019357   0.1709293362  -0.0027942375
       -0.0004971425   0.0013662664   0.6871741466   0.0351798422  -0.1932029565
        0.0011313656  -0.0023915598  -0.0007539039  -0.0048655575   0.0074008398
        0.0017769122  -0.0311533133  -0.0123371761   0.0085552668  -0.0002923370
        0.0006726538   0.0002757034   0.0351798422   0.0066552423  -0.0098539785
       -0.0064020986   0.0016652310  -0.0055151489   0.0273024843  -0.0003973474
        0.0057484001   0.1708899253   0.0092192114  -0.0613970590   0.0014126454
       -0.0006331166   0.0015988934  -0.1932029565  -0.0098539785   0.0595649144
