 Entering Gaussian System
 *********************************************
 Gaussian 98:
 frequency output generated by the xtb code
 *********************************************
                         Standard orientation:
 --------------------------------------------------------------------
  Center     Atomic     Atomic              Coordinates (Angstroms)
  Number     Number      Type              X           Y           Z
 --------------------------------------------------------------------
    1          6             0        1.235564    0.059130   -0.592933
    2          6             0       -0.000303    0.003279   -0.242462
    3          6             0       -1.235813   -0.056963    0.107829
    4          6             0        2.462058    0.114749   -0.938457
    5          6             0       -2.461511   -0.120198    0.454969
 --------------------------------------------------------------------
     1 basis functions        1 primitive gaussians
     1 alpha electrons        1 beta electrons

 Harmonic frequencies (cm**-1), IR intensities (KM/Mole),
 Raman scattering activities (A**4/amu), Raman depolarization ratios,
 reduced masses (AMU), force constants (mDyne/A) and normal coordinates:
                      1                      2                      3
                        a                      a                      a 
 Frequencies --   100.7702               205.8839               211.4677
 Red. masses --    12.0107                12.0107                12.0107
 Frc consts  --     0.0000                 0.0000                 0.0000
 IR Inten    --     0.5124                 0.1303                 0.0028
 Raman Activ --     0.0000                 0.0000                 0.0000
 Depolar     --     0.0000                 0.0000                 0.0000
 Atom AN      X      Y      Z        X      Y      Z        X      Y      Z
   1   6    -0.02   0.27  -0.04    -0.17   0.33  -0.55     0.08   0.52   0.35
   2   6    -0.05   0.52  -0.08    -0.03  -0.03  -0.13     0.00  -0.00  -0.00
   3   6    -0.02   0.27  -0.04     0.13  -0.36   0.41    -0.07  -0.52  -0.35
   4   6     0.05  -0.53   0.08     0.11  -0.15   0.37    -0.04  -0.26  -0.18
   5   6     0.05  -0.53   0.08    -0.04   0.20  -0.11     0.04   0.26   0.18
                      4                      5                      6
                        a                      a                      a 
 Frequencies --   487.7332               491.9977               821.8493
 Red. masses --    12.0107                12.0107                12.0107
 Frc consts  --     0.0000                 0.0000                 0.0000
 IR Inten    --     0.1352                 0.1881                 0.0017
 Raman Activ --     0.0000                 0.0000                 0.0000
 Depolar     --     0.0000                 0.0000                 0.0000
 Atom AN      X      Y      Z        X      Y      Z        X      Y      Z
   1   6    -0.13   0.12  -0.44    -0.02  -0.45  -0.15    -0.37  -0.02   0.11
   2   6     0.18  -0.23   0.59     0.03   0.69   0.22     0.00  -0.00  -0.00
   3   6    -0.14   0.15  -0.48    -0.02  -0.45  -0.15     0.37   0.02  -0.10
   4   6     0.05  -0.02   0.16     0.00   0.11   0.04    -0.57  -0.03   0.16
   5   6     0.05  -0.03   0.18     0.00   0.11   0.04     0.57   0.03  -0.16
                      7                      8                      9
                        a                      a                      a 
 Frequencies --  1551.7851              1994.7359              2155.7768
 Red. masses --    12.0107                12.0107                12.0107
 Frc consts  --     0.0000                 0.0000                 0.0000
 IR Inten    --     0.1109                 0.0050                 2.7757
 Raman Activ --     0.0000                 0.0000                 0.0000
 Depolar     --     0.0000                 0.0000                 0.0000
 Atom AN      X      Y      Z        X      Y      Z        X      Y      Z
   1   6     0.18   0.01  -0.05    -0.57  -0.03   0.16     0.49   0.02  -0.14
   2   6     0.62   0.03  -0.17     0.00  -0.00  -0.00    -0.60  -0.03   0.17
   3   6     0.18   0.01  -0.05     0.57   0.03  -0.16     0.50   0.02  -0.14
   4   6    -0.49  -0.02   0.14     0.37   0.02  -0.10    -0.19  -0.01   0.05
   5   6    -0.49  -0.03   0.14    -0.37  -0.02   0.10    -0.20  -0.01   0.06
