5
 energy: -10.072636236737 gnorm: 0.398655444435 xtb: 6.2.2 (9d81278992624c895f80dd42a50cac0aa55982e2)
C         1.02522300000000    0.41387100000000   -0.16522600000000
C         0.02082300000000   -0.68055800000000   -0.47409200000000
C        -1.16372300000000   -0.59636900000000    0.47204700000000
C         2.19301400000000    0.31190400000000   -1.12326600000000
C        -2.07533700000000    0.55115200000000    0.07948300000000
5
 energy: -10.228399460216 gnorm: 0.240805659793 xtb: 6.2.2 (9d81278992624c895f80dd42a50cac0aa55982e2)
C         1.06620240870691    0.34040682677937   -0.24571898066157
C         0.01429228402655   -0.57308469220986   -0.36535812942469
C        -1.17944011587314   -0.54476752876396    0.37271140647304
C         2.13403667287219    0.30956641963552   -1.08330733632587
C        -2.03509124973250    0.46787897455892    0.11061903993908
5
 energy: -10.272976587578 gnorm: 0.237135089775 xtb: 6.2.2 (9d81278992624c895f80dd42a50cac0aa55982e2)
C         1.07967485166461    0.22321615075908   -0.33547332959102
C         0.01275124657121   -0.47120979601451   -0.25894244089149
C        -1.16868427009852   -0.45140034469685    0.26680737637055
C         2.07758942977527    0.32500721628421   -1.03142816665762
C        -2.00133125791257    0.37438677366806    0.14798256076958
5
 energy: -10.306092008932 gnorm: 0.075321558391 xtb: 6.2.2 (9d81278992624c895f80dd42a50cac0aa55982e2)
C         1.15113107356656    0.17303579988638   -0.37849028859681
C         0.04892715838494   -0.45986884130333   -0.17139148355488
C        -1.20557461515886   -0.45256781086284    0.20506253933050
C         2.19628222245704    0.34666584511473   -1.07561577319547
C        -2.19076583924969    0.39273500716506    0.20938100601666
5
 energy: -10.304157848380 gnorm: 0.136867977086 xtb: 6.2.2 (9d81278992624c895f80dd42a50cac0aa55982e2)
C         1.26510169869249    0.03149888447791   -0.38731810429852
C        -0.01238420205285   -0.39823628305947   -0.10894434417134
C        -1.25369694340010   -0.39686076179422    0.21765637781311
C         2.29787639722612    0.42858405259070   -1.13419608442930
C        -2.29689695046567    0.33501410778507    0.20174815508605
5
 energy: -10.317674951448 gnorm: 0.057583791336 xtb: 6.2.2 (9d81278992624c895f80dd42a50cac0aa55982e2)
C         1.22345349863814    0.08576441988236   -0.45990994469315
C         0.04030520829024   -0.36725042511964   -0.10063995782609
C        -1.24787025556058   -0.39126134100793    0.15523032531647
C         2.30874719681832    0.35671156469254   -1.07918346920718
C        -2.32463564818613    0.31603578155267    0.27344904640995
5
 energy: -10.309571433794 gnorm: 0.174512436677 xtb: 6.2.2 (9d81278992624c895f80dd42a50cac0aa55982e2)
C         1.18335143340684    0.04966185012107   -0.44217637880379
C         0.02970405428008   -0.32238197652500   -0.18388376507824
C        -1.14884861810569   -0.31563650597633    0.18759264467405
C         2.27979388558647    0.32410095945531   -1.03715689339713
C        -2.34400075516771    0.26425567292496    0.26457039260511
5
 energy: -10.321351400678 gnorm: 0.047384078837 xtb: 6.2.2 (9d81278992624c895f80dd42a50cac0aa55982e2)
C         1.20581030003539    0.04739818647365   -0.46076094624006
C         0.03899803990920   -0.31874099411983   -0.12718394580972
C        -1.22463956170833   -0.35122066352120    0.17228919649169
C         2.29211329404679    0.34783827494927   -1.06116833158848
C        -2.31228207228306    0.27472519621812    0.26577002714657
5
 energy: -10.308245504962 gnorm: 0.173267510474 xtb: 6.2.2 (9d81278992624c895f80dd42a50cac0aa55982e2)
C         1.30129938188805    0.04991791927553   -0.55310738543925
C        -0.00481281057171   -0.20418046820819   -0.13088514711113
C        -1.24671802990515   -0.31227989518245    0.16199762622914
C         2.43693715338448    0.28882049241110   -1.03270358836168
C        -2.48670569479570    0.17772195170402    0.34364449468292
5
 energy: -10.323094136513 gnorm: 0.049720294216 xtb: 6.2.2 (9d81278992624c895f80dd42a50cac0aa55982e2)
C         1.21475317000982    0.04722932261944   -0.55204513016721
C         0.01639030766616   -0.25769829682385   -0.13246520109228
C        -1.23680854915793   -0.31847191617058    0.16339663623955
C         2.39738151546632    0.31459628911860   -1.01872867562145
C        -2.39171644398438    0.21434460125639    0.32878837064138
5
 energy: -10.313530308522 gnorm: 0.155241496911 xtb: 6.2.2 (9d81278992624c895f80dd42a50cac0aa55982e2)
C         1.26916504044196    0.00548835338043   -0.37867339963671
C         0.07983229742919   -0.22463885882975   -0.15246316982764
C        -1.20839145760134   -0.28480085545479    0.16389775784938
C         2.23082803005560    0.30312910365430   -1.09675523643501
C        -2.37143391032543    0.20082225724982    0.25294004804999
5
 energy: -10.323447399280 gnorm: 0.037167253621 xtb: 6.2.2 (9d81278992624c895f80dd42a50cac0aa55982e2)
C         1.27134435945711   -0.00826097764715   -0.42773486323922
C         0.04770564929242   -0.24318893391548   -0.12989720822448
C        -1.21928824313466   -0.28177990804702    0.15870066302823
C         2.29397921468354    0.33017178209084   -1.08584413978414
C        -2.39374098029843    0.20305803751881    0.27372154821960
5
 energy: -10.324537322577 gnorm: 0.049185893717 xtb: 6.2.2 (9d81278992624c895f80dd42a50cac0aa55982e2)
C         1.23237499636050   -0.01330204904061   -0.53067292240242
C         0.03067363631828   -0.25534186165821   -0.11233302901667
C        -1.22707168346672   -0.26376981738918    0.13830729737443
C         2.37518537822454    0.33966441224381   -1.03449463819423
C        -2.41116232743661    0.19274931584420    0.32813929223887
5
 energy: -10.325626451055 gnorm: 0.014765447859 xtb: 6.2.2 (9d81278992624c895f80dd42a50cac0aa55982e2)
C         1.24750443245305   -0.00670640332668   -0.49836428640935
C         0.03345417730142   -0.23396766855113   -0.12735317322913
C        -1.22214664801527   -0.26265501742916    0.14678274184245
C         2.34943460345283    0.32296879474582   -1.04591661583482
C        -2.40824656519204    0.18036029456115    0.31379733363084
5
 energy: -10.326104982903 gnorm: 0.015802055013 xtb: 6.2.2 (9d81278992624c895f80dd42a50cac0aa55982e2)
C         1.24626000924870   -0.00540419514492   -0.51300189396288
C         0.03272414411442   -0.21766366978439   -0.13827679012314
C        -1.22197050713064   -0.24704512873068    0.14703481318589
C         2.36523814048377    0.30999970600784   -1.03424401782489
C        -2.42225178671625    0.16011328765215    0.32743388872501
5
 energy: -10.326802752899 gnorm: 0.049819420241 xtb: 6.2.2 (9d81278992624c895f80dd42a50cac0aa55982e2)
C         1.22629659349719    0.01513537908278   -0.60650497272141
C         0.01159637303174   -0.12622390349100   -0.20303198160046
C        -1.22118980625291   -0.17568306473088    0.15888060585935
C         2.45447030745037    0.23646034082246   -0.95823949840858
C        -2.47117346772640    0.05031124831666    0.39784184687108
5
 energy: -10.327585168372 gnorm: 0.010584629120 xtb: 6.2.2 (9d81278992624c895f80dd42a50cac0aa55982e2)
C         1.23878638072197   -0.00105300456328   -0.56880201929219
C         0.02292786538359   -0.14757764803651   -0.18377731371429
C        -1.22241396672263   -0.18224208873805    0.15129786319164
C         2.41445951335948    0.25900739645629   -0.98448743643331
C        -2.45375979274243    0.07186534488156    0.37471490624813
5
 energy: -10.327891114370 gnorm: 0.009699483491 xtb: 6.2.2 (9d81278992624c895f80dd42a50cac0aa55982e2)
C         1.23628989036179    0.00186685332028   -0.58531929562626
C         0.01845261130118   -0.12670838449151   -0.19820853268638
C        -1.22151200949855   -0.16091659822481    0.15146341233955
C         2.42767826212127    0.24247132341516   -0.96835577929700
C        -2.46090875428571    0.04328680598089    0.38936619527008
5
 energy: -10.328188512840 gnorm: 0.021715818922 xtb: 6.2.2 (9d81278992624c895f80dd42a50cac0aa55982e2)
C         1.22528074215120    0.01663941971145   -0.63085464681391
C         0.00506670458392   -0.07324768082093   -0.23463837671061
C        -1.22123359396922   -0.10867145218200    0.14976063920810
C         2.46194757007393    0.19654907554049   -0.92428812807590
C        -2.47106142283985   -0.03126936224901    0.42896651239230
5
 energy: -10.328371615656 gnorm: 0.003992333901 xtb: 6.2.2 (9d81278992624c895f80dd42a50cac0aa55982e2)
C         1.22834580592560    0.01446980981574   -0.61899385855410
C         0.00733708061644   -0.08081831796215   -0.22843835463501
C        -1.22149086353940   -0.11221430849151    0.14681099358434
C         2.45021129431031    0.20257291769294   -0.93250546039268
C        -2.46440331731297   -0.02401010105501    0.42207267999743
5
 energy: -10.328454352970 gnorm: 0.009059990542 xtb: 6.2.2 (9d81278992624c895f80dd42a50cac0aa55982e2)
C         1.22966365325075    0.01840769623735   -0.62237717887771
C         0.00638643535681   -0.06395668727677   -0.23715804009462
C        -1.22244612208373   -0.09317788519454    0.14199926836168
C         2.45333631982818    0.18767965519432   -0.92565864237574
C        -2.46694028635204   -0.04895277896035    0.43214059298636
5
 energy: -10.328507514725 gnorm: 0.002706300267 xtb: 6.2.2 (9d81278992624c895f80dd42a50cac0aa55982e2)
C         1.22917009659498    0.01947158449696   -0.62088934696444
C         0.00324002233299   -0.05984938855875   -0.24034700003307
C        -1.22353186060725   -0.08754444084633    0.14299341278228
C         2.45643574863359    0.18355247884213   -0.92568238548386
C        -2.46531400695433   -0.05563023393400    0.43287131969907
5
 energy: -10.328484564934 gnorm: 0.008119617272 xtb: 6.2.2 (9d81278992624c895f80dd42a50cac0aa55982e2)
C         1.22603675452267    0.03383718935359   -0.62418822438915
C         0.00599247272061   -0.05008263219863   -0.22427109685195
C        -1.22754623318743   -0.09544544363881    0.13436951288466
C         2.45984554431340    0.16999723772712   -0.92951083965651
C        -2.46432853836928   -0.05830635124327    0.43254664801293
5
 energy: -10.328570809351 gnorm: 0.005465539823 xtb: 6.2.2 (9d81278992624c895f80dd42a50cac0aa55982e2)
C         1.22920733024263    0.02759678169498   -0.61663302112559
C         0.00268934512968   -0.04844374323663   -0.23734104453789
C        -1.22696541901640   -0.08522293983903    0.13569862002900
C         2.45943729079117    0.17130484715265   -0.92910501916011
C        -2.46436854714711   -0.06523494577196    0.43632646479457
5
 energy: -10.328623620026 gnorm: 0.003790238267 xtb: 6.2.2 (9d81278992624c895f80dd42a50cac0aa55982e2)
C         1.23102399846187    0.03099455550730   -0.61154810226471
C         0.00111696360815   -0.03866415156071   -0.24298617640423
C        -1.22791683723213   -0.07607041794526    0.13298938437766
C         2.46076600062132    0.16162324640900   -0.92988839772227
C        -2.46499012545925   -0.07788323241033    0.44037929201352
5
 energy: -10.328699248135 gnorm: 0.003980019641 xtb: 6.2.2 (9d81278992624c895f80dd42a50cac0aa55982e2)
C         1.23514191709074    0.04264767904113   -0.59738867485973
C        -0.00080534664798   -0.01434860275197   -0.24816252406542
C        -1.23238047714216   -0.06226110761271    0.11883889994133
C         2.46270137206093    0.13734792797864   -0.93523715779319
C        -2.46465746536157   -0.10338589665510    0.45089545677699
5
 energy: -10.328724982556 gnorm: 0.002517498657 xtb: 6.2.2 (9d81278992624c895f80dd42a50cac0aa55982e2)
C         1.23582658618890    0.04986949887168   -0.59310363766022
C        -0.00031220675468   -0.00513703295679   -0.24543898532830
C        -1.23451661793244   -0.06066658842322    0.11133957936969
C         2.46201354129293    0.12688238412549   -0.93782680094554
C        -2.46301130279476   -0.11094826161716    0.45397584456434
5
 energy: -10.328733622010 gnorm: 0.001215258310 xtb: 6.2.2 (9d81278992624c895f80dd42a50cac0aa55982e2)
C         1.23516177867001    0.05742115581211   -0.59372582958916
C        -0.00002988193145    0.00199216346299   -0.24245926935704
C        -1.23538942062691   -0.05813810496639    0.10878527476421
C         2.46219872092732    0.11699237142217   -0.93810668474982
C        -2.46194119703902   -0.11826758573088    0.45445250893177
5
 energy: -10.328733822740 gnorm: 0.001211355695 xtb: 6.2.2 (9d81278992624c895f80dd42a50cac0aa55982e2)
C         1.23569166794786    0.05780670313465   -0.59273784577845
C        -0.00008501479698    0.00174135500067   -0.24203064989054
C        -1.23580398844397   -0.05863615407983    0.10755963596845
C         2.46149094956387    0.11693186835681   -0.93864071633904
C        -2.46129361427084   -0.11784377241230    0.45479557603955
5
 energy: -10.328734388677 gnorm: 0.000347272003 xtb: 6.2.2 (9d81278992624c895f80dd42a50cac0aa55982e2)
C         1.23556583246563    0.05913773438060   -0.59292861188655
C        -0.00030189750069    0.00327935297848   -0.24246175845426
C        -1.23581261873144   -0.05696916583179    0.10782440702652
C         2.46206074880733    0.11476352855869   -0.93844791435003
C        -2.46151206504089   -0.12021145008599    0.45495987766429
