[Molden Format]
[Title]
[Atoms] AU
C      1     6  0.23348774895742E+01  0.11173993025951E+00 -0.11204809292736E+01
C      2     6 -0.57207046930013E-03  0.61962817298576E-02 -0.45818628548427E+00
C      3     6 -0.23353470264714E+01 -0.10764352750921E+00  0.20376691971887E+00
C      4     6  0.46526150308283E+01  0.21684416173432E+00 -0.17734259950178E+01
C      5     6 -0.46515814120648E+01 -0.22714084046366E+00  0.85976612027397E+00
[GTO]
           1 0
 s           4   1.0000000000000000     
   51.049363095579913      -0.16312063210127389     
   8.7911227406887544      -0.19911024581000730     
  0.70640422258929825       0.31882047753655751     
  0.26922813413411617       0.12706504184240380     
 p           4   1.0000000000000000     
   5.8263656140800002       0.73716451545209605     
   1.5106896018720002       0.68216371614850257     
  0.53256483288000001       0.35783053929253711     
  0.21202323690600003        5.3983030275847881E-002

           2 0
 s           4   1.0000000000000000     
   51.049363095579913      -0.16312063210127389     
   8.7911227406887544      -0.19911024581000730     
  0.70640422258929825       0.31882047753655751     
  0.26922813413411617       0.12706504184240380     
 p           4   1.0000000000000000     
   5.8263656140800002       0.73716451545209605     
   1.5106896018720002       0.68216371614850257     
  0.53256483288000001       0.35783053929253711     
  0.21202323690600003        5.3983030275847881E-002

           3 0
 s           4   1.0000000000000000     
   51.049363095579913      -0.16312063210127389     
   8.7911227406887544      -0.19911024581000730     
  0.70640422258929825       0.31882047753655751     
  0.26922813413411617       0.12706504184240380     
 p           4   1.0000000000000000     
   5.8263656140800002       0.73716451545209605     
   1.5106896018720002       0.68216371614850257     
  0.53256483288000001       0.35783053929253711     
  0.21202323690600003        5.3983030275847881E-002

           4 0
 s           4   1.0000000000000000     
   51.049363095579913      -0.16312063210127389     
   8.7911227406887544      -0.19911024581000730     
  0.70640422258929825       0.31882047753655751     
  0.26922813413411617       0.12706504184240380     
 p           4   1.0000000000000000     
   5.8263656140800002       0.73716451545209605     
   1.5106896018720002       0.68216371614850257     
  0.53256483288000001       0.35783053929253711     
  0.21202323690600003        5.3983030275847881E-002

           5 0
 s           4   1.0000000000000000     
   51.049363095579913      -0.16312063210127389     
   8.7911227406887544      -0.19911024581000730     
  0.70640422258929825       0.31882047753655751     
  0.26922813413411617       0.12706504184240380     
 p           4   1.0000000000000000     
   5.8263656140800002       0.73716451545209605     
   1.5106896018720002       0.68216371614850257     
  0.53256483288000001       0.35783053929253711     
  0.21202323690600003        5.3983030275847881E-002

[MO]
Sym=     1a
Ene=  -0.69287558689845974     
Spin= Alpha
Occup=     2.00000000
           1 -0.34208665935657839     
           2  0.11173891203114804     
           3   5.1365153432183031E-003
           4  -3.1794718890316140E-002
           5 -0.54628241735184635     
           6   2.6386771602085902E-004
           7   5.9517245151473309E-004
           8  -7.9850729404291730E-005
           9 -0.34290425372791067     
          10 -0.11172000261683772     
          11  -5.1843150716053147E-003
          12   3.1694882142552526E-002
          13 -0.12835055451063887     
          14   7.0143679284801544E-002
          15   3.1894651185829805E-003
          16  -1.9807173480218626E-002
          17 -0.12891686424247048     
          18  -7.0332852708473365E-002
          19  -3.5432883682207299E-003
          20   1.9928552837783858E-002
Sym=     2a
Ene=  -0.68019158233980936     
Spin= Alpha
Occup=     2.00000000
           1 -0.37634756945323333     
           2  -6.9080758302653811E-002
           3  -3.2406969919258843E-003
           4   1.9342700217097043E-002
           5  -6.4305732330582324E-004
           6 -0.24192238052582557     
           7  -1.1461996439748960E-002
           8   6.8526079181360541E-002
           9  0.37572665578897602     
          10  -6.9415240770916931E-002
          11  -3.6809504593710235E-003
          12   1.9626433497370983E-002
          13 -0.32249181299663682     
          14  0.11261414748876258     
          15   5.0849584123940014E-003
          16  -3.1755146605568815E-002
          17  0.32248442153766010     
          18  0.11245783676431545     
          19   5.7696402276582546E-003
          20  -3.1859534161558546E-002
Sym=     3a
Ene=  -0.65901801531846149     
Spin= Alpha
Occup=     2.00000000
           1  0.15404591358389344     
           2  0.26099490985858187     
           3   1.1820296036877509E-002
           4  -7.3688658910140370E-002
           5 -0.26293930512206209     
           6   1.5601092511749782E-004
           7  -1.1987074454304293E-004
           8   3.1056111666071940E-005
           9  0.15372990423802438     
          10 -0.26094276414544704     
          11  -1.3196061774821060E-002
          12   7.3945785249782708E-002
          13  0.41474190037018138     
          14  -9.2221367773450996E-002
          15  -4.1741715695198826E-003
          16   2.5960238370564034E-002
          17  0.41467885239871649     
          18   9.2085825709496666E-002
          19   4.7909825472938049E-003
          20  -2.6077041198741362E-002
Sym=     4a
Ene=  -0.61366267224243398     
Spin= Alpha
Occup=     2.00000000
           1 -0.16180150165380719     
           2  0.29545770454844389     
           3   1.3212880714520470E-002
           4  -8.3446663462382900E-002
           5  -1.4629141415841449E-004
           6 -0.40566858521801374     
           7  -1.8862309075568635E-002
           8  0.11516842884519750     
           9  0.16175664271389786     
          10  0.29515865051871570     
          11   1.5127900567225050E-002
          12  -8.3590271225751980E-002
          13  0.34673635161944999     
          14   1.3848749895580418E-003
          15   2.8095858827340033E-005
          16  -4.5007875544345776E-004
          17 -0.34666087822379504     
          18   1.4204513338081221E-003
          19   2.8013506485461309E-005
          20  -4.0052755618249678E-004
Sym=     5a
Ene=  -0.53886486687984125     
Spin= Alpha
Occup=     2.00000000
           1   3.6651852432447357E-004
           2 -0.10732053590768567     
           3  -6.1427454285494301E-003
           4 -0.38102277025482217     
           5  -7.2531563340030169E-005
           6 -0.15533115122378544     
           7  -8.8827302981226118E-003
           8 -0.54888937941076299     
           9   1.7085897689551051E-005
          10 -0.10763297382872768     
          11  -6.1566087456180526E-003
          12 -0.38120346755669271     
          13   1.1684518564399812E-004
          14  -5.0195013090922558E-002
          15  -2.8735333349616679E-003
          16 -0.17837109813928526     
          17  -1.2783617954245405E-004
          18  -5.0369268618853692E-002
          19  -2.8813061765444749E-003
          20 -0.17849052735730880     
Sym=     6a
Ene=  -0.53886468164710288     
Spin= Alpha
Occup=     2.00000000
           1   5.3667766011264327E-005
           2  -1.8323175090139216E-002
           3  0.39547094823557982     
           4  -1.2142072704709758E-003
           5   1.0088904626224051E-003
           6  -2.7059238967452298E-002
           7  0.56986918285377675     
           8  -1.5647329326027709E-003
           9   5.4131979962801708E-004
          10  -2.0214376796075628E-002
          11  0.39563724716938542     
          12  -6.8278082752081730E-004
          13   1.6506669392768943E-004
          14  -8.5405770431309005E-003
          15  0.18512434685629831     
          16  -5.7872915223492762E-004
          17   5.0724228426804821E-004
          18  -9.5962044556893011E-003
          19  0.18523515446343297     
          20  -2.8238874084342107E-004
Sym=     7a
Ene=  -0.47090566853119498     
Spin= Alpha
Occup=     2.00000000
           1   2.0648229490359800E-003
           2  -7.2809145808063108E-002
           3 -0.33580742511999812     
           4 -0.31428400042656390     
           5  -1.3465793792171166E-003
           6  -4.6880870692295462E-005
           7  -8.9637811231178094E-005
           8  -6.9711770729468173E-005
           9   1.7490802966546569E-003
          10   7.1393566792153806E-002
          11  0.33556802706276911     
          12  0.31451041215567510     
          13  -3.7354208485093532E-003
          14  -7.1974840527337117E-002
          15 -0.31402779075525827     
          16 -0.29262722077450909     
          17  -3.0797071710546215E-003
          18   6.9925599342654576E-002
          19  0.31389470657186180     
          20  0.29314404690332785     
Sym=     8a
Ene=  -0.47090529453184005     
Spin= Alpha
Occup=     2.00000000
           1  -1.1989514708346256E-004
           2 -0.10479715102332872     
           3  0.32194439536986391     
           4 -0.31972526441057658     
           5   2.1492201312069145E-004
           6  -2.2281012331164761E-004
           7   7.3132159629699586E-005
           8  -2.5831532577475116E-005
           9  -4.8847559756288919E-004
          10  0.10693688070990444     
          11 -0.32167243682523355     
          12  0.31893525256735511     
          13   4.0148102312282752E-004
          14  -9.7489655429822922E-002
          15  0.30091497904484360     
          16 -0.29894880828089726     
          17   6.8591936351545472E-004
          18   9.9300624749110833E-002
          19 -0.30077623977396545     
          20  0.29837442656402485     
Sym=     9a
Ene=  -0.46366443013557906     
Spin= Alpha
Occup=     2.00000000
           1 -0.19499937466613979     
           2 -0.11404766668811814     
           3  -8.3790605815787424E-003
           4   3.0211266609492093E-002
           5  0.19204314627876709     
           6  -2.3398703996945863E-004
           7   5.3382057537153260E-004
           8  -2.0049226743105498E-004
           9 -0.19513325355249975     
          10  0.11438467666762688     
          11   8.1143233572068228E-003
          12  -3.0378552732926944E-002
          13  0.45905957775813816     
          14  0.44460764845743300     
          15   1.6906413893459458E-002
          16 -0.12724731682688836     
          17  0.45971315277102637     
          18 -0.44502657178078237     
          19  -2.0609222889968425E-002
          20  0.12811509436980403     
Sym=    10a
Ene=  -0.44711688280566403     
Spin= Alpha
Occup=     2.00000000
           1  0.10396301208516798     
           2  0.19458508603828975     
           3   8.6778301085854159E-003
           4  -5.4704061258745731E-002
           5  -1.7585215384596082E-004
           6 -0.19533821482722222     
           7  -8.6526575207470022E-003
           8   5.5769044811288068E-002
           9 -0.10364290469214262     
          10  0.19413311164559802     
          11   9.6363435918253755E-003
          12  -5.5478063720591636E-002
          13 -0.41258046058476372     
          14 -0.47318213254071806     
          15  -2.1683933430032481E-002
          16  0.13345805243866535     
          17  0.41182729048441147     
          18 -0.47235874481522894     
          19  -2.4813057485414441E-002
          20  0.13313853764466457     
Sym=    11a
Ene=  -0.38914059391757699     
Spin= Alpha
Occup=     0.00000000
           1  -8.2484251340044119E-005
           2  -8.3912028401077424E-003
           3  -7.2417331057072695E-002
           4  -4.1733363095696231E-002
           5   6.9229289294750875E-004
           6   5.7403223730949963E-002
           7  0.49001699860227249     
           8  0.28219799976524379     
           9  -1.2122276407713178E-004
          10  -8.6760353988739099E-003
          11  -7.2312349725294323E-002
          12  -4.1579233465892054E-002
          13  -9.0253959123344726E-006
          14  -5.8730216066301973E-002
          15 -0.50207342014262646     
          16 -0.28916787526835580     
          17  -4.1848405852676319E-004
          18  -5.5092500397685304E-002
          19 -0.50207448945843580     
          20 -0.29031149042071308     
Sym=    12a
Ene=  -0.38914057595855589     
Spin= Alpha
Occup=     0.00000000
           1   3.3315183284345975E-005
           2  -2.1692584187935994E-002
           3   4.2392986418881957E-002
           4  -6.9200417970943812E-002
           5  -2.0414969666545730E-004
           6  0.14630768649159390     
           7 -0.28686029247984329     
           8  0.46835115389483850     
           9   3.0330647418563939E-005
          10  -2.1526681932729042E-002
          11   4.2328937808032367E-002
          12  -6.9120921538226590E-002
          13   1.8602430301043862E-004
          14 -0.14809487900849008     
          15  0.29400261578964598     
          16 -0.48039084157379719     
          17   1.5466047756402163E-004
          18 -0.15148452366049112     
          19  0.29395264417767736     
          20 -0.47962451603524375     
Sym=    13a
Ene=  -0.24417983282510392     
Spin= Alpha
Occup=     0.00000000
           1   1.0028329392662166E-003
           2 -0.11168966235676274     
           3 -0.33037057534156011     
           4 -0.44655037889803534     
           5  -7.0255776123595343E-004
           6  -2.5462942586804241E-005
           7  -7.0265362973939417E-005
           8  -9.0927859948090756E-005
           9   7.1283371338219171E-004
          10  0.11016267709050867     
          11  0.33026867581501185     
          12  0.44692869450071399     
          13   7.6796890118080075E-005
          14  0.11489295718253652     
          15  0.34067031536241343     
          16  0.46056908998560425     
          17   6.7963341247227348E-005
          18 -0.11336766679182977     
          19 -0.34047794541086523     
          20 -0.46081591555308310     
Sym=    14a
Ene=  -0.24417948990809596     
Spin= Alpha
Occup=     0.00000000
           1  -1.1723425856194256E-004
           2 -0.10888626270454024     
           3  0.45967059748050715     
           4 -0.31284875121943356     
           5   2.4987396826893553E-004
           6  -3.3354708646444591E-004
           7   8.1783098515298959E-005
           8   2.2947369672601452E-005
           9  -4.9282662919490129E-004
          10  0.11164030554164804     
          11 -0.45949239300359696     
          12  0.31202984064068051     
          13   2.1508170574393851E-005
          14  0.11225762981346084     
          15 -0.47401953437607725     
          16  0.32262126635345711     
          17  -7.2993507874634638E-005
          18 -0.11529472026400493     
          19  0.47369951681090988     
          20 -0.32162771192382722     
Sym=    15a
Ene=  -0.11678940715195843     
Spin= Alpha
Occup=     0.00000000
           1   2.3594962743381329E-003
           2  -4.5406203826192530E-002
           3  0.64829065511341788     
           4  -5.1919382169726809E-002
           5  -4.0594146461039871E-003
           6   4.8283056105251486E-002
           7 -0.68741125893324162     
           8   5.5021069483896345E-002
           9   3.6465009901880756E-003
          10  -4.5987890575484906E-002
          11  0.64836817620410514     
          12  -5.1774756648875188E-002
          13  -3.2769995277109513E-004
          14   2.8369673146148491E-002
          15 -0.39591088274751007     
          16   3.1529569419774001E-002
          17  -5.2231853478877308E-004
          18   2.7017473868591012E-002
          19 -0.39598048102163186     
          20   3.1917929925760306E-002
Sym=    16a
Ene=  -0.11678537047100875     
Spin= Alpha
Occup=     0.00000000
           1  -9.1472376156501872E-004
           2  0.17385322036828557     
           3   6.2257030211036242E-002
           4  0.62524841866229419     
           5   1.1815337026781660E-004
           6 -0.18454668762018134     
           7  -6.6025117598713517E-002
           8 -0.66294617141534795     
           9   1.7395061707243845E-004
          10  0.17398996130746014     
          11   6.2272539700333536E-002
          12  0.62533834339401806     
          13   1.3334456513859573E-004
          14 -0.10646766730638900     
          15  -3.8035791574122013E-002
          16 -0.38178120920105757     
          17  -3.0892418959786800E-005
          18 -0.10631766787990314     
          19  -3.8029965073635999E-002
          20 -0.38183829867796704     
Sym=    17a
Ene=    8.9339694821319232E-002
Spin= Alpha
Occup=     0.00000000
           1 -0.75568038558257666     
           2  0.21352130658658888     
           3   1.1996110684415274E-002
           4  -6.1877715931496290E-002
           5  0.89699403628419838     
           6   6.5843937534694626E-004
           7  -4.7368794189244674E-003
           8   3.1843253203325112E-004
           9 -0.75529250657333469     
          10 -0.21388827905539162     
          11  -6.3649819175873130E-003
          12   6.0559961303813546E-002
          13  0.19360163627880783     
          14 -0.40569529692716189     
          15  -1.9363993047685907E-002
          16  0.11502616728740062     
          17  0.19359893338703510     
          18  0.40564061553769004     
          19   1.8955261381158547E-002
          20 -0.11487876649366087     
Sym=    18a
Ene=   0.45850241564208810     
Spin= Alpha
Occup=     0.00000000
           1  0.87409148076510668     
           2  0.22063390067506689     
           3   1.0705096076368679E-002
           4  -6.1233996084147875E-002
           5   6.6811995631881581E-005
           6 -0.63450728185107019     
           7  -3.0487078896120429E-002
           8  0.17942145061019421     
           9 -0.87458601198656016     
          10  0.22063123402570273     
          11   1.2344635092138467E-002
          12  -6.2203508359958436E-002
          13 -0.43943782210040833     
          14  0.58483543291585072     
          15   2.6300938675336040E-002
          16 -0.16503287895001478     
          17  0.43977453175104964     
          18  0.58491296348009014     
          19   2.9898971423925325E-002
          20 -0.16574365648605033     
Sym=    19a
Ene=   0.94808357094013063     
Spin= Alpha
Occup=     0.00000000
           1  0.26142029750222517     
           2  0.93414556768277890     
           3   4.2568794315033284E-002
           4 -0.26379913514184022     
           5  0.83000190086312342     
           6   2.9164260284039766E-004
           7  -1.0772063767516377E-003
           8  -3.5677865299956396E-004
           9  0.26112085721819572     
          10 -0.93284837783092733     
          11  -4.6781136885602828E-002
          12  0.26439064128042178     
          13 -0.58486871253718509     
          14  0.59664087884365624     
          15   2.7001702573465375E-002
          16 -0.16791376663232968     
          17 -0.58427333926391201     
          18 -0.59558651322798950     
          19  -3.1085693797056318E-002
          20  0.16862999967330120     
Sym=    20a
Ene=    1.4163180195950589     
Spin= Alpha
Occup=     0.00000000
           1  0.32149722662492525     
           2  -1.0422321811875506     
           3  -4.6684593906380370E-002
           4  0.29486050445129547     
           5   7.5893223299249794E-004
           6  -1.2829785898421726     
           7  -6.0001415906139638E-002
           8  0.36398434435424493     
           9 -0.32183488568641438     
          10  -1.0427992067416310     
          11  -5.2452876667934259E-002
          12  0.29548808057428727     
          13  0.45565914370618332     
          14 -0.40194641393132952     
          15  -1.8363618853672201E-002
          16  0.11296117916316117     
          17 -0.45603392713116159     
          18 -0.40193982914491611     
          19  -2.1021721764208336E-002
          20  0.11380494056162659     
