      -----------------------------------------------------------      
     |                   =====================                   |     
     |                           x T B                           |     
     |                   =====================                   |     
     |                         S. Grimme                         |     
     |          Mulliken Center for Theoretical Chemistry        |     
     |                    University of Bonn                     |     
      -----------------------------------------------------------      

   * xtb version 6.2.2 (9d81278992624c895f80dd42a50cac0aa55982e2) compiled by '@Darwin' on 04/03/2020

   xtb is free software: you can redistribute it and/or modify it under
   the terms of the GNU Lesser General Public License as published by
   the Free Software Foundation, either version 3 of the License, or
   (at your option) any later version.
   
   xtb is distributed in the hope that it will be useful,
   but WITHOUT ANY WARRANTY; without even the implied warranty of
   MERCHANTABILITY or FITNESS FOR A PARTICULAR PURPOSE.  See the
   GNU Lesser General Public License for more details.
   
   Cite this work as:
   * S. Grimme, C. Bannwarth, P. Shushkov, J. Chem. Theory Comput., 2017,
     13, 1989-2009. DOI: 10.1021/acs.jctc.7b00118
   * C. Bannwarth, S. Ehlert and S. Grimme., J. Chem. Theory Comput., 2019,
     15, 1652-1671. DOI: 10.1021/acs.jctc.8b01176
   * P. Pracht, E. Caldeweyher, S. Ehlert, S. Grimme, ChemRxiv, 2019, preprint.
     DOI: 10.26434/chemrxiv.8326202.v1
   
   for DFT-D4:
   * E. Caldeweyher, C. Bannwarth and S. Grimme, J. Chem. Phys., 2017,
     147, 034112. DOI: 10.1063/1.4993215
   * E. Caldeweyher, S. Ehlert, A. Hansen, H. Neugebauer, S. Spicher,
     C. Bannwarth and S. Grimme, J. Chem. Phys., 2019, 150, 154122.
     DOI: 10.1063/1.5090222
   
   for sTDA-xTB:
   * S. Grimme and C. Bannwarth, J. Chem. Phys., 2016, 145, 054103.
     DOI: 10.1063/1.4959605
   
   in the mass-spec context:
   * V. Asgeirsson, C. Bauer and S. Grimme, Chem. Sci., 2017, 8, 4879.
     DOI: 10.1039/c7sc00601b
   
   for metadynamics refer to:
   * S. Grimme, J. Chem. Theory Comput., 2019, 155, 2847-2862
     DOI: 10.1021/acs.jctc.9b00143
   
   with help from (in alphabetical order)
   C. Bannwarth, F. Bohle, G. Brandenburg, E. Caldeweyher, M. Checinski,
   S. Dohm, S. Ehlert, S. Ehrlich, F. März, H. Neugebauer, J. Pisarek,
   P. Pracht, P. Shushkov, and S. Spicher.
   
 * started run on 2020/05/12 at 11:45:17.366     

           -------------------------------------------------
          |                Calculation Setup                |
           -------------------------------------------------

          program call               : xtb --input C3O1_0_S_2.input C3O1_0_S_2.xyz --ohess --molden --namespace C3O1_0_S_2 output.out
          calculation namespace      : C3O1_0_S_2
          coordinate file            : C3O1_0_S_2.xyz
          number of atoms            :                     4
          number of electrons        :                    18
          charge                     :                     0
          spin                       :                   1.0
          first test random number   :      0.08779511226872

   ID    Z sym.   atoms
    1    6 C      1-3
    2    8 O      4

           -------------------------------------------------
          |                 G F N 2 - x T B                 |
           -------------------------------------------------

        Reference                      10.1021/acs.jctc.8b01176
      * Hamiltonian:
        H0-scaling (s, p, d)           1.850000    2.230000    2.230000
        zeta-weighting                 0.500000
      * Dispersion:
        s8                             2.700000
        a1                             0.520000
        a2                             5.000000
        s9                             5.000000
      * Repulsion:
        kExp                           1.500000    1.000000
        rExp                           1.000000
      * Coulomb:
        alpha                          2.000000
        third order                    shell-resolved
        anisotropic                    true
        a3                             3.000000
        a5                             4.000000
        cn-shift                       1.200000
        cn-exp                         4.000000
        max-rad                        5.000000


          ...................................................
          :                      SETUP                      :
          :.................................................:
          :  # basis functions                  16          :
          :  # atomic orbitals                  16          :
          :  # shells                            8          :
          :  # electrons                        18          :
          :  max. iterations                   250          :
          :  Hamiltonian                  GFN2-xTB          :
          :  restarted?                      false          :
          :  GBSA solvation                  false          :
          :  PC potential                    false          :
          :  electronic temp.          300.0000000     K    :
          :  accuracy                    1.0000000          :
          :  -> integral cutoff          0.2500000E+02      :
          :  -> integral neglect         0.1000000E-07      :
          :  -> SCF convergence          0.1000000E-05 Eh   :
          :  -> wf. convergence          0.1000000E-03 e    :
          :  Broyden damping             0.4000000          :
          ...................................................

 iter      E             dE          RMSdq      gap      omega  full diag
   1     -9.8803240 -0.988032E+01  0.119E+01    0.27       0.0  T
   2     -8.9292195  0.951105E+00  0.126E+01    0.02       1.0  T
   3     -9.6414032 -0.712184E+00  0.102E+01    0.37       1.0  T
   4     -9.8277399 -0.186337E+00  0.628E+00    0.30       1.0  T
   5     -9.8742100 -0.464701E-01  0.510E+00    0.27       1.0  T
   6     -9.9552320 -0.810220E-01  0.331E+00    0.21       1.0  T
   7     -9.9525700  0.266202E-02  0.306E+00    0.21       1.0  T
   8     -9.9806683 -0.280983E-01  0.232E+00    0.19       1.0  T
   9     -9.9961274 -0.154591E-01  0.149E+00    0.18       1.0  T
  10     -9.9918547  0.427273E-02  0.174E+00    0.18       1.0  T
  11    -10.0055126 -0.136579E-01  0.361E-01    0.15       1.0  T
  12    -10.0055518 -0.392481E-04  0.347E-01    0.15       1.0  T
  13    -10.0061022 -0.550377E-03  0.147E-01    0.16       1.0  T
  14    -10.0061593 -0.571166E-04  0.885E-02    0.16       1.0  T
  15    -10.0061864 -0.270772E-04  0.135E-02    0.16       3.7  T
  16    -10.0061864  0.944125E-08  0.103E-02    0.16       4.8  T
  17    -10.0061869 -0.494950E-06  0.285E-03    0.16      17.5  T
  18    -10.0061869 -0.209694E-07  0.489E-04    0.16     102.2  T
  19    -10.0061869  0.165102E-09  0.422E-04    0.16     118.4  T

   *** convergence criteria satisfied after 19 iterations ***

         #    Occupation            Energy/Eh            Energy/eV
      -------------------------------------------------------------
         1        2.0000           -0.7646590             -20.8074
       ...           ...                  ...                  ...
         4        2.0000           -0.6258418             -17.0300
         5        2.0000           -0.5826197             -15.8539
         6        2.0000           -0.5582773             -15.1915
         7        2.0000           -0.5551705             -15.1070
         8        1.8419           -0.4853189             -13.2062
         9        1.1581           -0.4821407             -13.1197
        10        0.9553           -0.4475648             -12.1789 (HOMO)
        11        0.0447           -0.4417457             -12.0205 (LUMO)
        12                         -0.4231926             -11.5157
        13                         -0.3546220              -9.6498
        14                          0.0379217               1.0319
        15                          0.0552275               1.5028
        16                          0.0686761               1.8688
      -------------------------------------------------------------
                  HL-Gap            0.0058190 Eh            0.1583 eV
             Fermi-level           -0.4641925 Eh          -12.6313 eV

 transition dipole moment (au) for excitation:           9          10
     X       Y       Z   
  -0.0088  -0.1379  -0.0002  total (au/Debye):    0.138   0.351
 dE (eV)             :    0.941
 oscillator strength :  0.62275E-03

 SCC (total)                   0 d,  0 h,  0 min,  0.005 sec
 SCC setup                      ...        0 min,  0.000 sec (  2.092%)
 Dispersion                     ...        0 min,  0.000 sec (  0.398%)
 integral evaluation            ...        0 min,  0.001 sec ( 22.103%)
 zeroth order Hamiltonian       ...        0 min,  0.000 sec (  0.494%)
 iterations                     ...        0 min,  0.002 sec ( 37.275%)
 molecular gradient             ...        0 min,  0.001 sec ( 20.940%)
 printout                       ...        0 min,  0.001 sec ( 16.462%)

         :::::::::::::::::::::::::::::::::::::::::::::::::::::
         ::                     SUMMARY                     ::
         :::::::::::::::::::::::::::::::::::::::::::::::::::::
         :: total energy              -9.968056471193 Eh    ::
         :: gradient norm              0.217968399074 Eh/a0 ::
         :: HOMO-LUMO gap              0.158344028533 eV    ::
         ::.................................................::
         :: SCC energy               -10.006186897754 Eh    ::
         :: -> isotropic ES           -0.008298409801 Eh    ::
         :: -> anisotropic ES         -0.001451225556 Eh    ::
         :: -> anisotropic XC          0.004226315509 Eh    ::
         :: -> dispersion             -0.001745074486 Eh    ::
         :: repulsion energy           0.038130377361 Eh    ::
         :: add. restraining           0.000000000000 Eh    ::
         :::::::::::::::::::::::::::::::::::::::::::::::::::::

      ----------------------------------------------------------- 
     |                   =====================                   |
     |                        A N C O P T                        |
     |                   =====================                   |
     |               Approximate Normal Coordinate               |
     |                Rational Function Optimizer                |
      ----------------------------------------------------------- 

          ...................................................
          :                      SETUP                      :
          :.................................................:
          :   optimization level            normal          :
          :   max. optcycles                   200          :
          :   ANC micro-cycles                  20          :
          :   degrees of freedom                 6          :
          :.................................................:
          :   RF solver                   davidson          :
          :   write xtbopt.log                true          :
          :   linear?                        false          :
          :   energy convergence         0.5000000E-05 Eh   :
          :   grad. convergence          0.1000000E-02 Eh/α :
          :   maximium RF displ.         1.0000000          :
          :   Hlow (freq-cutoff)         0.1000000E-01      :
          :   Hmax (freq-cutoff)         5.0000000          :
          :   S6 in model hess.         20.0000000          :
          ...................................................

generating ANC from model Hessian ...
Using Lindh-Hessian (1995)
 Shifting diagonal of input Hessian by    0.0000000000000000     
 Lowest  eigenvalues of input Hessian
   -0.000000   -0.000000   -0.000000   -0.000000    0.000000    0.000000
    0.066696    0.096505    0.111388    0.623971    0.996469    1.279129
 Highest eigenvalues
    0.066696    0.096505    0.111388    0.623971    0.996469    1.279129


........................................................................
.............................. CYCLE    1 ..............................
........................................................................
   1    -10.0061869 -0.100062E+02  0.381E-04    0.16       0.0  T
   2    -10.0061869  0.292715E-08  0.818E-04    0.16      61.1  T
   3    -10.0061869 -0.346932E-08  0.152E-04    0.16     328.3  T
     SCC iter.                  ...        0 min,  0.001 sec
     gradient                   ...        0 min,  0.001 sec
 * total energy  :    -9.9680565 Eh     change       -0.1476597E-09 Eh
   gradient norm :     0.2179702 Eh/α   predicted     0.0000000E+00 (-100.00%)
   displ. norm   :     0.3896022 α      lambda       -0.7049828E-01
   maximum displ.:     0.2714512 α      in ANC's #4, #2, #1, ...

........................................................................
.............................. CYCLE    2 ..............................
........................................................................
   1    -10.0928460 -0.100928E+02  0.179E+00    0.41       0.0  T
   2    -10.0893742  0.347186E-02  0.162E+00    0.45       1.0  T
   3    -10.0945546 -0.518042E-02  0.102E+00    0.40       1.0  T
   4    -10.0950184 -0.463795E-03  0.591E-01    0.43       1.0  T
   5    -10.0650858  0.299326E-01  0.198E+00    0.45       1.0  T
   6    -10.0968971 -0.318113E-01  0.616E-02    0.42       1.0  T
   7    -10.0968976 -0.554933E-06  0.312E-02    0.42       1.6  T
   8    -10.0968989 -0.129545E-05  0.326E-03    0.42      15.3  T
   9    -10.0968990 -0.297650E-07  0.951E-04    0.42      52.6  T
  10    -10.0968990 -0.161439E-09  0.330E-04    0.42     151.5  T
     SCC iter.                  ...        0 min,  0.001 sec
     gradient                   ...        0 min,  0.001 sec
 * total energy  :   -10.0263134 Eh     change       -0.5825696E-01 Eh
   gradient norm :     0.1356430 Eh/α   predicted    -0.4059962E-01 ( -30.31%)
   displ. norm   :     0.7120349 α      lambda       -0.7559329E-01
   maximum displ.:     0.4701367 α      in ANC's #1, #2, #4, ...

........................................................................
.............................. CYCLE    3 ..............................
........................................................................
   1    -10.1868715 -0.101869E+02  0.477E+00    1.03       0.0  T
   2    -10.1733138  0.135576E-01  0.363E+00    1.86       1.0  T
   3    -10.2156843 -0.423704E-01  0.194E+00    1.24       1.0  T
   4    -10.2202323 -0.454803E-02  0.405E-01    1.35       1.0  T
   5    -10.2202035  0.288195E-04  0.187E-01    1.37       1.0  T
   6    -10.2202536 -0.501610E-04  0.440E-02    1.36       1.1  T
   7    -10.2202432  0.104450E-04  0.473E-02    1.35       1.1  T
   8    -10.2202575 -0.143168E-04  0.149E-02    1.35       3.4  T
   9    -10.2202576 -0.903811E-07  0.139E-02    1.36       3.6  T
  10    -10.2202579 -0.253114E-06  0.104E-03    1.35      48.0  T
  11    -10.2202579  0.276366E-10  0.931E-04    1.35      53.7  T
  12    -10.2202579 -0.111962E-08  0.380E-05    1.35    1315.3  T
     SCC iter.                  ...        0 min,  0.001 sec
     gradient                   ...        0 min,  0.001 sec
 * total energy  :   -10.0882972 Eh     change       -0.6198373E-01 Eh
   gradient norm :     0.1260427 Eh/α   predicted    -0.5695929E-01 (  -8.11%)
   displ. norm   :     0.9290796 α      lambda       -0.8670270E-01
   maximum displ.:     0.6604016 α      in ANC's #2, #1, #4, ...

........................................................................
.............................. CYCLE    4 ..............................
........................................................................
   1    -10.3707655 -0.103708E+02  0.696E+00    2.64       0.0  T
   2    -10.3773255 -0.655999E-02  0.409E+00    3.14       1.0  T
   3    -10.3737694  0.355612E-02  0.155E+00    2.65       1.0  T
   4    -10.3795748 -0.580542E-02  0.256E-01    2.92       1.0  T
   5    -10.3795926 -0.177863E-04  0.156E-01    2.93       1.0  T
   6    -10.3795996 -0.702596E-05  0.227E-02    2.93       2.2  T
   7    -10.3796021 -0.252323E-05  0.413E-03    2.93      12.1  T
   8    -10.3796021  0.342980E-07  0.283E-03    2.93      17.7  T
   9    -10.3796021 -0.431585E-07  0.837E-04    2.93      59.7  T
  10    -10.3796021 -0.326871E-08  0.144E-04    2.93     346.7  T
     SCC iter.                  ...        0 min,  0.001 sec
     gradient                   ...        0 min,  0.001 sec
 * total energy  :   -10.1832954 Eh     change       -0.9499824E-01 Eh
   gradient norm :     0.2916330 Eh/α   predicted    -0.8077172E-01 ( -14.98%)
   displ. norm   :     0.4345334 α      lambda       -0.7622495E-01
   maximum displ.:     0.3058747 α      in ANC's #2, #1, #6, ...

........................................................................
.............................. CYCLE    5 ..............................
........................................................................
   1    -10.2255259 -0.102255E+02  0.299E+00    2.89       0.0  T
   2    -10.2357971 -0.102712E-01  0.243E+00    2.01       1.0  T
   3    -10.2601383 -0.243412E-01  0.922E-01    2.55       1.0  T
   4    -10.2598072  0.331109E-03  0.390E-01    2.56       1.0  T
   5    -10.2602695 -0.462292E-03  0.106E-01    2.55       1.0  T
   6    -10.2602815 -0.119580E-04  0.487E-02    2.54       1.0  T
   7    -10.2602819 -0.402340E-06  0.596E-03    2.54       8.4  T
   8    -10.2602820 -0.111328E-06  0.402E-03    2.54      12.4  T
   9    -10.2602820 -0.667989E-07  0.539E-04    2.54      92.7  T
  10    -10.2602820 -0.786914E-09  0.107E-04    2.54     467.8  T
     SCC iter.                  ...        0 min,  0.001 sec
     gradient                   ...        0 min,  0.001 sec
 * total energy  :   -10.1760554 Eh     change        0.7240010E-02 Eh
   gradient norm :     0.1930637 Eh/α   predicted    -0.4530885E-01 (-725.81%)
   displ. norm   :     0.2714692 α      lambda       -0.4065124E-01
   maximum displ.:     0.2050040 α      in ANC's #1, #2, #4, ...

........................................................................
.............................. CYCLE    6 ..............................
........................................................................
   1    -10.3389462 -0.103389E+02  0.148E+00    2.99       0.0  T
   2    -10.3397004 -0.754260E-03  0.884E-01    3.15       1.0  T
   3    -10.3395984  0.102059E-03  0.559E-01    3.00       1.0  T
   4    -10.3401850 -0.586661E-03  0.752E-02    3.07       1.0  T
   5    -10.3401872 -0.211616E-05  0.427E-02    3.07       1.2  T
   6    -10.3401886 -0.141950E-05  0.466E-03    3.07      10.7  T
   7    -10.3401887 -0.955965E-07  0.145E-03    3.07      34.4  T
   8    -10.3401887  0.889388E-08  0.156E-03    3.07      32.0  T
   9    -10.3401887 -0.130096E-07  0.489E-05    3.07    1023.4  T
  10    -10.3401887 -0.888178E-12  0.249E-05    3.07    2008.8  T
     SCC iter.                  ...        0 min,  0.001 sec
     gradient                   ...        0 min,  0.001 sec
 * total energy  :   -10.1964167 Eh     change       -0.2036132E-01 Eh
   gradient norm :     0.1095235 Eh/α   predicted    -0.2182353E-01 (   7.18%)
   displ. norm   :     0.2760374 α      lambda       -0.1413950E-01
   maximum displ.:     0.2508101 α      in ANC's #2, #4, #6, ...

........................................................................
.............................. CYCLE    7 ..............................
........................................................................
   1    -10.3340670 -0.103341E+02  0.152E+00    2.30       0.0  T
   2    -10.3354088 -0.134178E-02  0.994E-01    2.54       1.0  T
   3    -10.3356868 -0.278037E-03  0.521E-01    2.40       1.0  T
   4    -10.3360393 -0.352466E-03  0.450E-02    2.47       1.1  T
   5    -10.3360394 -0.171780E-06  0.124E-02    2.47       4.0  T
   6    -10.3360397 -0.272581E-06  0.335E-03    2.47      14.9  T
   7    -10.3360397  0.582562E-07  0.363E-03    2.47      13.8  T
   8    -10.3360397 -0.665736E-07  0.155E-03    2.47      32.3  T
   9    -10.3360397 -0.699749E-08  0.105E-04    2.47     478.0  T
  10    -10.3360397 -0.231459E-11  0.826E-06    2.47    6049.9  T
     SCC iter.                  ...        0 min,  0.001 sec
     gradient                   ...        0 min,  0.001 sec
 * total energy  :   -10.1909232 Eh     change        0.5493469E-02 Eh
   gradient norm :     0.1143084 Eh/α   predicted    -0.7608445E-02 (-238.50%)
   displ. norm   :     0.2455490 α      lambda       -0.1760380E-01
   maximum displ.:     0.2333437 α      in ANC's #2, #4, #1, ...

........................................................................
.............................. CYCLE    8 ..............................
........................................................................
   1    -10.3431713 -0.103432E+02  0.142E+00    2.90       0.0  T
   2    -10.3434266 -0.255331E-03  0.807E-01    2.92       1.0  T
   3    -10.3433426  0.840146E-04  0.320E-01    2.90       1.0  T
   4    -10.3434991 -0.156499E-03  0.324E-02    2.91       1.5  T
   5    -10.3434991 -0.174623E-07  0.547E-03    2.91       9.1  T
   6    -10.3434992 -0.124351E-06  0.192E-03    2.91      26.1  T
   7    -10.3434992  0.296700E-08  0.147E-03    2.91      34.0  T
   8    -10.3434992 -0.316857E-08  0.106E-03    2.91      47.4  T
   9    -10.3434992 -0.496362E-08  0.442E-05    2.91    1130.1  T
  10    -10.3434992 -0.355271E-12  0.451E-06    2.91   11095.4  T
     SCC iter.                  ...        0 min,  0.001 sec
     gradient                   ...        0 min,  0.001 sec
 * total energy  :   -10.1992656 Eh     change       -0.8342405E-02 Eh
   gradient norm :     0.0465395 Eh/α   predicted    -0.9332605E-02 (  11.87%)
   displ. norm   :     0.0615569 α      lambda       -0.2549554E-02
   maximum displ.:     0.0491630 α      in ANC's #6, #2, #1, ...

........................................................................
.............................. CYCLE    9 ..............................
........................................................................
   1    -10.3369571 -0.103370E+02  0.649E-01    3.03       0.0  T
   2    -10.3378346 -0.877505E-03  0.451E-01    2.82       1.0  T
   3    -10.3383646 -0.530047E-03  0.197E-01    2.91       1.0  T
   4    -10.3383664 -0.174803E-05  0.209E-02    2.90       2.4  T
   5    -10.3383674 -0.100324E-05  0.967E-03    2.90       5.2  T
   6    -10.3383674 -0.277221E-07  0.332E-03    2.90      15.1  T
   7    -10.3383674 -0.213751E-07  0.623E-04    2.90      80.3  T
   8    -10.3383674  0.311677E-08  0.770E-04    2.90      65.0  T
     SCC iter.                  ...        0 min,  0.001 sec
     gradient                   ...        0 min,  0.001 sec
 * total energy  :   -10.1993350 Eh     change       -0.6939491E-04 Eh
   gradient norm :     0.0467846 Eh/α   predicted    -0.1279608E-02 (1743.95%)
   displ. norm   :     0.0259049 α      lambda       -0.1157442E-02
   maximum displ.:     0.0233514 α      in ANC's #6, #1, #2, ...

........................................................................
.............................. CYCLE   10 ..............................
........................................................................
   1    -10.3411256 -0.103411E+02  0.286E-01    2.83       0.0  T
   2    -10.3413306 -0.204987E-03  0.203E-01    2.92       1.0  T
   3    -10.3414387 -0.108099E-03  0.884E-02    2.89       1.0  T
   4    -10.3414381  0.609509E-06  0.161E-02    2.89       3.1  T
   5    -10.3414390 -0.945357E-06  0.444E-03    2.89      11.3  T
   6    -10.3414390 -0.238455E-09  0.137E-03    2.89      36.6  T
   7    -10.3414390  0.481894E-08  0.125E-03    2.89      40.1  T
   8    -10.3414391 -0.948834E-08  0.242E-04    2.89     206.9  T
   9    -10.3414391 -0.213642E-10  0.108E-05    2.89    4619.1  T
     SCC iter.                  ...        0 min,  0.001 sec
     gradient                   ...        0 min,  0.001 sec
 * total energy  :   -10.1999333 Eh     change       -0.5983106E-03 Eh
   gradient norm :     0.0018311 Eh/α   predicted    -0.5791089E-03 (  -3.21%)
   displ. norm   :     0.0026984 α      lambda       -0.2740353E-05
   maximum displ.:     0.0017830 α      in ANC's #2, #1, #4, ...

........................................................................
.............................. CYCLE   11 ..............................
........................................................................
   1    -10.3422864 -0.103423E+02  0.172E-02    2.89       0.0  T
   2    -10.3422868 -0.397587E-06  0.103E-02    2.90       4.9  T
   3    -10.3422870 -0.216556E-06  0.604E-03    2.89       8.3  T
   4    -10.3422871 -0.212762E-07  0.599E-04    2.89      83.5  T
   5    -10.3422871  0.781315E-09  0.526E-04    2.89      95.0  T
     SCC iter.                  ...        0 min,  0.000 sec
     gradient                   ...        0 min,  0.001 sec
 * total energy  :   -10.1999341 Eh     change       -0.7486280E-06 Eh
   gradient norm :     0.0011346 Eh/α   predicted    -0.1369469E-05 (  82.93%)
   displ. norm   :     0.0012269 α      lambda       -0.7351280E-06
   maximum displ.:     0.0009864 α      in ANC's #1, #2, #4, ...

........................................................................
.............................. CYCLE   12 ..............................
........................................................................
   1    -10.3419673 -0.103420E+02  0.766E-03    2.89       0.0  T
   2    -10.3419674 -0.537698E-07  0.454E-03    2.89      11.0  T
   3    -10.3419674 -0.232716E-07  0.292E-03    2.89      17.1  T
   4    -10.3419674  0.166174E-07  0.208E-03    2.89      24.1  T
   5    -10.3419674 -0.275729E-07  0.221E-04    2.89     226.5  T
   6    -10.3419674 -0.139408E-10  0.124E-04    2.89     401.9  T
     SCC iter.                  ...        0 min,  0.000 sec
     gradient                   ...        0 min,  0.001 sec
 * total energy  :   -10.1999347 Eh     change       -0.5700943E-06 Eh
   gradient norm :     0.0001021 Eh/α   predicted    -0.3671666E-06 ( -35.60%)
   displ. norm   :     0.0004005 α      lambda       -0.2057609E-07
   maximum displ.:     0.0002586 α      in ANC's #2, #4, #1, ...

   *** GEOMETRY OPTIMIZATION CONVERGED AFTER 12 ITERATIONS ***

------------------------------------------------------------------------
 total energy gain   :        -0.2318782 Eh     -145.5058 kcal/mol
 total RMSD          :         0.9863513 a0        0.5220 Å
 total power (kW/mol):       -50.7330097 (step)********** (real)
------------------------------------------------------------------------

 ANCopt (total)                0 d,  0 h,  0 min,  0.037 sec
 optimizer setup                ...        0 min,  0.000 sec (  0.206%)
 model hessian                  ...        0 min,  0.000 sec (  0.225%)
 ANC generation                 ...        0 min,  0.000 sec (  0.141%)
 coordinate transformation      ...        0 min,  0.000 sec (  0.078%)
 single point calculation       ...        0 min,  0.036 sec ( 96.423%)
 optimization log               ...        0 min,  0.000 sec (  0.906%)
 hessian update                 ...        0 min,  0.000 sec (  0.078%)
 rational function              ...        0 min,  0.000 sec (  0.740%)

================
 final structure:
================
4
 xtb: 6.2.2 (9d81278992624c895f80dd42a50cac0aa55982e2)
C        -0.89556021559119    0.72259875776049   -0.03931465056711
C         0.35172759916070   -0.02248231516830    0.01543100915810
C        -0.98017953098955   -0.60269719387546   -0.04149165506827
O         1.52401214742005   -0.09741924871673    0.06537529647729

 Bond Distances (Angstroems)
 ---------------------------
C1-C2=1.4539         C1-C3=1.3280         C2-C1=1.4539         C2-C3=1.4539         C2-O4=1.1757         C3-C1=1.3280         
C3-C2=1.4539         O4-C2=1.1757         
 C  C  Rav=1.4119 sigma=0.0594  Rmin=1.3280  Rmax=1.4539     3
 O  C  Rav=1.1757 sigma=0.0000  Rmin=1.1757  Rmax=1.1757     1

 selected bond angles (degree)
 --------------------
C3-C1-C2= 62.83                C3-C2-C1= 54.35                O4-C2-C1=152.83                O4-C2-C3=152.83                
C2-C3-C1= 62.83                

 selected dihedral angles (degree)
 ---------------------------------
O4-C2-C1-C3=179.91            C1-C3-C2-O4=180.09            
           -------------------------------------------------
          |                Final Singlepoint                |
           -------------------------------------------------

          ...................................................
          :                      SETUP                      :
          :.................................................:
          :  # basis functions                  16          :
          :  # atomic orbitals                  16          :
          :  # shells                            8          :
          :  # electrons                        18          :
          :  max. iterations                   250          :
          :  Hamiltonian                  GFN2-xTB          :
          :  restarted?                      false          :
          :  GBSA solvation                  false          :
          :  PC potential                    false          :
          :  electronic temp.          300.0000000     K    :
          :  accuracy                    1.0000000          :
          :  -> integral cutoff          0.2500000E+02      :
          :  -> integral neglect         0.1000000E-07      :
          :  -> SCF convergence          0.1000000E-05 Eh   :
          :  -> wf. convergence          0.1000000E-03 e    :
          :  Broyden damping             0.4000000          :
          ...................................................

 iter      E             dE          RMSdq      gap      omega  full diag
   1    -10.3419674 -0.103420E+02  0.155E-05    2.89       0.0  T
   2    -10.3419674 -0.230926E-13  0.900E-06    2.89    5558.3  T
   3    -10.3419674  0.461853E-13  0.394E-06    2.89   12679.5  T

   *** convergence criteria satisfied after 3 iterations ***

         #    Occupation            Energy/Eh            Energy/eV
      -------------------------------------------------------------
         1        2.0000           -0.7837508             -21.3269
       ...           ...                  ...                  ...
         4        2.0000           -0.6286120             -17.1054
         5        2.0000           -0.6133719             -16.6907
         6        2.0000           -0.5468629             -14.8809
         7        2.0000           -0.5282290             -14.3738
         8        2.0000           -0.4946823             -13.4610
         9        1.0000           -0.4249501             -11.5635
        10        1.0000           -0.3906763             -10.6308 (HOMO)
        11                         -0.2843781              -7.7383 (LUMO)
        12                         -0.2622288              -7.1356
        13                         -0.0224321              -0.6104
        14                          0.0760124               2.0684
        15                          0.4874855              13.2652
        16                          0.8183733              22.2691
      -------------------------------------------------------------
                  HL-Gap            0.1062982 Eh            2.8925 eV
             Fermi-level           -0.3986717 Eh          -10.8484 eV

 transition dipole moment (au) for excitation:           9          10
     X       Y       Z   
   0.0358   0.5604   0.0009  total (au/Debye):    0.562   1.427
 dE (eV)             :    0.933
 oscillator strength :  0.10190E-01

 SCC (total)                   0 d,  0 h,  0 min,  0.004 sec
 SCC setup                      ...        0 min,  0.000 sec (  1.581%)
 Dispersion                     ...        0 min,  0.000 sec (  0.316%)
 integral evaluation            ...        0 min,  0.001 sec ( 30.138%)
 zeroth order Hamiltonian       ...        0 min,  0.000 sec (  0.390%)
 iterations                     ...        0 min,  0.001 sec ( 14.531%)
 molecular gradient             ...        0 min,  0.001 sec ( 28.644%)
 printout                       ...        0 min,  0.001 sec ( 24.131%)

         :::::::::::::::::::::::::::::::::::::::::::::::::::::
         ::                     SUMMARY                     ::
         :::::::::::::::::::::::::::::::::::::::::::::::::::::
         :: total energy             -10.199934665395 Eh    ::
         :: gradient norm              0.000104523444 Eh/a0 ::
         :: HOMO-LUMO gap              2.892521944307 eV    ::
         ::.................................................::
         :: SCC energy               -10.341967415490 Eh    ::
         :: -> isotropic ES            0.013156802082 Eh    ::
         :: -> anisotropic ES          0.001276618800 Eh    ::
         :: -> anisotropic XC          0.001722030536 Eh    ::
         :: -> dispersion             -0.001620120403 Eh    ::
         :: repulsion energy           0.142032743294 Eh    ::
         :: add. restraining           0.000000000000 Eh    ::
         :::::::::::::::::::::::::::::::::::::::::::::::::::::

           ------------------------------------------------- 
          |                Numerical Hessian                |
           ------------------------------------------------- 
step length          :   0.00500
SCC accuracy         :   0.30000
Hessian scale factor :   1.00000
frozen atoms in %    :   0.00000    0
RMS gradient         :   0.00010
estimated CPU  time      0.00 min
estimated wall time      0.00 min

writing file <hessian>.

 projected vibrational frequencies (cm-1)
eigval :       -0.00    -0.00     0.00     0.00     0.00     0.00
eigval :      427.53   496.41   837.60   921.71  1639.46  2071.19
           -------------------------------------------------
          |                Property Printout                |
           -------------------------------------------------

    * Orbital Energies and Occupations

         #    Occupation            Energy/Eh            Energy/eV
      -------------------------------------------------------------
         1        2.0000           -0.7837508             -21.3269
         2        2.0000           -0.7336528             -19.9637
         3        2.0000           -0.6319462             -17.1961
         4        2.0000           -0.6286119             -17.1054
         5        2.0000           -0.6133719             -16.6907
         6        2.0000           -0.5468629             -14.8809
         7        2.0000           -0.5282290             -14.3738
         8        2.0000           -0.4946823             -13.4610
         9        1.0000           -0.4249502             -11.5635
        10        1.0000           -0.3906763             -10.6308 (HOMO)
        11                         -0.2843781              -7.7383 (LUMO)
        12                         -0.2622288              -7.1356
        13                         -0.0224321              -0.6104
        14                          0.0760124               2.0684
        15                          0.4874855              13.2652
        16                          0.8183733              22.2691
      -------------------------------------------------------------
                  HL-Gap            0.1062982 Eh            2.8925 eV
             Fermi-level           -0.3986717 Eh          -10.8484 eV

     #   Z        covCN         q      C6AA      α(0)
     1   6 C      1.960    -0.038    32.094     9.149
     2   6 C      2.814     0.309    21.760     7.643
     3   6 C      1.960    -0.038    32.094     9.149
     4   8 O      0.856    -0.233    18.606     5.783

 Mol. C6AA /au·bohr⁶  :        410.172499
 Mol. C8AA /au·bohr⁸  :      11053.769518
 Mol. α(0) /au        :         31.723541


Wiberg/Mayer (AO) data.
largest (>0.10) Wiberg bond orders for each atom
          total WBO             WBO to atom ...
     1  C   2.782        C    3 1.710    C    2 0.937    O    4 0.135
     2  C   3.730        O    4 1.856    C    1 0.937    C    3 0.937
     3  C   2.782        C    1 1.710    C    2 0.937    O    4 0.135
     4  O   2.125        C    2 1.856    C    1 0.135    C    3 0.135

MOs/occ written to file <molden.input>


molecular dipole:
                 x           y           z       tot (Debye)
 q only:       -0.329       0.021      -0.014
   full:       -0.191       0.012      -0.008       0.488
molecular quadrupole (traceless):
                xx          xy          yy          xz          yz          zz
 q only:       -1.967       0.183       0.890      -0.131       0.008       1.077
  q+dip:       -3.606       0.370       2.159      -0.217       0.015       1.447
Molecule has the following symmetry elements: (C2) 2*(sigma) 
It seems to be the C2v point group
   full:       -4.428       0.371       1.346      -0.323       0.018       3.082

           -------------------------------------------------
          |                Geometry Summary                 |
           -------------------------------------------------

      molecular mass/u    :       52.0316126
   center of mass at/Å    :        0.1168286      -0.0074686       0.0050112
  moments of inertia/u·Å² :        0.1059092E+02   0.5941590E+02   0.7000682E+02
rotational constants/cm⁻¹ :        0.1591707E+01   0.2837226E+00   0.2407999E+00

 * 1 selected distances

     #   Z        #   Z                                     value/Å
     2   6 C      4   8 O                                 1.1757385 (max)

 * 1 distinct bonds (by element types)

   Z      Z             #   av. dist./Å        max./Å        min./Å
   6 C    8 O           1     1.1757385     1.1757385     1.1757385

           -------------------------------------------------
          |               Frequency Printout                |
           -------------------------------------------------
 projected vibrational frequencies (cm-1)
eigval :       -0.00    -0.00     0.00     0.00     0.00     0.00
eigval :      427.53   496.41   837.60   921.71  1639.46  2071.19
 reduced masses (amu)
   1: 14.49   2: 13.42   3: 12.11   4: 12.54   5: 12.17   6: 14.97   7: 12.95   8: 12.63
   9: 12.02  10: 13.48  11: 12.25  12: 13.06
 IR intensities (amu)
   1:  0.08   2:  0.08   3:  0.03   4:  0.06   5:  0.03   6:  0.06   7:  0.43   8:  0.67
   9:  0.10  10:  0.03  11:  0.19  12:  2.51
 Raman intensities (amu)
   1:  0.00   2:  0.00   3:  0.00   4:  0.00   5:  0.00   6:  0.00   7:  0.00   8:  0.00
   9:  0.00  10:  0.00  11:  0.00  12:  0.00
 output can be read by thermo (or use thermo option).
 writing <g98.out> molden fake output.
 recommended (thermochemical) frequency scaling factor: 1.0
           -------------------------------------------------
          |             Thermodynamic Functions             |
           -------------------------------------------------

c2v symmetry found (for desy threshold:  0.10E+00) used in thermo

          ...................................................
          :                      SETUP                      :
          :.................................................:
          :  # frequencies                           6      :
          :  # imaginary freq.                       0      :
          :  linear?                             false      :
          :  only rotor calc.                    false      :
          :  symmetry                              c2v      :
          :  rotational number                       2      :
          :  scaling factor                  1.0000000      :
          :  rotor cutoff                   50.0000000 cm⁻¹ :
          :  imag. cutoff                  -20.0000000 cm⁻¹ :
          :.................................................:

    mode    ω/cm⁻¹     T·S(HO)/kcal·mol⁻¹    T·S(FR)/kcal·mol⁻¹   T·S(vib)
   ------------------------------------------------------------------------
   ------------------------------------------------------------------------

   temp. (K)  partition function   enthalpy   heat capacity  entropy
                                   cal/mol     cal/K/mol   cal/K/mol   J/K/mol
 298.15  VIB   1.30                  396.234      3.785      1.848
         ROT  0.802E+04              888.752      2.981     20.845
         INT  0.104E+05             1284.987      6.766     22.693
         TR   0.363E+27             1481.254      4.968     37.753
         TOT                        2766.2407    11.7339    60.4469   252.9099

   temp. (K)  partition function   enthalpy   heat capacity  entropy
                                   cal/mol     cal/K/mol   cal/K/mol   J/K/mol
 120.00  VIB   1.01                   11.152      0.511      0.110
         ROT  0.205E+04              357.707      2.981     18.132
         INT  0.206E+04              368.859      3.491     18.242
         TR   0.927E+26              596.178      4.968     33.234
         TOT                         965.0369     8.4596    51.4763   215.3770

   temp. (K)  partition function   enthalpy   heat capacity  entropy
                                   cal/mol     cal/K/mol   cal/K/mol   J/K/mol
 100.00  VIB   1.00                    3.753      0.244      0.043
         ROT  0.156E+04              298.089      2.981     17.589
         INT  0.156E+04              301.842      3.224     17.632
         TR   0.705E+26              496.815      4.968     32.329
         TOT                         798.6565     8.1926    49.9607   209.0357

   temp. (K)  partition function   enthalpy   heat capacity  entropy
                                   cal/mol     cal/K/mol   cal/K/mol   J/K/mol
  80.00  VIB   1.00                    0.749      0.075      0.011
         ROT  0.111E+04              238.471      2.981     16.923
         INT  0.111E+04              239.220      3.056     16.934
         TR   0.505E+26              397.452      4.968     31.221
         TOT                         636.6723     8.0241    48.1546   201.4789

   temp. (K)  partition function   enthalpy   heat capacity  entropy
                                   cal/mol     cal/K/mol   cal/K/mol   J/K/mol
  60.00  VIB   1.00                    0.053      0.009      0.001
         ROT   724.                  178.853      2.981     16.066
         INT   724.                  178.906      2.990     16.067
         TR   0.328E+26              298.089      4.968     29.792
         TOT                         476.9951     7.9583    45.8589   191.8735

   temp. (K)  partition function   enthalpy   heat capacity  entropy
                                   cal/mol     cal/K/mol   cal/K/mol   J/K/mol
  40.00  VIB   1.00                    0.000      0.000     -0.000
         ROT   394.                  119.236      2.981     14.857
         INT   394.                  119.236      2.981     14.857
         TR   0.178E+26              198.726      4.968     27.779
         TOT                         317.9619     7.9491    42.6357   178.3878

   temp. (K)  partition function   enthalpy   heat capacity  entropy
                                   cal/mol     cal/K/mol   cal/K/mol   J/K/mol
  20.00  VIB   1.00                    0.000      0.000     -0.000
         ROT   139.                   59.618      2.981     12.791
         INT   139.                   59.618      2.981     12.791
         TR   0.631E+25               99.363      4.968     24.337
         TOT                         158.9808     7.9490    37.1273   155.3407

   temp. (K)  partition function   enthalpy   heat capacity  entropy
                                   cal/mol     cal/K/mol   cal/K/mol   J/K/mol
  10.00  VIB   1.00                    0.000      0.000     -0.001
         ROT   49.2                   29.809      2.981     10.725
         INT   49.2                   29.809      2.981     10.724
         TR   0.223E+25               49.681      4.968     20.895
         TOT                          79.4904     7.9490    31.6189   132.2936

       T/K    H(0)-H(T)+PV         H(T)/Eh          T*S/Eh         G(T)/Eh
   ------------------------------------------------------------------------
    298.15    0.440829E-02    0.189747E-01    0.287203E-01   -0.974559E-02
    120.00    0.153788E-02    0.161043E-01    0.984393E-02    0.626035E-02
    100.00    0.127274E-02    0.158391E-01    0.796175E-02    0.787739E-02
     80.00    0.101460E-02    0.155810E-01    0.613914E-02    0.944186E-02
     60.00    0.760140E-03    0.153265E-01    0.438484E-02    0.109417E-01
     40.00    0.506705E-03    0.150731E-01    0.271777E-02    0.123553E-01
     20.00    0.253352E-03    0.148198E-01    0.118332E-02    0.136364E-01
     10.00    0.126676E-03    0.146931E-01    0.503880E-03    0.141892E-01 (used)
   ------------------------------------------------------------------------

         :::::::::::::::::::::::::::::::::::::::::::::::::::::
         ::                  THERMODYNAMIC                  ::
         :::::::::::::::::::::::::::::::::::::::::::::::::::::
         :: total free energy         -10.185745468548 Eh   ::
         ::.................................................::
         :: total energy              -10.199934665380 Eh   ::
         :: zero point energy           0.014566400455 Eh   ::
         :: G(RRHO) w/o ZPVE           -0.000377203624 Eh   ::
         :: G(RRHO) contrib.            0.014189196831 Eh   ::
         :::::::::::::::::::::::::::::::::::::::::::::::::::::

optimized geometry written to: xtbopt.xyz


           -------------------------------------------------
          | TOTAL ENERGY              -10.199934665380 Eh   |
          | TOTAL ENTHALPY            -10.185241588909 Eh   |
          | TOTAL FREE ENERGY         -10.185745468548 Eh   |
          | GRADIENT NORM               0.000104503283 Eh/α |
          | HOMO-LUMO GAP               2.892521272120 eV   |
           -------------------------------------------------

------------------------------------------------------------------------
 * finished run on 2020/05/12 at 11:45:17.499     
------------------------------------------------------------------------
 total:
 * wall-time:     0 d,  0 h,  0 min,  0.132 sec
 *  cpu-time:     0 d,  0 h,  0 min,  0.132 sec
 * ratio c/w:     0.999 speedup
 SCF:
 * wall-time:     0 d,  0 h,  0 min,  0.005 sec
 *  cpu-time:     0 d,  0 h,  0 min,  0.005 sec
 * ratio c/w:     0.998 speedup
 ANC optimizer:
 * wall-time:     0 d,  0 h,  0 min,  0.041 sec
 *  cpu-time:     0 d,  0 h,  0 min,  0.041 sec
 * ratio c/w:     0.999 speedup
 numerical hessian:
 * wall-time:     0 d,  0 h,  0 min,  0.065 sec
 *  cpu-time:     0 d,  0 h,  0 min,  0.065 sec
 * ratio c/w:     0.999 speedup

