5
 energy: -10.983024479481 gnorm: 0.000367303324 xtb: 6.2.2 (9d81278992624c895f80dd42a50cac0aa55982e2)
C        -1.49683516132869   -0.00696774334318   -0.02131821903400
C        -0.47592024694316   -0.35510756450308   -0.87164885424948
N         0.62922872690492    0.04426193868641   -0.00370003686590
C        -0.50379775682257    0.18994577058212    0.90690858007862
C         1.84732343819299    0.12786759858472   -0.01024046992575
