[Molden Format]
[Title]
[Atoms] AU
C      1     6 -0.28286082461833E+01 -0.13167125403650E-01 -0.40285591701354E-01
C      2     6 -0.89935884044444E+00 -0.67105597943320E+00 -0.16471774585504E+01
N      3     7  0.11890698532755E+01  0.83642934101910E-01 -0.69920556788474E-02
C      4     6 -0.95203969426533E+00  0.35894545162828E+00  0.17138086774149E+01
C      5     6  0.34909350378982E+01  0.24163471911986E+00 -0.19351681751689E-01
[GTO]
           1 0
 s           4   1.0000000000000000     
   51.049363095579913      -0.16312063210127389     
   8.7911227406887544      -0.19911024581000730     
  0.70640422258929825       0.31882047753655751     
  0.26922813413411617       0.12706504184240380     
 p           4   1.0000000000000000     
   5.8263656140800002       0.73716451545209605     
   1.5106896018720002       0.68216371614850257     
  0.53256483288000001       0.35783053929253711     
  0.21202323690600003        5.3983030275847881E-002

           2 0
 s           4   1.0000000000000000     
   51.049363095579913      -0.16312063210127389     
   8.7911227406887544      -0.19911024581000730     
  0.70640422258929825       0.31882047753655751     
  0.26922813413411617       0.12706504184240380     
 p           4   1.0000000000000000     
   5.8263656140800002       0.73716451545209605     
   1.5106896018720002       0.68216371614850257     
  0.53256483288000001       0.35783053929253711     
  0.21202323690600003        5.3983030275847881E-002

           3 0
 s           4   1.0000000000000000     
   63.594024466941008      -0.19234388414721629     
   10.951417231523665      -0.23478107924953728     
  0.87999310257376984       0.37593753901700888     
  0.33538715296521110       0.14982889271862770     
 p           4   1.0000000000000000     
   7.2965040481495080       0.97658666315667420     
   1.8918745450712575       0.90372226730345739     
  0.66694432110824120       0.47404958461536373     
  0.26552202674130870        7.1516067715011844E-002

           4 0
 s           4   1.0000000000000000     
   51.049363095579913      -0.16312063210127389     
   8.7911227406887544      -0.19911024581000730     
  0.70640422258929825       0.31882047753655751     
  0.26922813413411617       0.12706504184240380     
 p           4   1.0000000000000000     
   5.8263656140800002       0.73716451545209605     
   1.5106896018720002       0.68216371614850257     
  0.53256483288000001       0.35783053929253711     
  0.21202323690600003        5.3983030275847881E-002

           5 0
 s           4   1.0000000000000000     
   51.049363095579913      -0.16312063210127389     
   8.7911227406887544      -0.19911024581000730     
  0.70640422258929825       0.31882047753655751     
  0.26922813413411617       0.12706504184240380     
 p           4   1.0000000000000000     
   5.8263656140800002       0.73716451545209605     
   1.5106896018720002       0.68216371614850257     
  0.53256483288000001       0.35783053929253711     
  0.21202323690600003        5.3983030275847881E-002

[MO]
Sym=     1a
Ene=  -0.74581957338419858     
Spin= Alpha
Occup=     2.00000000
           1 -0.22313118863689305     
           2 -0.13886478813484546     
           3   4.4052335241359514E-003
           4  -3.5264618604090572E-003
           5 -0.29360158210261300     
           6  -4.2978768895275465E-002
           7  -5.4114674767875251E-002
           8 -0.13832383837056431     
           9 -0.42359344120164127     
          10  0.18180793738541748     
          11   1.9847182111352647E-002
          12  -3.2324103174640119E-003
          13 -0.29360279620653318     
          14  -4.7397452303095833E-002
          15   3.2282640492875631E-002
          16  0.14359880389939725     
          17  -7.8728188132697899E-002
          18   6.8595297841314712E-002
          19   5.9050574297897663E-003
          20  -7.3479986200425645E-004
Sym=     2a
Ene=  -0.71522033219867753     
Spin= Alpha
Occup=     2.00000000
           1  0.16888826664669321     
           2   6.7413167899151707E-002
           3  -4.7694343292008267E-003
           4   2.5188072176681713E-003
           5  0.11006384421227222     
           6  -7.6349095889199178E-002
           7   1.3767607294338752E-002
           8   4.5842848798743771E-002
           9 -0.39521593698133101     
          10 -0.34349982274308516     
          11  -2.0606175552276128E-002
          12   9.3375407229283032E-004
          13  0.11006709141980117     
          14  -7.4880443179878228E-002
          15  -1.4945874196610797E-002
          16  -4.7852410143333864E-002
          17 -0.46587368331024337     
          18  0.17869850268152279     
          19   1.3421610222409576E-002
          20  -1.3140781108922665E-003
Sym=     3a
Ene=  -0.64554723635317091     
Spin= Alpha
Occup=     2.00000000
           1   1.9301316671802795E-007
           2  -2.7571074828692719E-003
           3   5.3922668712131569E-002
           4  0.17595388963104397     
           5 -0.41124085423878587     
           6 -0.10864527912334657     
           7  -9.8933349743591855E-003
           8   3.5848558167183957E-002
           9   3.3716166035236682E-006
          10  -8.1371455351352401E-003
          11  0.15915897155399644     
          12  0.51934777452616387     
          13  0.41123836058969038     
          14  0.10765713739325788     
          15   2.9231248912141152E-002
          16   2.7251138143064322E-002
          17   6.8430791300107337E-007
          18  -2.4244542317969947E-003
          19   4.7419210593636192E-002
          20  0.15473242239162871     
Sym=     4a
Ene=  -0.63004974674545033     
Spin= Alpha
Occup=     2.00000000
           1 -0.50431613927080321     
           2  -2.3637953059387797E-002
           3   1.2148173763956591E-002
           4  -4.0988902926962162E-003
           5  -5.5937303364514197E-002
           6  0.29870255481644520     
           7  -7.4369124944459533E-003
           8  -1.7675271042530056E-003
           9  0.24751175139774825     
          10 -0.33275361225139172     
          11  -7.4919380320296991E-002
          12   1.7749430392597011E-002
          13  -5.5944237418250754E-002
          14  0.29846277287731504     
          15  -2.5476743944277502E-003
          16   1.4186686648800739E-002
          17 -0.31904474752196765     
          18  -6.5678503639038203E-003
          19  -1.7497156840877034E-002
          20   5.2597572101190423E-003
Sym=     5a
Ene=  -0.59268834645762702     
Spin= Alpha
Occup=     2.00000000
           1   1.7679678314828969E-002
           2  -7.2239108377785168E-003
           3 -0.17847189324530924     
           4   5.4582297203690240E-002
           5   2.7236024541469873E-002
           6  -6.0128438257861030E-003
           7 -0.25537726664652410     
           8   8.6975832570190356E-002
           9  -4.1320630889680229E-002
          10   7.9849316784366214E-002
          11 -0.65232979580635397     
          12  0.20116270991741864     
          13   2.7238337232943513E-002
          14  -5.7620897849552022E-003
          15 -0.26031334794969357     
          16   7.0877562995999621E-002
          17   3.4107212500394883E-002
          18   2.8980923906463431E-002
          19 -0.27578925674247978     
          20   8.4971873878486995E-002
Sym=     6a
Ene=  -0.57601489624475399     
Spin= Alpha
Occup=     2.00000000
           1   7.2451844091026885E-006
           2   6.7836022334079532E-003
           3 -0.13265137732297166     
           4 -0.43285080084093686     
           5  0.26339495381019279     
           6 -0.31178780392377398     
           7  -2.0763795492262590E-002
           8  -5.9038226588889513E-002
           9  -2.8329139506304564E-006
          10  -5.2698212681929445E-003
          11  0.10314870706859683     
          12  0.33658542536815594     
          13 -0.26339320991739401     
          14  0.31351154223201905     
          15  -1.3137496052742366E-002
          16  -5.1579243907120355E-002
          17   4.5575307208833042E-006
          18  -2.6161421578494385E-003
          19   5.1200797825351418E-002
          20  0.16707362703870146     
Sym=     7a
Ene=  -0.49415242508949281     
Spin= Alpha
Occup=     2.00000000
           1 -0.30189181814336252     
           2  0.24212101918995507     
           3  -4.0476515520812981E-002
           4   1.6199500358648259E-002
           5  0.19425831478413935     
           6   7.8698678382243217E-002
           7  -4.1242635104631352E-002
           8  -5.1100025868661719E-002
           9 -0.24959136936773185     
          10 -0.14409463105917017     
          11   4.1548868310514381E-002
          12  -1.4991179699929403E-002
          13  0.19426004841150701     
          14   7.6840331290796163E-002
          15  -4.8474271459040047E-003
          16   6.7663134895843940E-002
          17  0.62967975415061850     
          18  0.52867806465637945     
          19   8.5252565732647057E-002
          20  -1.7845994349165128E-002
Sym=     8a
Ene=  -0.48128568113372083     
Spin= Alpha
Occup=     2.00000000
           1   7.4832524910466491E-002
           2  -1.8846239693470233E-002
           3  0.53804182421284408     
           4 -0.16518289120448476     
           5  -8.0090429398396917E-002
           6   1.8028934973913949E-002
           7  0.33413682206264661     
           8  -4.8464188071170235E-002
           9  -2.2380202074463069E-002
          10  -2.8984528130402549E-002
          11 -0.32904464726862259     
          12  0.10038398884968897     
          13  -8.0090163080446669E-002
          14   1.9565961823294977E-002
          15  0.30409188940156606     
          16 -0.14653687937115578     
          17  0.11691775074284845     
          18  0.14198711926768909     
          19 -0.35720025239364861     
          20  0.11169072306993022     
Sym=     9a
Ene=  -0.46804254700757492     
Spin= Alpha
Occup=     2.00000000
           1 -0.10270109377799505     
           2   4.7585015660954584E-002
           3  0.10798479165437531     
           4  -3.2343930050997581E-002
           5  0.45935226372519034     
           6  -8.8433393339403671E-003
           7  -7.5658523905047487E-002
           8 -0.46481075975531644     
           9  -5.3180555447534653E-002
          10  0.14773801773956868     
          11  -4.1942542391684857E-002
          12   1.5171789059094023E-002
          13  0.45934213373990546     
          14  -2.2819346100785676E-002
          15  0.19762669886329021     
          16  0.42693237586561134     
          17 -0.18520420503103197     
          18 -0.19957731251950156     
          19  -8.3873721674597473E-002
          20   2.2580649611002906E-002
Sym=    10a
Ene=  -0.41763880721358482     
Spin= Alpha
Occup=     1.00000000
           1  0.45566187615754294     
           2 -0.73215758353551486     
           3  -3.1573836149795122E-002
           4  -1.8013130133504632E-003
           5   5.5118747625658965E-002
           6  0.17218430549980693     
           7  -7.9199411004037434E-002
           8 -0.13680293492669918     
           9  0.14654850241219428     
          10 -0.24050091684793426     
          11   1.4035067183200693E-003
          12  -4.1989892481809881E-003
          13   5.5122713968464555E-002
          14  0.16749704781231556     
          15   1.2540042501916536E-002
          16  0.16256250742224451     
          17  0.15227363538753294     
          18  0.25156599294229548     
          19   8.2362340363805908E-002
          20  -2.1307922334755685E-002
Sym=    11a
Ene=  -0.40623698642671846     
Spin= Alpha
Occup=     1.00000000
           1  -3.4040242058157516E-006
           2   4.4814975160060470E-003
           3  -8.7482709478923129E-002
           4 -0.28546731838728562     
           5 -0.28526173149201511     
           6 -0.24322062408061176     
           7  0.22588494140701157     
           8  0.24039892603007845     
           9  -2.8431320716407753E-006
          10   2.0641132164187009E-003
          11  -4.0275491029475530E-002
          12 -0.13142160566191163     
          13  0.28526586261785020     
          14  0.23423471486724398     
          15  -5.0303290995056739E-002
          16  0.33252716240107938     
          17  -2.6426070459965622E-006
          18   9.7458333768115375E-003
          19 -0.19078453004990947     
          20 -0.62253674998600972     
Sym=    12a
Ene=  -0.36669266569686226     
Spin= Alpha
Occup=     1.00000000
           1   1.9040266500702470E-007
           2  -1.4119551932186643E-004
           3   2.7743938452301411E-003
           4   9.0447577450616760E-003
           5   1.0079018910881633E-002
           6  -5.7243260199977740E-002
           7 -0.67384886976712755     
           8  0.17242402993552663     
           9  -8.2382881855784011E-008
          10  -7.2884557423996254E-004
          11   1.4269270636642245E-002
          12   4.6563132090503903E-002
          13  -1.0079681973535910E-002
          14   5.8193121771989278E-002
          15  0.65524502451751321     
          16 -0.23307927164473000     
          17  -3.0962305707775130E-008
          18   4.7178675066029945E-003
          19  -9.2319372769686214E-002
          20 -0.30127181586117824     
Sym=    13a
Ene=  -0.32493722147980036     
Spin= Alpha
Occup=     0.00000000
           1   2.9215175547787385E-007
           2  -3.8955967864868928E-003
           3   7.6165213452747293E-002
           4  0.24856834686026535     
           5   8.8399411716690343E-002
           6  -6.5981144874091222E-002
           7   1.2394946865522647E-002
           8 -0.56620665381029078     
           9   3.1252430885173387E-006
          10  -4.7117696966708479E-003
          11   9.2127948295200310E-002
          12  0.30059959584159524     
          13  -8.8404764598216903E-002
          14   8.2061010862427661E-002
          15 -0.32685025580795407     
          16 -0.45992243364664248     
          17   6.8002508367309546E-007
          18   8.8817693992661578E-003
          19 -0.17373309961068092     
          20 -0.56685886130027985     
Sym=    14a
Ene=  -0.31438989627756259     
Spin= Alpha
Occup=     0.00000000
           1  -2.0344744522171672E-002
           2  -4.2273242542744158E-002
           3 -0.52257289142235053     
           4  0.15947978068685956     
           5  -1.0716930700098685E-002
           6  -1.8760441991678024E-002
           7  0.17108746314355089     
           8  -7.4962557201312521E-002
           9   5.0436272260977584E-002
          10  -7.0680658737436633E-002
          11  0.42637311494133850     
          12 -0.13177825756595621     
          13  -1.0715157055145030E-002
          14  -1.9399929521643103E-002
          15  0.18356919025539983     
          16  -3.4303656984380711E-002
          17   6.7722315240794822E-003
          18   8.2383749781710605E-002
          19 -0.76058562977956334     
          20  0.23438726053444686     
Sym=    15a
Ene=  -0.20017423091362779     
Spin= Alpha
Occup=     0.00000000
           1  -2.2262667555455022E-002
           2  -3.9517166528684139E-003
           3 -0.60953474443750522     
           4  0.18673459335773163     
           5  -2.3902039188351515E-002
           6  -2.7744874271215927E-002
           7  0.50827142328256880     
           8 -0.18714091691866760     
           9   2.3387953965060330E-002
          10   2.2970722602015652E-002
          11 -0.51974078805857471     
          12  0.15963870652304060     
          13  -2.3903137853058615E-002
          14  -2.8631378947863544E-002
          15  0.52561446601123074     
          16 -0.13058271888671363     
          17  -2.4208620503626981E-003
          18  -1.3012727682464505E-002
          19  0.39817686356594789     
          20 -0.12222847139904677     
Sym=    16a
Ene=   -1.5490698093376868E-002
Spin= Alpha
Occup=     0.00000000
           1 -0.25765565908549193     
           2   2.1403089969495758E-002
           3   6.8707580764693410E-002
           4  -2.0708100403030755E-002
           5 -0.19340139954719701     
           6 -0.60025267128207005     
           7 -0.13433918587856739     
           8 -0.22087990607805691     
           9  0.92214489306722447     
          10 -0.37193954183292555     
          11  -6.6153261156917206E-002
          12   1.4446761675616962E-002
          13 -0.19342088544357178     
          14 -0.60748528293504134     
          15   7.1859175877616623E-003
          16  0.24093736558699391     
          17 -0.10183051531549632     
          18  0.35107154443821548     
          19   4.1921033953211465E-002
          20  -7.3492948483537910E-003
Sym=    17a
Ene=    2.4457416862532170E-002
Spin= Alpha
Occup=     0.00000000
           1  -3.1404403478120969E-007
           2   9.7313233317909296E-004
           3  -1.9047813061007824E-002
           4  -6.2154101388231124E-002
           5 -0.45335237933382766     
           6 -0.41413273928833583     
           7 -0.19068245576185477     
           8 -0.42932248022413855     
           9   5.5091885918160293E-006
          10   1.2626257706598672E-002
          11 -0.24708590009540224     
          12 -0.80625901743567141     
          13  0.45334631264514175     
          14  0.42791001497999837     
          15  -7.8906773263836882E-002
          16 -0.45036782770359785     
          17   1.5458531632892712E-006
          18  -5.3281089948867075E-003
          19  0.10420355837573081     
          20  0.34002458886836184     
Sym=    18a
Ene=   0.21784143978037207     
Spin= Alpha
Occup=     0.00000000
           1  -3.2445192889696144E-005
           2  -1.5225111006669755E-002
           3  0.29698360863060069     
           4  0.96907697377332358     
           5  0.44251561014860064     
           6 -0.61882477717362494     
           7  0.12437897488410402     
           8  0.29079927228046082     
           9  -3.0526197563165872E-005
          10   2.8966944870661830E-003
          11  -5.6715128619420137E-002
          12 -0.18506661316259090     
          13 -0.44247381669141850     
          14  0.60910403606624297     
          15   6.5292532535488265E-002
          16  0.32809846871434656     
          17   1.3891872040067572E-005
          18  -5.4140502053044964E-004
          19   1.0146004569655000E-002
          20   3.3113351296748784E-002
Sym=    19a
Ene=   0.42104337309842405     
Spin= Alpha
Occup=     0.00000000
           1  0.83853791516917020     
           2  0.78785190672673777     
           3  -5.6167995594749838E-002
           4   2.9611668942929145E-002
           5 -0.39431184700647987     
           6  0.42110717085507537     
           7 -0.14107903912391079     
           8 -0.33809540623941386     
           9  0.44112277195933064     
          10  0.39439198248879392     
          11   3.7828558044196395E-002
          12  -5.4263550926055368E-003
          13 -0.39436124864400079     
          14  0.41005742819406898     
          15   7.6234537157395074E-002
          16  0.37102977765943079     
          17 -0.39729883603039412     
          18  0.53692097535295324     
          19   3.5693074263953517E-002
          20  -2.5252543278876027E-003
Sym=    20a
Ene=   0.71981917754110714     
Spin= Alpha
Occup=     0.00000000
           1 -0.44396750944027141     
           2 -0.44065382868848851     
           3   2.7370499785098180E-002
           4  -1.5303811608587764E-002
           5  0.42300720067327524     
           6  -3.6766030112871891E-002
           7  0.15680816800681943     
           8  0.36236989917642809     
           9  0.38965234471244525     
          10   1.0919272111627183     
          11   8.3570002461043416E-002
          12  -8.5049702475668079E-003
          13  0.42302733711883472     
          14  -2.4998079884164245E-002
          15  -7.3424465102899947E-002
          16 -0.38890552593391198     
          17 -0.70479883162356893     
          18  0.83805169819625314     
          19   5.4994038617134353E-002
          20  -3.7254892075655336E-003
