      -----------------------------------------------------------      
     |                   =====================                   |     
     |                           x T B                           |     
     |                   =====================                   |     
     |                         S. Grimme                         |     
     |          Mulliken Center for Theoretical Chemistry        |     
     |                    University of Bonn                     |     
      -----------------------------------------------------------      

   * xtb version 6.2.2 (9d81278992624c895f80dd42a50cac0aa55982e2) compiled by '@Darwin' on 04/03/2020

   xtb is free software: you can redistribute it and/or modify it under
   the terms of the GNU Lesser General Public License as published by
   the Free Software Foundation, either version 3 of the License, or
   (at your option) any later version.
   
   xtb is distributed in the hope that it will be useful,
   but WITHOUT ANY WARRANTY; without even the implied warranty of
   MERCHANTABILITY or FITNESS FOR A PARTICULAR PURPOSE.  See the
   GNU Lesser General Public License for more details.
   
   Cite this work as:
   * S. Grimme, C. Bannwarth, P. Shushkov, J. Chem. Theory Comput., 2017,
     13, 1989-2009. DOI: 10.1021/acs.jctc.7b00118
   * C. Bannwarth, S. Ehlert and S. Grimme., J. Chem. Theory Comput., 2019,
     15, 1652-1671. DOI: 10.1021/acs.jctc.8b01176
   * P. Pracht, E. Caldeweyher, S. Ehlert, S. Grimme, ChemRxiv, 2019, preprint.
     DOI: 10.26434/chemrxiv.8326202.v1
   
   for DFT-D4:
   * E. Caldeweyher, C. Bannwarth and S. Grimme, J. Chem. Phys., 2017,
     147, 034112. DOI: 10.1063/1.4993215
   * E. Caldeweyher, S. Ehlert, A. Hansen, H. Neugebauer, S. Spicher,
     C. Bannwarth and S. Grimme, J. Chem. Phys., 2019, 150, 154122.
     DOI: 10.1063/1.5090222
   
   for sTDA-xTB:
   * S. Grimme and C. Bannwarth, J. Chem. Phys., 2016, 145, 054103.
     DOI: 10.1063/1.4959605
   
   in the mass-spec context:
   * V. Asgeirsson, C. Bauer and S. Grimme, Chem. Sci., 2017, 8, 4879.
     DOI: 10.1039/c7sc00601b
   
   for metadynamics refer to:
   * S. Grimme, J. Chem. Theory Comput., 2019, 155, 2847-2862
     DOI: 10.1021/acs.jctc.9b00143
   
   with help from (in alphabetical order)
   C. Bannwarth, F. Bohle, G. Brandenburg, E. Caldeweyher, M. Checinski,
   S. Dohm, S. Ehlert, S. Ehrlich, F. März, H. Neugebauer, J. Pisarek,
   P. Pracht, P. Shushkov, and S. Spicher.
   
 * started run on 2020/05/12 at 11:44:13.881     

           -------------------------------------------------
          |                Calculation Setup                |
           -------------------------------------------------

          program call               : xtb --input C4N1_35_S_3.input C4N1_35_S_3.xyz --ohess --molden --namespace C4N1_35_S_3 output.out
          calculation namespace      : C4N1_35_S_3
          coordinate file            : C4N1_35_S_3.xyz
          number of atoms            :                     5
          number of electrons        :                    21
          charge                     :                     0
          spin                       :                   1.5
          first test random number   :      0.36499719812011

   ID    Z sym.   atoms
    1    6 C      1, 2, 4, 5
    2    7 N      3

           -------------------------------------------------
          |                 G F N 2 - x T B                 |
           -------------------------------------------------

        Reference                      10.1021/acs.jctc.8b01176
      * Hamiltonian:
        H0-scaling (s, p, d)           1.850000    2.230000    2.230000
        zeta-weighting                 0.500000
      * Dispersion:
        s8                             2.700000
        a1                             0.520000
        a2                             5.000000
        s9                             5.000000
      * Repulsion:
        kExp                           1.500000    1.000000
        rExp                           1.000000
      * Coulomb:
        alpha                          2.000000
        third order                    shell-resolved
        anisotropic                    true
        a3                             3.000000
        a5                             4.000000
        cn-shift                       1.200000
        cn-exp                         4.000000
        max-rad                        5.000000


          ...................................................
          :                      SETUP                      :
          :.................................................:
          :  # basis functions                  20          :
          :  # atomic orbitals                  20          :
          :  # shells                           10          :
          :  # electrons                        21          :
          :  max. iterations                   250          :
          :  Hamiltonian                  GFN2-xTB          :
          :  restarted?                      false          :
          :  GBSA solvation                  false          :
          :  PC potential                    false          :
          :  electronic temp.          300.0000000     K    :
          :  accuracy                    1.0000000          :
          :  -> integral cutoff          0.2500000E+02      :
          :  -> integral neglect         0.1000000E-07      :
          :  -> SCF convergence          0.1000000E-05 Eh   :
          :  -> wf. convergence          0.1000000E-03 e    :
          :  Broyden damping             0.4000000          :
          ...................................................

 iter      E             dE          RMSdq      gap      omega  full diag
   1    -10.8819540 -0.108820E+02  0.940E+00    0.42       0.0  T
   2    -10.5106946  0.371259E+00  0.750E+00    1.35       1.0  T
   3     -9.4116304  0.109906E+01  0.111E+01    1.94       1.0  T
   4    -10.8603163 -0.144869E+01  0.485E+00    0.48       1.0  T
   5    -10.7319591  0.128357E+00  0.514E+00    0.55       1.0  T
   6    -10.9285607 -0.196602E+00  0.271E+00    0.38       1.0  T
   7    -10.9502422 -0.216814E-01  0.195E+00    0.42       1.0  T
   8    -10.9499233  0.318811E-03  0.202E+00    0.42       1.0  T
   9    -10.9559971 -0.607375E-02  0.455E-01    0.45       1.0  T
  10    -10.9565835 -0.586452E-03  0.298E-01    0.45       1.0  T
  11    -10.9566464 -0.628491E-04  0.217E-01    0.45       1.0  T
  12    -10.9567864 -0.140039E-03  0.988E-02    0.45       1.0  T
  13    -10.9568197 -0.332311E-04  0.282E-02    0.45       1.6  T
  14    -10.9568207 -0.996918E-06  0.160E-02    0.45       2.8  T
  15    -10.9568207 -0.629482E-07  0.119E-02    0.45       3.8  T
  16    -10.9568212 -0.507632E-06  0.443E-03    0.45      10.1  T
  17    -10.9568213 -0.651766E-07  0.137E-03    0.45      32.5  T
  18    -10.9568213 -0.731585E-08  0.887E-04    0.45      50.4  T
  19    -10.9568213 -0.391562E-08  0.149E-04    0.45     300.3  T

   *** convergence criteria satisfied after 19 iterations ***

         #    Occupation            Energy/Eh            Energy/eV
      -------------------------------------------------------------
         1        2.0000           -0.7685453             -20.9132
       ...           ...                  ...                  ...
         6        2.0000           -0.5532303             -15.0542
         7        2.0000           -0.5505502             -14.9812
         8        2.0000           -0.4985229             -13.5655
         9        1.9591           -0.4624867             -12.5849
        10        1.0409           -0.4564898             -12.4217
        11        1.0000           -0.4264439             -11.6041
        12        0.9998           -0.3783660             -10.2959 (HOMO)
        13        0.0002           -0.3618070              -9.8453 (LUMO)
        14                         -0.3538625              -9.6291
        15                         -0.2656505              -7.2287
        16                         -0.0348845              -0.9493
        17                         -0.0129792              -0.3532
       ...                                ...                  ...
        20                          0.1907655               5.1910
      -------------------------------------------------------------
                  HL-Gap            0.0165590 Eh            0.4506 eV
             Fermi-level           -0.4147874 Eh          -11.2869 eV

 SCC (total)                   0 d,  0 h,  0 min,  0.005 sec
 SCC setup                      ...        0 min,  0.000 sec (  1.389%)
 Dispersion                     ...        0 min,  0.000 sec (  0.294%)
 integral evaluation            ...        0 min,  0.001 sec ( 23.382%)
 zeroth order Hamiltonian       ...        0 min,  0.000 sec (  0.391%)
 iterations                     ...        0 min,  0.002 sec ( 42.053%)
 molecular gradient             ...        0 min,  0.002 sec ( 29.670%)
 printout                       ...        0 min,  0.000 sec (  2.640%)

         :::::::::::::::::::::::::::::::::::::::::::::::::::::
         ::                     SUMMARY                     ::
         :::::::::::::::::::::::::::::::::::::::::::::::::::::
         :: total energy             -10.876762012295 Eh    ::
         :: gradient norm              0.142898123572 Eh/a0 ::
         :: HOMO-LUMO gap              0.450593267334 eV    ::
         ::.................................................::
         :: SCC energy               -10.956821305294 Eh    ::
         :: -> isotropic ES           -0.023454505960 Eh    ::
         :: -> anisotropic ES          0.003277100966 Eh    ::
         :: -> anisotropic XC          0.005218163822 Eh    ::
         :: -> dispersion             -0.002956591379 Eh    ::
         :: repulsion energy           0.080059227819 Eh    ::
         :: add. restraining           0.000000000000 Eh    ::
         :::::::::::::::::::::::::::::::::::::::::::::::::::::

      ----------------------------------------------------------- 
     |                   =====================                   |
     |                        A N C O P T                        |
     |                   =====================                   |
     |               Approximate Normal Coordinate               |
     |                Rational Function Optimizer                |
      ----------------------------------------------------------- 

          ...................................................
          :                      SETUP                      :
          :.................................................:
          :   optimization level            normal          :
          :   max. optcycles                   200          :
          :   ANC micro-cycles                  20          :
          :   degrees of freedom                 9          :
          :.................................................:
          :   RF solver                   davidson          :
          :   write xtbopt.log                true          :
          :   linear?                        false          :
          :   energy convergence         0.5000000E-05 Eh   :
          :   grad. convergence          0.1000000E-02 Eh/α :
          :   maximium RF displ.         1.0000000          :
          :   Hlow (freq-cutoff)         0.1000000E-01      :
          :   Hmax (freq-cutoff)         5.0000000          :
          :   S6 in model hess.         20.0000000          :
          ...................................................

generating ANC from model Hessian ...
Using Lindh-Hessian (1995)
 Shifting diagonal of input Hessian by    0.0000000000000000     
 Lowest  eigenvalues of input Hessian
   -0.000000   -0.000000   -0.000000    0.000000    0.000000    0.000000
    0.036368    0.084131    0.173336    0.611716    0.649754    0.940433
    0.976201    1.315679    1.497188
 Highest eigenvalues
    0.611716    0.649754    0.940433    0.976201    1.315679    1.497188


........................................................................
.............................. CYCLE    1 ..............................
........................................................................
   1    -10.9568213 -0.109568E+02  0.106E-04    0.45       0.0  T
   2    -10.9568213  0.570473E-09  0.274E-04    0.45     163.4  T
   3    -10.9568213 -0.491244E-09  0.122E-04    0.45     366.9  T
     SCC iter.                  ...        0 min,  0.001 sec
     gradient                   ...        0 min,  0.001 sec
 * total energy  :   -10.8767620 Eh     change       -0.9170886E-09 Eh
   gradient norm :     0.1428985 Eh/α   predicted     0.0000000E+00 (-100.00%)
   displ. norm   :     0.2404127 α      lambda       -0.2905140E-01
   maximum displ.:     0.1865917 α      in ANC's #4, #1, #3, ...

........................................................................
.............................. CYCLE    2 ..............................
........................................................................
   1    -10.9913546 -0.109914E+02  0.167E+00    0.33       0.0  T
   2    -10.9414615  0.498931E-01  0.238E+00    0.17       1.0  T
   3    -10.9704712 -0.290097E-01  0.166E+00    0.36       1.0  T
   4    -10.9868662 -0.163951E-01  0.118E+00    0.31       1.0  T
   5    -10.9964318 -0.956559E-02  0.344E-01    0.26       1.0  T
   6    -10.9966836 -0.251795E-03  0.211E-01    0.27       1.0  T
   7    -10.9967493 -0.656963E-04  0.138E-01    0.27       1.0  T
   8    -10.9968428 -0.934679E-04  0.178E-02    0.26       2.5  T
   9    -10.9968445 -0.174522E-05  0.650E-03    0.26       6.9  T
  10    -10.9968447 -0.204600E-06  0.692E-04    0.26      64.6  T
  11    -10.9968447  0.368130E-09  0.485E-04    0.26      92.1  T
     SCC iter.                  ...        0 min,  0.001 sec
     gradient                   ...        0 min,  0.001 sec
 * total energy  :   -10.8993322 Eh     change       -0.2257019E-01 Eh
   gradient norm :     0.0829928 Eh/α   predicted    -0.1536527E-01 ( -31.92%)
   displ. norm   :     0.3504150 α      lambda       -0.2517282E-01
   maximum displ.:     0.2929373 α      in ANC's #4, #1, #8, ...

........................................................................
.............................. CYCLE    3 ..............................
........................................................................
   1    -11.0461333 -0.110461E+02  0.505E+00    0.14       0.0  T
   2    -11.0335032  0.126302E-01  0.213E+00    0.06       1.0  T
   3    -10.9978585  0.356446E-01  0.403E+00    0.21       1.0  T
   4    -11.0418593 -0.440007E-01  0.106E+00    0.00       1.0  T
   5    -11.0488376 -0.697830E-02  0.524E-01    0.00       1.0  T
   6    -11.0498735 -0.103597E-02  0.232E-01    0.01       1.0  T
   7    -11.0499445 -0.710192E-04  0.173E-01    0.01       1.0  T
   8    -11.0500501 -0.105520E-03  0.219E-02    0.02       2.0  T
   9    -11.0500504 -0.286773E-06  0.788E-03    0.02       5.7  T
  10    -11.0500504  0.789010E-09  0.658E-03    0.02       6.8  T
  11    -11.0500504 -0.160461E-07  0.442E-03    0.02      10.1  T
  12    -11.0500504 -0.715836E-08  0.284E-03    0.02      15.8  T
  13    -11.0500504 -0.171108E-08  0.176E-03    0.02      25.5  T
  14    -11.0500504 -0.138301E-08  0.205E-04    0.02     218.1  T
  15    -11.0500504 -0.107789E-10  0.240E-05    0.02    1860.7  T
     SCC iter.                  ...        0 min,  0.001 sec
     gradient                   ...        0 min,  0.001 sec
 * total energy  :   -10.9101248 Eh     change       -0.1079258E-01 Eh
   gradient norm :     0.0896835 Eh/α   predicted    -0.1413191E-01 (  30.94%)
   displ. norm   :     0.3381882 α      lambda       -0.1509502E-01
   maximum displ.:     0.2558750 α      in ANC's #1, #4, #3, ...

........................................................................
.............................. CYCLE    4 ..............................
........................................................................
   1    -11.0718134 -0.110718E+02  0.272E+00    0.53       0.0  T
   2    -11.0720312 -0.217810E-03  0.162E+00    0.44       1.0  T
   3    -11.0678821  0.414911E-02  0.667E-01    0.46       1.0  T
   4    -11.0718651 -0.398293E-02  0.223E-01    0.39       1.0  T
   5    -11.0722655 -0.400466E-03  0.866E-02    0.39       1.0  T
   6    -11.0722855 -0.199722E-04  0.417E-02    0.40       1.1  T
   7    -11.0722889 -0.345741E-05  0.884E-03    0.40       5.1  T
   8    -11.0722892 -0.257035E-06  0.314E-03    0.40      14.3  T
   9    -11.0722892 -0.621043E-09  0.105E-03    0.40      42.4  T
  10    -11.0722892 -0.837185E-08  0.222E-04    0.40     201.7  T
  11    -11.0722892 -0.136813E-09  0.138E-04    0.40     325.2  T
     SCC iter.                  ...        0 min,  0.001 sec
     gradient                   ...        0 min,  0.001 sec
 * total energy  :   -10.9283961 Eh     change       -0.1827128E-01 Eh
   gradient norm :     0.1054341 Eh/α   predicted    -0.8410732E-02 ( -53.97%)
   displ. norm   :     0.3831236 α      lambda       -0.2275893E-01
   maximum displ.:     0.2721795 α      in ANC's #1, #4, #3, ...

........................................................................
.............................. CYCLE    5 ..............................
........................................................................
   1    -11.0914578 -0.110915E+02  0.189E+00    0.98       0.0  T
   2    -11.0910543  0.403544E-03  0.118E+00    1.02       1.0  T
   3    -11.0777226  0.133317E-01  0.124E+00    0.96       1.0  T
   4    -11.0916271 -0.139045E-01  0.218E-01    1.00       1.0  T
   5    -11.0918619 -0.234831E-03  0.772E-02    1.01       1.0  T
   6    -11.0918855 -0.235664E-04  0.465E-02    1.01       1.0  T
   7    -11.0918908 -0.534259E-05  0.569E-03    1.01       7.9  T
   8    -11.0918909 -0.571242E-07  0.226E-03    1.01      19.8  T
   9    -11.0918909  0.372816E-07  0.239E-03    1.01      18.7  T
  10    -11.0918909 -0.450245E-07  0.121E-04    1.01     369.4  T
  11    -11.0918909 -0.133600E-10  0.600E-05    1.01     745.2  T
     SCC iter.                  ...        0 min,  0.001 sec
     gradient                   ...        0 min,  0.001 sec
 * total energy  :   -10.9467689 Eh     change       -0.1837288E-01 Eh
   gradient norm :     0.1078114 Eh/α   predicted    -0.1304979E-01 ( -28.97%)
   displ. norm   :     0.6135961 α      lambda       -0.3439334E-01
   maximum displ.:     0.5217101 α      in ANC's #1, #7, #4, ...

........................................................................
.............................. CYCLE    6 ..............................
........................................................................
   1    -11.0512063 -0.110512E+02  0.273E+00    0.97       0.0  T
   2    -10.9655555  0.856508E-01  0.347E+00    1.05       1.0  T
   3    -11.0494906 -0.839351E-01  0.178E+00    0.96       1.0  T
   4    -11.0660361 -0.165455E-01  0.568E-01    1.08       1.0  T
   5    -11.0685173 -0.248127E-02  0.252E-01    1.07       1.0  T
   6    -11.0685809 -0.635483E-04  0.148E-01    1.06       1.0  T
   7    -11.0685784  0.252761E-05  0.429E-02    1.06       1.0  T
   8    -11.0685849 -0.656626E-05  0.608E-03    1.06       7.4  T
   9    -11.0685845  0.474495E-06  0.806E-03    1.06       5.5  T
  10    -11.0685850 -0.539758E-06  0.128E-03    1.06      35.0  T
  11    -11.0685850 -0.776124E-08  0.301E-04    1.06     148.7  T
  12    -11.0685850 -0.578488E-10  0.278E-05    1.06    1611.3  T
     SCC iter.                  ...        0 min,  0.001 sec
     gradient                   ...        0 min,  0.001 sec
 * total energy  :   -10.9625157 Eh     change       -0.1574679E-01 Eh
   gradient norm :     0.1213266 Eh/α   predicted    -0.2367120E-01 (  50.32%)
   displ. norm   :     0.1943271 α      lambda       -0.1379167E-01
   maximum displ.:     0.1299571 α      in ANC's #1, #7, #4, ...

........................................................................
.............................. CYCLE    7 ..............................
........................................................................
   1    -11.1008484 -0.111008E+02  0.114E+00    1.18       0.0  T
   2    -11.0916515  0.919690E-02  0.125E+00    1.08       1.0  T
   3    -11.0975515 -0.590002E-02  0.835E-01    1.22       1.0  T
   4    -11.1024416 -0.489005E-02  0.199E-01    1.14       1.0  T
   5    -11.1024572 -0.156607E-04  0.142E-01    1.16       1.0  T
   6    -11.1026039 -0.146669E-03  0.638E-02    1.15       1.0  T
   7    -11.1026194 -0.154899E-04  0.667E-03    1.15       6.7  T
   8    -11.1026195 -0.633499E-07  0.328E-03    1.15      13.6  T
   9    -11.1026194  0.299850E-07  0.300E-03    1.15      14.9  T
  10    -11.1026195 -0.790700E-07  0.245E-04    1.15     182.3  T
  11    -11.1026195 -0.217717E-09  0.134E-04    1.15     333.3  T
     SCC iter.                  ...        0 min,  0.001 sec
     gradient                   ...        0 min,  0.001 sec
 * total energy  :   -10.9690708 Eh     change       -0.6555066E-02 Eh
   gradient norm :     0.0622419 Eh/α   predicted    -0.7156239E-02 (   9.17%)
   displ. norm   :     0.1964290 α      lambda       -0.6421794E-02
   maximum displ.:     0.1578436 α      in ANC's #1, #4, #8, ...

........................................................................
.............................. CYCLE    8 ..............................
........................................................................
   1    -11.1090563 -0.111091E+02  0.970E-01    1.07       0.0  T
   2    -11.0947509  0.143054E-01  0.134E+00    1.20       1.0  T
   3    -11.1084947 -0.137438E-01  0.702E-01    1.06       1.0  T
   4    -11.1113413 -0.284662E-02  0.105E-01    1.09       1.0  T
   5    -11.1114103 -0.690570E-04  0.470E-02    1.09       1.0  T
   6    -11.1114204 -0.100457E-04  0.198E-02    1.09       2.3  T
   7    -11.1114208 -0.434426E-06  0.533E-03    1.09       8.4  T
   8    -11.1114210 -0.218556E-06  0.126E-03    1.09      35.4  T
   9    -11.1114210  0.492541E-08  0.103E-03    1.09      43.5  T
  10    -11.1114210 -0.907999E-08  0.174E-04    1.09     257.0  T
  11    -11.1114211 -0.159700E-09  0.404E-05    1.09    1107.9  T
     SCC iter.                  ...        0 min,  0.001 sec
     gradient                   ...        0 min,  0.001 sec
 * total energy  :   -10.9743600 Eh     change       -0.5289162E-02 Eh
   gradient norm :     0.0513611 Eh/α   predicted    -0.3334786E-02 ( -36.95%)
   displ. norm   :     0.3524129 α      lambda       -0.1031019E-01
   maximum displ.:     0.2763457 α      in ANC's #1, #8, #4, ...

........................................................................
.............................. CYCLE    9 ..............................
........................................................................
   1    -11.1208273 -0.111208E+02  0.168E+00    1.17       0.0  T
   2    -11.0898150  0.310123E-01  0.209E+00    1.09       1.0  T
   3    -11.1192992 -0.294843E-01  0.116E+00    1.14       1.0  T
   4    -11.1266528 -0.735354E-02  0.425E-01    1.12       1.0  T
   5    -11.1273850 -0.732232E-03  0.167E-01    1.11       1.0  T
   6    -11.1276033 -0.218262E-03  0.465E-02    1.11       1.0  T
   7    -11.1276085 -0.525904E-05  0.458E-03    1.11       9.8  T
   8    -11.1276086 -0.393015E-07  0.209E-03    1.11      21.4  T
   9    -11.1276086  0.150976E-07  0.187E-03    1.11      23.9  T
  10    -11.1276086 -0.295987E-07  0.215E-04    1.11     208.1  T
  11    -11.1276086 -0.215783E-09  0.943E-05    1.11     474.4  T
     SCC iter.                  ...        0 min,  0.001 sec
     gradient                   ...        0 min,  0.001 sec
 * total energy  :   -10.9807289 Eh     change       -0.6368956E-02 Eh
   gradient norm :     0.0340367 Eh/α   predicted    -0.5795327E-02 (  -9.01%)
   displ. norm   :     0.2036254 α      lambda       -0.3164044E-02
   maximum displ.:     0.1388322 α      in ANC's #1, #4, #8, ...

........................................................................
.............................. CYCLE   10 ..............................
........................................................................
   1    -11.1308731 -0.111309E+02  0.796E-01    1.14       0.0  T
   2    -11.1286238  0.224931E-02  0.661E-01    1.10       1.0  T
   3    -11.1266800  0.194382E-02  0.770E-01    1.17       1.0  T
   4    -11.1307924 -0.411248E-02  0.259E-01    1.13       1.0  T
   5    -11.1314121 -0.619667E-03  0.311E-02    1.13       1.4  T
   6    -11.1314101  0.199792E-05  0.293E-02    1.13       1.5  T
   7    -11.1314132 -0.304590E-05  0.888E-03    1.13       5.0  T
   8    -11.1314139 -0.716755E-06  0.164E-03    1.13      27.2  T
   9    -11.1314139 -0.974805E-08  0.475E-04    1.13      94.2  T
  10    -11.1314139 -0.183094E-08  0.979E-05    1.13     456.8  T
     SCC iter.                  ...        0 min,  0.001 sec
     gradient                   ...        0 min,  0.001 sec
 * total energy  :   -10.9824951 Eh     change       -0.1766218E-02 Eh
   gradient norm :     0.0242447 Eh/α   predicted    -0.1647619E-02 (  -6.71%)
   displ. norm   :     0.0713534 α      lambda       -0.1040479E-02
   maximum displ.:     0.0485399 α      in ANC's #8, #7, #3, ...

........................................................................
.............................. CYCLE   11 ..............................
........................................................................
   1    -11.1452590 -0.111453E+02  0.379E-01    1.21       0.0  T
   2    -11.1453110 -0.519490E-04  0.205E-01    1.18       1.0  T
   3    -11.1449844  0.326565E-03  0.238E-01    1.21       1.0  T
   4    -11.1452580 -0.273566E-03  0.125E-01    1.19       1.0  T
   5    -11.1453478 -0.897865E-04  0.557E-02    1.19       1.0  T
   6    -11.1453770 -0.292157E-04  0.103E-02    1.19       4.3  T
   7    -11.1453774 -0.401426E-06  0.910E-04    1.19      49.1  T
   8    -11.1453774 -0.366238E-08  0.589E-04    1.19      75.9  T
     SCC iter.                  ...        0 min,  0.001 sec
     gradient                   ...        0 min,  0.001 sec
 * total energy  :   -10.9828054 Eh     change       -0.3102671E-03 Eh
   gradient norm :     0.0160691 Eh/α   predicted    -0.5228872E-03 (  68.53%)
   displ. norm   :     0.0906708 α      lambda       -0.5034955E-03
   maximum displ.:     0.0672310 α      in ANC's #1, #4, #7, ...

........................................................................
.............................. CYCLE   12 ..............................
........................................................................
   1    -11.1379045 -0.111379E+02  0.354E-01    1.15       0.0  T
   2    -11.1370424  0.862097E-03  0.371E-01    1.11       1.0  T
   3    -11.1376109 -0.568468E-03  0.260E-01    1.16       1.0  T
   4    -11.1380521 -0.441208E-03  0.589E-02    1.14       1.0  T
   5    -11.1380793 -0.271620E-04  0.124E-02    1.14       3.6  T
   6    -11.1380791  0.201312E-06  0.825E-03    1.14       5.4  T
   7    -11.1380794 -0.340096E-06  0.278E-03    1.14      16.1  T
   8    -11.1380795 -0.485105E-07  0.140E-03    1.14      31.9  T
   9    -11.1380795 -0.145942E-07  0.306E-04    1.14     146.1  T
  10    -11.1380795 -0.154451E-09  0.235E-05    1.14    1900.9  T
     SCC iter.                  ...        0 min,  0.001 sec
     gradient                   ...        0 min,  0.001 sec
 * total energy  :   -10.9829864 Eh     change       -0.1809925E-03 Eh
   gradient norm :     0.0063325 Eh/α   predicted    -0.2538186E-03 (  40.24%)
   displ. norm   :     0.0234950 α      lambda       -0.7030428E-04
   maximum displ.:     0.0203870 α      in ANC's #1, #7, #8, ...

........................................................................
.............................. CYCLE   13 ..............................
........................................................................
   1    -11.1397515 -0.111398E+02  0.955E-02    1.14       0.0  T
   2    -11.1397088  0.426447E-04  0.905E-02    1.15       1.0  T
   3    -11.1397213 -0.125019E-04  0.745E-02    1.14       1.0  T
   4    -11.1397549 -0.335659E-04  0.329E-02    1.14       1.4  T
   5    -11.1397623 -0.740645E-05  0.389E-03    1.14      11.5  T
   6    -11.1397624 -0.119951E-06  0.171E-03    1.14      26.2  T
   7    -11.1397624 -0.550922E-08  0.274E-04    1.14     163.1  T
   8    -11.1397624 -0.896581E-10  0.241E-04    1.14     185.4  T
     SCC iter.                  ...        0 min,  0.001 sec
     gradient                   ...        0 min,  0.001 sec
 * total energy  :   -10.9830216 Eh     change       -0.3520300E-04 Eh
   gradient norm :     0.0009897 Eh/α   predicted    -0.3517242E-04 (  -0.09%)
   displ. norm   :     0.0103460 α      lambda       -0.3612367E-05
   maximum displ.:     0.0076108 α      in ANC's #4, #7, #1, ...

........................................................................
.............................. CYCLE   14 ..............................
........................................................................
   1    -11.1400299 -0.111400E+02  0.424E-02    1.14       0.0  T
   2    -11.1400229  0.702802E-05  0.359E-02    1.13       1.2  T
   3    -11.1400180  0.482771E-05  0.401E-02    1.14       1.1  T
   4    -11.1400315 -0.134461E-04  0.551E-03    1.14       8.1  T
   5    -11.1400316 -0.121931E-06  0.288E-03    1.14      15.5  T
   6    -11.1400316 -0.456911E-07  0.870E-04    1.14      51.4  T
   7    -11.1400316 -0.344890E-09  0.253E-04    1.14     176.6  T
     SCC iter.                  ...        0 min,  0.001 sec
     gradient                   ...        0 min,  0.001 sec
 * total energy  :   -10.9830245 Eh     change       -0.2878964E-05 Eh
   gradient norm :     0.0003583 Eh/α   predicted    -0.1807085E-05 ( -37.23%)
   displ. norm   :     0.0018077 α      lambda       -0.1301038E-06
   maximum displ.:     0.0011633 α      in ANC's #4, #1, #8, ...

   *** GEOMETRY OPTIMIZATION CONVERGED AFTER 14 ITERATIONS ***

------------------------------------------------------------------------
 total energy gain   :        -0.1062625 Eh      -66.6807 kcal/mol
 total RMSD          :         1.0134208 a0        0.5363 Å
 total power (kW/mol):       -19.9280048 (step)-5265.1171 (real)
------------------------------------------------------------------------

 ANCopt (total)                0 d,  0 h,  0 min,  0.053 sec
 optimizer setup                ...        0 min,  0.000 sec (  0.123%)
 model hessian                  ...        0 min,  0.000 sec (  0.168%)
 ANC generation                 ...        0 min,  0.000 sec (  0.096%)
 coordinate transformation      ...        0 min,  0.000 sec (  0.059%)
 single point calculation       ...        0 min,  0.052 sec ( 97.680%)
 optimization log               ...        0 min,  0.000 sec (  0.588%)
 hessian update                 ...        0 min,  0.000 sec (  0.046%)
 rational function              ...        0 min,  0.000 sec (  0.564%)

================
 final structure:
================
5
 xtb: 6.2.2 (9d81278992624c895f80dd42a50cac0aa55982e2)
C        -1.49683505040141   -0.00697554353722   -0.02132345614878
C        -0.47591534496639   -0.35510853509311   -0.87165113529538
N         0.62922850805306    0.04426523977359   -0.00369776318667
C        -0.50380191707447    0.18994154984933    0.90690715299562
C         1.84732280438922    0.12787728900741   -0.01023379836480

 Bond Distances (Angstroems)
 ---------------------------
C1-C2=1.3735         C1-C4=1.3735         C2-C1=1.3735         C2-N3=1.4609         C2-C4=1.8604         N3-C2=1.4609         
N3-C4=1.4609         N3-C5=1.2210         C4-C1=1.3735         C4-C2=1.8604         C4-N3=1.4609         C5-N3=1.2210         
 C  C  Rav=1.5358 sigma=0.2295  Rmin=1.3735  Rmax=1.8604     3
 N  C  Rav=1.3809 sigma=0.1131  Rmin=1.2210  Rmax=1.4609     3

 selected bond angles (degree)
 --------------------
C4-C1-C2= 85.26                N3-C2-C1= 97.19                C4-C2-C1= 47.37                C4-C2-N3= 50.45                
C4-N3-C2= 79.10                C5-N3-C2=140.38                C5-N3-C4=140.38                C2-C4-C1= 47.37                
N3-C4-C1= 97.19                N3-C4-C2= 50.45                

 selected dihedral angles (degree)
 ---------------------------------
N3-C2-C1-C4=351.28            C4-N3-C2-C1=  8.32            C5-N3-C2-C1=184.15            C5-N3-C2-C4=175.83            
N3-C4-C1-C2=  8.72            C1-C4-C2-N3=168.75            N3-C4-C2-C1=191.25            C1-C4-N3-C2=351.68            
C1-C4-N3-C5=175.85            C2-C4-N3-C5=184.17            
           -------------------------------------------------
          |                Final Singlepoint                |
           -------------------------------------------------

          ...................................................
          :                      SETUP                      :
          :.................................................:
          :  # basis functions                  20          :
          :  # atomic orbitals                  20          :
          :  # shells                           10          :
          :  # electrons                        21          :
          :  max. iterations                   250          :
          :  Hamiltonian                  GFN2-xTB          :
          :  restarted?                      false          :
          :  GBSA solvation                  false          :
          :  PC potential                    false          :
          :  electronic temp.          300.0000000     K    :
          :  accuracy                    1.0000000          :
          :  -> integral cutoff          0.2500000E+02      :
          :  -> integral neglect         0.1000000E-07      :
          :  -> SCF convergence          0.1000000E-05 Eh   :
          :  -> wf. convergence          0.1000000E-03 e    :
          :  Broyden damping             0.4000000          :
          ...................................................

 iter      E             dE          RMSdq      gap      omega  full diag
   1    -11.1400316 -0.111400E+02  0.110E-04    1.14       0.0  T
   2    -11.1400316  0.390070E-10  0.752E-05    1.14     594.9  T
   3    -11.1400316  0.606306E-10  0.129E-04    1.14     347.4  T

   *** convergence criteria satisfied after 3 iterations ***

         #    Occupation            Energy/Eh            Energy/eV
      -------------------------------------------------------------
         1        2.0000           -0.7458198             -20.2948
       ...           ...                  ...                  ...
         6        2.0000           -0.5760152             -15.6742
         7        2.0000           -0.4941520             -13.4466
         8        2.0000           -0.4812858             -13.0965
         9        2.0000           -0.4680428             -12.7361
        10        1.0000           -0.4176392             -11.3645
        11        1.0000           -0.4062368             -11.0543
        12        1.0000           -0.3666929              -9.9782 (HOMO)
        13                         -0.3249372              -8.8420 (LUMO)
        14                         -0.3143895              -8.5550
        15                         -0.2001744              -5.4470
        16                         -0.0154909              -0.4215
        17                          0.0244573               0.6655
       ...                                ...                  ...
        20                          0.7198193              19.5873
      -------------------------------------------------------------
                  HL-Gap            0.0417558 Eh            1.1362 eV
             Fermi-level           -0.3943280 Eh          -10.7302 eV

 SCC (total)                   0 d,  0 h,  0 min,  0.003 sec
 SCC setup                      ...        0 min,  0.000 sec (  1.999%)
 Dispersion                     ...        0 min,  0.000 sec (  0.269%)
 integral evaluation            ...        0 min,  0.001 sec ( 41.281%)
 zeroth order Hamiltonian       ...        0 min,  0.000 sec (  0.494%)
 iterations                     ...        0 min,  0.000 sec ( 12.096%)
 molecular gradient             ...        0 min,  0.001 sec ( 42.168%)
 printout                       ...        0 min,  0.000 sec (  1.461%)

         :::::::::::::::::::::::::::::::::::::::::::::::::::::
         ::                     SUMMARY                     ::
         :::::::::::::::::::::::::::::::::::::::::::::::::::::
         :: total energy             -10.983024479481 Eh    ::
         :: gradient norm              0.000367303324 Eh/a0 ::
         :: HOMO-LUMO gap              1.136232136450 eV    ::
         ::.................................................::
         :: SCC energy               -11.140031643163 Eh    ::
         :: -> isotropic ES           -0.014906389867 Eh    ::
         :: -> anisotropic ES          0.002106360682 Eh    ::
         :: -> anisotropic XC          0.006405353823 Eh    ::
         :: -> dispersion             -0.002909907065 Eh    ::
         :: repulsion energy           0.157007154074 Eh    ::
         :: add. restraining           0.000000000000 Eh    ::
         :::::::::::::::::::::::::::::::::::::::::::::::::::::

           ------------------------------------------------- 
          |                Numerical Hessian                |
           ------------------------------------------------- 
step length          :   0.00500
SCC accuracy         :   0.30000
Hessian scale factor :   1.00000
frozen atoms in %    :   0.00000    0
RMS gradient         :   0.00037
estimated CPU  time      0.00 min
estimated wall time      0.00 min

writing file <hessian>.

 projected vibrational frequencies (cm-1)
eigval :       -0.00    -0.00    -0.00    -0.00     0.00     0.00
eigval :       18.24   211.47   373.24   405.86   648.35   878.47
eigval :      922.63  1463.40  1719.06
           -------------------------------------------------
          |                Property Printout                |
           -------------------------------------------------

    * Orbital Energies and Occupations

         #    Occupation            Energy/Eh            Energy/eV
      -------------------------------------------------------------
         1        2.0000           -0.7458196             -20.2948
         2        2.0000           -0.7152203             -19.4621
         3        2.0000           -0.6455472             -17.5662
         4        2.0000           -0.6300497             -17.1445
         5        2.0000           -0.5926883             -16.1279
         6        2.0000           -0.5760149             -15.6742
         7        2.0000           -0.4941524             -13.4466
         8        2.0000           -0.4812857             -13.0964
         9        2.0000           -0.4680425             -12.7361
        10        1.0000           -0.4176388             -11.3645
        11        1.0000           -0.4062370             -11.0543
        12        1.0000           -0.3666927              -9.9782 (HOMO)
        13                         -0.3249372              -8.8420 (LUMO)
        14                         -0.3143899              -8.5550
        15                         -0.2001742              -5.4470
        16                         -0.0154907              -0.4215
        17                          0.0244574               0.6655
        18                          0.2178414               5.9278
        19                          0.4210434              11.4572
        20                          0.7198192              19.5873
      -------------------------------------------------------------
                  HL-Gap            0.0417554 Eh            1.1362 eV
             Fermi-level           -0.3943278 Eh          -10.7302 eV

     #   Z        covCN         q      C6AA      α(0)
     1   6 C      2.109     0.022    30.289     8.893
     2   6 C      2.646    -0.044    29.071     8.821
     3   7 N      2.873     0.164    18.492     6.387
     4   6 C      2.646    -0.044    29.071     8.821
     5   6 C      0.916    -0.098    38.549    10.393

 Mol. C6AA /au·bohr⁶  :        716.846750
 Mol. C8AA /au·bohr⁸  :      19900.935208
 Mol. α(0) /au        :         43.314419


Wiberg/Mayer (AO) data.
largest (>0.10) Wiberg bond orders for each atom
          total WBO             WBO to atom ...
     1  C   2.936        C    4 1.362    C    2 1.362    C    5 0.183
     2  C   2.687        C    1 1.362    N    3 0.845    C    4 0.403
     3  N   3.679        C    5 1.961    C    4 0.845    C    2 0.845
     4  C   2.688        C    1 1.362    N    3 0.845    C    2 0.403
     5  C   2.298        N    3 1.961    C    1 0.183

MOs/occ written to file <molden.input>


molecular dipole:
                 x           y           z       tot (Debye)
 q only:       -0.128       0.003      -0.003
   full:       -0.283      -0.016       0.000       0.720
molecular quadrupole (traceless):
                xx          xy          yy          xz          yz          zz
 q only:       -0.722      -0.115       0.524       0.022      -0.113       0.197
Molecule has the following symmetry elements: (sigma) 
It seems to be the Cs point group
  q+dip:       -1.892      -0.366       1.817       0.084      -0.596       0.076
   full:       -3.554      -0.446       3.093       0.078      -0.899       0.460

           -------------------------------------------------
          |                Geometry Summary                 |
           -------------------------------------------------

      molecular mass/u    :       62.0496468
   center of mass at/Å    :        0.0202404       0.0014238      -0.0001188
  moments of inertia/u·Å² :        0.2095131E+02   0.7958506E+02   0.1002044E+03
rotational constants/cm⁻¹ :        0.8046100E+00   0.2118190E+00   0.1682324E+00

 * 1 selected distances

     #   Z        #   Z                                     value/Å
     3   7 N      5   6 C                                 1.2209781 (max)

 * 1 distinct bonds (by element types)

   Z      Z             #   av. dist./Å        max./Å        min./Å
   6 C    7 N           1     1.2209781     1.2209781     1.2209781

           -------------------------------------------------
          |               Frequency Printout                |
           -------------------------------------------------
 projected vibrational frequencies (cm-1)
eigval :       -0.00    -0.00    -0.00    -0.00     0.00     0.00
eigval :       18.24   211.47   373.24   405.86   648.35   878.47
eigval :      922.63  1463.40  1719.06
 reduced masses (amu)
   1: 12.38   2: 12.17   3: 12.32   4: 12.42   5: 12.08   6: 12.28   7: 12.96   8: 12.11
   9: 13.30  10: 12.42  11: 12.33  12: 12.28  13: 12.09  14: 12.03  15: 12.96
 IR intensities (amu)
   1:  0.06   2:  0.03   3:  0.03   4:  0.02   5:  0.06   6:  0.03   7:  0.87   8:  0.19
   9:  0.18  10:  0.06  11:  0.14  12:  0.04  13:  1.77  14:  0.22  15:  0.80
 Raman intensities (amu)
   1:  0.00   2:  0.00   3:  0.00   4:  0.00   5:  0.00   6:  0.00   7:  0.00   8:  0.00
   9:  0.00  10:  0.00  11:  0.00  12:  0.00  13:  0.00  14:  0.00  15:  0.00
 output can be read by thermo (or use thermo option).
 writing <g98.out> molden fake output.
 recommended (thermochemical) frequency scaling factor: 1.0
           -------------------------------------------------
          |             Thermodynamic Functions             |
           -------------------------------------------------

cs  symmetry found (for desy threshold:  0.10E+00) used in thermo

          ...................................................
          :                      SETUP                      :
          :.................................................:
          :  # frequencies                           9      :
          :  # imaginary freq.                       0      :
          :  linear?                             false      :
          :  only rotor calc.                    false      :
          :  symmetry                               cs      :
          :  rotational number                       1      :
          :  scaling factor                  1.0000000      :
          :  rotor cutoff                   50.0000000 cm⁻¹ :
          :  imag. cutoff                  -20.0000000 cm⁻¹ :
          :.................................................:

    mode    ω/cm⁻¹     T·S(HO)/kcal·mol⁻¹    T·S(FR)/kcal·mol⁻¹   T·S(vib)
   ------------------------------------------------------------------------
       1     18.24    -0.00557 (  1.74%)    -0.01159 ( 98.26%)    -0.01148
       2    211.47    -0.00000 ( 99.69%)     0.01264 (  0.31%)     0.00004
   ------------------------------------------------------------------------

   temp. (K)  partition function   enthalpy   heat capacity  entropy
                                   cal/mol     cal/K/mol   cal/K/mol   J/K/mol
 298.15  VIB   27.8                 1466.678      8.845      9.283
         ROT  0.312E+05              888.752      2.981     23.547
         INT  0.868E+06             2355.431     11.825     32.830
         TR   0.473E+27             1481.254      4.968     38.278
         TOT                        3836.6844    16.7936    71.1079   297.5153

   temp. (K)  partition function   enthalpy   heat capacity  entropy
                                   cal/mol     cal/K/mol   cal/K/mol   J/K/mol
 120.00  VIB   5.64                  287.552      4.065      4.475
         ROT  0.797E+04              357.707      2.981     20.834
         INT  0.449E+05              645.259      7.046     25.309
         TR   0.121E+27              596.178      4.968     33.759
         TOT                        1241.4370    12.0143    59.0683   247.1416

   temp. (K)  partition function   enthalpy   heat capacity  entropy
                                   cal/mol     cal/K/mol   cal/K/mol   J/K/mol
 100.00  VIB   4.58                  212.631      3.428      3.970
         ROT  0.607E+04              298.089      2.981     20.291
         INT  0.278E+05              510.720      6.409     24.261
         TR   0.919E+26              496.815      4.968     32.853
         TOT                        1007.5350    11.3774    57.1145   238.9669

   temp. (K)  partition function   enthalpy   heat capacity  entropy
                                   cal/mol     cal/K/mol   cal/K/mol   J/K/mol
  80.00  VIB   3.66                  150.213      2.823      3.491
         ROT  0.434E+04              238.471      2.981     19.625
         INT  0.159E+05              388.684      5.804     23.116
         TR   0.657E+26              397.452      4.968     31.745
         TOT                         786.1360    10.7723    54.8618   229.5419

   temp. (K)  partition function   enthalpy   heat capacity  entropy
                                   cal/mol     cal/K/mol   cal/K/mol   J/K/mol
  60.00  VIB   2.84                   99.076      2.313      3.032
         ROT  0.282E+04              178.853      2.981     18.768
         INT  0.801E+04              277.930      5.293     21.800
         TR   0.427E+26              298.089      4.968     30.317
         TOT                         576.0185    10.2616    52.1172   218.0583

   temp. (K)  partition function   enthalpy   heat capacity  entropy
                                   cal/mol     cal/K/mol   cal/K/mol   J/K/mol
  40.00  VIB   2.08                   56.544      1.975      2.550
         ROT  0.153E+04              119.236      2.981     17.559
         INT  0.319E+04              175.780      4.956     20.109
         TR   0.232E+26              198.726      4.968     28.303
         TOT                         374.5058     9.9244    48.4128   202.5593

   temp. (K)  partition function   enthalpy   heat capacity  entropy
                                   cal/mol     cal/K/mol   cal/K/mol   J/K/mol
  20.00  VIB   1.37                   19.212      1.725      1.840
         ROT   542.                   59.618      2.981     15.493
         INT   742.                   78.829      4.706     17.333
         TR   0.822E+25               99.363      4.968     24.861
         TOT                         178.1925     9.6741    42.1946   176.5422

   temp. (K)  partition function   enthalpy   heat capacity  entropy
                                   cal/mol     cal/K/mol   cal/K/mol   J/K/mol
  10.00  VIB   1.08                    4.074      1.153      1.143
         ROT   192.                   29.809      2.981     13.427
         INT   207.                   33.883      4.134     14.570
         TR   0.290E+25               49.681      4.968     21.419
         TOT                          83.5648     9.1020    35.9892   150.5790

       T/K    H(0)-H(T)+PV         H(T)/Eh          T*S/Eh         G(T)/Eh
   ------------------------------------------------------------------------
    298.15    0.611415E-02    0.212428E-01    0.337856E-01   -0.125428E-01
    120.00    0.197836E-02    0.171071E-01    0.112958E-01    0.581131E-02
    100.00    0.160561E-02    0.167343E-01    0.910177E-02    0.763254E-02
     80.00    0.125279E-02    0.163815E-01    0.699423E-02    0.938726E-02
     60.00    0.917944E-03    0.160466E-01    0.498324E-02    0.110634E-01
     40.00    0.596813E-03    0.157255E-01    0.308603E-02    0.126395E-01
     20.00    0.283968E-03    0.154127E-01    0.134483E-02    0.140678E-01
     10.00    0.133169E-03    0.152619E-01    0.573525E-03    0.146883E-01 (used)
   ------------------------------------------------------------------------

         :::::::::::::::::::::::::::::::::::::::::::::::::::::
         ::                  THERMODYNAMIC                  ::
         :::::::::::::::::::::::::::::::::::::::::::::::::::::
         :: total free energy         -10.968336133453 Eh   ::
         ::.................................................::
         :: total energy              -10.983024478806 Eh   ::
         :: zero point energy           0.015128701376 Eh   ::
         :: G(RRHO) w/o ZPVE           -0.000440356024 Eh   ::
         :: G(RRHO) contrib.            0.014688345353 Eh   ::
         :::::::::::::::::::::::::::::::::::::::::::::::::::::

optimized geometry written to: xtbopt.xyz


           -------------------------------------------------
          | TOTAL ENERGY              -10.983024478806 Eh   |
          | TOTAL ENTHALPY            -10.967762608416 Eh   |
          | TOTAL FREE ENERGY         -10.968336133453 Eh   |
          | GRADIENT NORM               0.000368074163 Eh/α |
          | HOMO-LUMO GAP               1.136223470524 eV   |
           -------------------------------------------------

------------------------------------------------------------------------
 * finished run on 2020/05/12 at 11:44:14.067     
------------------------------------------------------------------------
 total:
 * wall-time:     0 d,  0 h,  0 min,  0.186 sec
 *  cpu-time:     0 d,  0 h,  0 min,  0.185 sec
 * ratio c/w:     0.999 speedup
 SCF:
 * wall-time:     0 d,  0 h,  0 min,  0.005 sec
 *  cpu-time:     0 d,  0 h,  0 min,  0.005 sec
 * ratio c/w:     0.996 speedup
 ANC optimizer:
 * wall-time:     0 d,  0 h,  0 min,  0.057 sec
 *  cpu-time:     0 d,  0 h,  0 min,  0.057 sec
 * ratio c/w:     0.999 speedup
 numerical hessian:
 * wall-time:     0 d,  0 h,  0 min,  0.107 sec
 *  cpu-time:     0 d,  0 h,  0 min,  0.107 sec
 * ratio c/w:     0.999 speedup

