      -----------------------------------------------------------      
     |                   =====================                   |     
     |                           x T B                           |     
     |                   =====================                   |     
     |                         S. Grimme                         |     
     |          Mulliken Center for Theoretical Chemistry        |     
     |                    University of Bonn                     |     
      -----------------------------------------------------------      

   * xtb version 6.2.2 (9d81278992624c895f80dd42a50cac0aa55982e2) compiled by '@Darwin' on 04/03/2020

   xtb is free software: you can redistribute it and/or modify it under
   the terms of the GNU Lesser General Public License as published by
   the Free Software Foundation, either version 3 of the License, or
   (at your option) any later version.
   
   xtb is distributed in the hope that it will be useful,
   but WITHOUT ANY WARRANTY; without even the implied warranty of
   MERCHANTABILITY or FITNESS FOR A PARTICULAR PURPOSE.  See the
   GNU Lesser General Public License for more details.
   
   Cite this work as:
   * S. Grimme, C. Bannwarth, P. Shushkov, J. Chem. Theory Comput., 2017,
     13, 1989-2009. DOI: 10.1021/acs.jctc.7b00118
   * C. Bannwarth, S. Ehlert and S. Grimme., J. Chem. Theory Comput., 2019,
     15, 1652-1671. DOI: 10.1021/acs.jctc.8b01176
   * P. Pracht, E. Caldeweyher, S. Ehlert, S. Grimme, ChemRxiv, 2019, preprint.
     DOI: 10.26434/chemrxiv.8326202.v1
   
   for DFT-D4:
   * E. Caldeweyher, C. Bannwarth and S. Grimme, J. Chem. Phys., 2017,
     147, 034112. DOI: 10.1063/1.4993215
   * E. Caldeweyher, S. Ehlert, A. Hansen, H. Neugebauer, S. Spicher,
     C. Bannwarth and S. Grimme, J. Chem. Phys., 2019, 150, 154122.
     DOI: 10.1063/1.5090222
   
   for sTDA-xTB:
   * S. Grimme and C. Bannwarth, J. Chem. Phys., 2016, 145, 054103.
     DOI: 10.1063/1.4959605
   
   in the mass-spec context:
   * V. Asgeirsson, C. Bauer and S. Grimme, Chem. Sci., 2017, 8, 4879.
     DOI: 10.1039/c7sc00601b
   
   for metadynamics refer to:
   * S. Grimme, J. Chem. Theory Comput., 2019, 155, 2847-2862
     DOI: 10.1021/acs.jctc.9b00143
   
   with help from (in alphabetical order)
   C. Bannwarth, F. Bohle, G. Brandenburg, E. Caldeweyher, M. Checinski,
   S. Dohm, S. Ehlert, S. Ehrlich, F. März, H. Neugebauer, J. Pisarek,
   P. Pracht, P. Shushkov, and S. Spicher.
   
 * started run on 2020/05/12 at 11:45:11.118     

           -------------------------------------------------
          |                Calculation Setup                |
           -------------------------------------------------

          program call               : xtb --input H1C4_8_S_1.input H1C4_8_S_1.xyz --ohess --molden --namespace H1C4_8_S_1 output.out
          calculation namespace      : H1C4_8_S_1
          coordinate file            : H1C4_8_S_1.xyz
          number of atoms            :                     5
          number of electrons        :                    17
          charge                     :                     0
          spin                       :                   0.5
          first test random number   :      0.41231216414988

   ID    Z sym.   atoms
    1    6 C      1-4
    2    1 H      5

           -------------------------------------------------
          |                 G F N 2 - x T B                 |
           -------------------------------------------------

        Reference                      10.1021/acs.jctc.8b01176
      * Hamiltonian:
        H0-scaling (s, p, d)           1.850000    2.230000    2.230000
        zeta-weighting                 0.500000
      * Dispersion:
        s8                             2.700000
        a1                             0.520000
        a2                             5.000000
        s9                             5.000000
      * Repulsion:
        kExp                           1.500000    1.000000
        rExp                           1.000000
      * Coulomb:
        alpha                          2.000000
        third order                    shell-resolved
        anisotropic                    true
        a3                             3.000000
        a5                             4.000000
        cn-shift                       1.200000
        cn-exp                         4.000000
        max-rad                        5.000000


          ...................................................
          :                      SETUP                      :
          :.................................................:
          :  # basis functions                  17          :
          :  # atomic orbitals                  17          :
          :  # shells                            9          :
          :  # electrons                        17          :
          :  max. iterations                   250          :
          :  Hamiltonian                  GFN2-xTB          :
          :  restarted?                      false          :
          :  GBSA solvation                  false          :
          :  PC potential                    false          :
          :  electronic temp.          300.0000000     K    :
          :  accuracy                    1.0000000          :
          :  -> integral cutoff          0.2500000E+02      :
          :  -> integral neglect         0.1000000E-07      :
          :  -> SCF convergence          0.1000000E-05 Eh   :
          :  -> wf. convergence          0.1000000E-03 e    :
          :  Broyden damping             0.4000000          :
          ...................................................

 iter      E             dE          RMSdq      gap      omega  full diag
   1     -8.7322674 -0.873227E+01  0.879E+00    1.00       0.0  T
   2     -8.6954810  0.367865E-01  0.570E+00    0.92       1.0  T
   3     -8.0064234  0.689058E+00  0.917E+00    1.29       1.0  T
   4     -8.7302124 -0.723789E+00  0.142E+00    0.92       1.0  T
   5     -8.7367728 -0.656033E-02  0.736E-01    0.96       1.0  T
   6     -8.7385340 -0.176123E-02  0.360E-01    0.91       1.0  T
   7     -8.7385267  0.726150E-05  0.188E-01    0.96       1.0  T
   8     -8.7387503 -0.223573E-03  0.668E-02    0.96       1.0  T
   9     -8.7387779 -0.275604E-04  0.236E-02    0.96       1.9  T
  10     -8.7387815 -0.361564E-05  0.510E-03    0.96       8.8  T
  11     -8.7387815 -0.341761E-08  0.398E-03    0.96      11.2  T
  12     -8.7387816 -0.824319E-07  0.151E-03    0.96      29.7  T
  13     -8.7387816 -0.728898E-08  0.554E-04    0.96      80.7  T
  14     -8.7387816 -0.187223E-08  0.257E-05    0.96    1740.6  T

   *** convergence criteria satisfied after 14 iterations ***

         #    Occupation            Energy/Eh            Energy/eV
      -------------------------------------------------------------
         1        2.0000           -0.7114462             -19.3594
       ...           ...                  ...                  ...
         3        2.0000           -0.5696221             -15.5002
         4        2.0000           -0.5456307             -14.8474
         5        2.0000           -0.5330142             -14.5041
         6        2.0000           -0.4863074             -13.2331
         7        2.0000           -0.4387396             -11.9387
         8        2.0000           -0.4285549             -11.6616
         9        1.0000           -0.3996264             -10.8744 (HOMO)
        10                         -0.3643653              -9.9149 (LUMO)
        11                         -0.2978576              -8.1051
        12                         -0.2128454              -5.7918
        13                          0.0002157               0.0059
        14                          0.0818741               2.2279
       ...                                ...                  ...
        17                          0.1966652               5.3515
      -------------------------------------------------------------
                  HL-Gap            0.0352611 Eh            0.9595 eV
             Fermi-level           -0.3980432 Eh          -10.8313 eV

 SCC (total)                   0 d,  0 h,  0 min,  0.004 sec
 SCC setup                      ...        0 min,  0.000 sec (  2.317%)
 Dispersion                     ...        0 min,  0.000 sec (  0.447%)
 integral evaluation            ...        0 min,  0.001 sec ( 27.659%)
 zeroth order Hamiltonian       ...        0 min,  0.000 sec (  0.500%)
 iterations                     ...        0 min,  0.002 sec ( 38.767%)
 molecular gradient             ...        0 min,  0.001 sec ( 28.600%)
 printout                       ...        0 min,  0.000 sec (  1.429%)

         :::::::::::::::::::::::::::::::::::::::::::::::::::::
         ::                     SUMMARY                     ::
         :::::::::::::::::::::::::::::::::::::::::::::::::::::
         :: total energy              -8.649680583228 Eh    ::
         :: gradient norm              0.164617559511 Eh/a0 ::
         :: HOMO-LUMO gap              0.959503048339 eV    ::
         ::.................................................::
         :: SCC energy                -8.738781588177 Eh    ::
         :: -> isotropic ES           -0.011628704845 Eh    ::
         :: -> anisotropic ES          0.001017790064 Eh    ::
         :: -> anisotropic XC          0.006072835769 Eh    ::
         :: -> dispersion             -0.002143094839 Eh    ::
         :: repulsion energy           0.089101010532 Eh    ::
         :: add. restraining           0.000000000000 Eh    ::
         :::::::::::::::::::::::::::::::::::::::::::::::::::::

      ----------------------------------------------------------- 
     |                   =====================                   |
     |                        A N C O P T                        |
     |                   =====================                   |
     |               Approximate Normal Coordinate               |
     |                Rational Function Optimizer                |
      ----------------------------------------------------------- 

          ...................................................
          :                      SETUP                      :
          :.................................................:
          :   optimization level            normal          :
          :   max. optcycles                   200          :
          :   ANC micro-cycles                  20          :
          :   degrees of freedom                 9          :
          :.................................................:
          :   RF solver                   davidson          :
          :   write xtbopt.log                true          :
          :   linear?                        false          :
          :   energy convergence         0.5000000E-05 Eh   :
          :   grad. convergence          0.1000000E-02 Eh/α :
          :   maximium RF displ.         1.0000000          :
          :   Hlow (freq-cutoff)         0.1000000E-01      :
          :   Hmax (freq-cutoff)         5.0000000          :
          :   S6 in model hess.         20.0000000          :
          ...................................................

generating ANC from model Hessian ...
Using Lindh-Hessian (1995)
 Shifting diagonal of input Hessian by    0.0000000000000000     
 Lowest  eigenvalues of input Hessian
   -0.000000   -0.000000   -0.000000    0.000000    0.000000    0.000000
    0.045702    0.055591    0.112876    0.555428    0.634071    0.824670
    0.827203    1.224990    1.336263
 Highest eigenvalues
    0.555428    0.634071    0.824670    0.827203    1.224990    1.336263


........................................................................
.............................. CYCLE    1 ..............................
........................................................................
   1     -8.7387816 -0.873878E+01  0.397E-06    0.96       0.0  T
   2     -8.7387816  0.641265E-12  0.966E-06    0.96    4630.5  T
   3     -8.7387816 -0.754952E-12  0.154E-06    0.96   29032.9  T
     SCC iter.                  ...        0 min,  0.000 sec
     gradient                   ...        0 min,  0.001 sec
 * total energy  :    -8.6496806 Eh     change       -0.1742784E-10 Eh
   gradient norm :     0.1646175 Eh/α   predicted     0.0000000E+00 (-100.00%)
   displ. norm   :     0.4374269 α      lambda       -0.5036138E-01
   maximum displ.:     0.2873063 α      in ANC's #1, #3, #4, ...

........................................................................
.............................. CYCLE    2 ..............................
........................................................................
   1     -8.7875078 -0.878751E+01  0.211E+00    1.49       0.0  T
   2     -8.7769313  0.105764E-01  0.195E+00    1.30       1.0  T
   3     -8.7906185 -0.136872E-01  0.110E+00    1.34       1.0  T
   4     -8.7938106 -0.319211E-02  0.407E-01    1.49       1.0  T
   5     -8.7946636 -0.852979E-03  0.736E-02    1.38       1.0  T
   6     -8.7946684 -0.488867E-05  0.172E-02    1.38       2.6  T
   7     -8.7946694 -0.917544E-06  0.500E-03    1.38       9.0  T
   8     -8.7946694 -0.373199E-07  0.121E-03    1.38      37.1  T
   9     -8.7946694 -0.328674E-09  0.571E-04    1.38      78.3  T
  10     -8.7946694 -0.177352E-08  0.229E-04    1.38     195.6  T
     SCC iter.                  ...        0 min,  0.001 sec
     gradient                   ...        0 min,  0.001 sec
 * total energy  :    -8.6871172 Eh     change       -0.3743664E-01 Eh
   gradient norm :     0.1051433 Eh/α   predicted    -0.2999881E-01 ( -19.87%)
   displ. norm   :     0.3785417 α      lambda       -0.3480362E-01
   maximum displ.:     0.3069112 α      in ANC's #4, #3, #9, ...

........................................................................
.............................. CYCLE    3 ..............................
........................................................................
   1     -8.8446850 -0.884469E+01  0.203E+00    1.39       0.0  T
   2     -8.8449874 -0.302353E-03  0.141E+00    0.91       1.0  T
   3     -8.8492965 -0.430910E-02  0.917E-01    1.07       1.0  T
   4     -8.8512830 -0.198648E-02  0.403E-01    1.16       1.0  T
   5     -8.8519552 -0.672201E-03  0.628E-02    1.07       1.0  T
   6     -8.8519596 -0.448540E-05  0.956E-03    1.07       4.7  T
   7     -8.8519600 -0.358186E-06  0.240E-03    1.07      18.6  T
   8     -8.8519600 -0.626185E-08  0.255E-04    1.07     175.6  T
   9     -8.8519600  0.356248E-10  0.207E-04    1.07     216.5  T
     SCC iter.                  ...        0 min,  0.001 sec
     gradient                   ...        0 min,  0.001 sec
 * total energy  :    -8.7059339 Eh     change       -0.1881665E-01 Eh
   gradient norm :     0.0508968 Eh/α   predicted    -0.1989537E-01 (   5.73%)
   displ. norm   :     0.3049378 α      lambda       -0.9080200E-02
   maximum displ.:     0.2535258 α      in ANC's #1, #3, #4, ...

........................................................................
.............................. CYCLE    4 ..............................
........................................................................
   1     -8.8389959 -0.883900E+01  0.124E+00    0.93       0.0  T
   2     -8.8383889  0.607013E-03  0.769E-01    1.00       1.0  T
   3     -8.8353253  0.306356E-02  0.890E-01    0.94       1.0  T
   4     -8.8395908 -0.426551E-02  0.725E-02    0.94       1.0  T
   5     -8.8396098 -0.189672E-04  0.333E-02    0.96       1.3  T
   6     -8.8396110 -0.118697E-05  0.116E-02    0.96       3.8  T
   7     -8.8396113 -0.304573E-06  0.256E-03    0.96      17.5  T
   8     -8.8396113  0.209687E-08  0.103E-03    0.96      43.3  T
   9     -8.8396113 -0.425491E-08  0.602E-04    0.96      74.3  T
  10     -8.8396113 -0.112641E-08  0.405E-05    0.96    1103.3  T
     SCC iter.                  ...        0 min,  0.001 sec
     gradient                   ...        0 min,  0.001 sec
 * total energy  :    -8.7090174 Eh     change       -0.3083520E-02 Eh
   gradient norm :     0.0347519 Eh/α   predicted    -0.4962268E-02 (  60.93%)
   displ. norm   :     0.0970650 α      lambda       -0.1933898E-02
   maximum displ.:     0.0944038 α      in ANC's #1, #4, #9, ...

........................................................................
.............................. CYCLE    5 ..............................
........................................................................
   1     -8.8501407 -0.885014E+01  0.400E-01    1.01       0.0  T
   2     -8.8499698  0.170876E-03  0.308E-01    0.92       1.0  T
   3     -8.8503360 -0.366128E-03  0.210E-01    0.95       1.0  T
   4     -8.8504553 -0.119357E-03  0.621E-02    0.97       1.0  T
   5     -8.8504693 -0.139752E-04  0.141E-02    0.95       3.2  T
   6     -8.8504696 -0.270708E-06  0.170E-03    0.95      26.3  T
   7     -8.8504696 -0.926228E-10  0.814E-04    0.95      55.0  T
   8     -8.8504696  0.388325E-08  0.844E-04    0.95      53.0  T
     SCC iter.                  ...        0 min,  0.001 sec
     gradient                   ...        0 min,  0.001 sec
 * total energy  :    -8.7100272 Eh     change       -0.1009828E-02 Eh
   gradient norm :     0.0100444 Eh/α   predicted    -0.9760594E-03 (  -3.34%)
   displ. norm   :     0.0350389 α      lambda       -0.2207744E-03
   maximum displ.:     0.0204039 α      in ANC's #4, #3, #7, ...

........................................................................
.............................. CYCLE    6 ..............................
........................................................................
   1     -8.8524094 -0.885241E+01  0.115E-01    0.93       0.0  T
   2     -8.8524027  0.673188E-05  0.857E-02    0.91       1.0  T
   3     -8.8524064 -0.372256E-05  0.619E-02    0.92       1.0  T
   4     -8.8524213 -0.148475E-04  0.128E-02    0.92       3.5  T
   5     -8.8524220 -0.737054E-06  0.278E-03    0.92      16.1  T
   6     -8.8524220 -0.579406E-08  0.888E-04    0.92      50.4  T
   7     -8.8524220  0.301946E-08  0.849E-04    0.92      52.7  T
     SCC iter.                  ...        0 min,  0.001 sec
     gradient                   ...        0 min,  0.001 sec
 * total energy  :    -8.7102095 Eh     change       -0.1822557E-03 Eh
   gradient norm :     0.0097726 Eh/α   predicted    -0.1105221E-03 ( -39.36%)
   displ. norm   :     0.1065239 α      lambda       -0.5098216E-03
   maximum displ.:     0.0594611 α      in ANC's #1, #3, #7, ...

........................................................................
.............................. CYCLE    7 ..............................
........................................................................
   1     -8.8543739 -0.885437E+01  0.295E-01    0.89       0.0  T
   2     -8.8543396  0.342499E-04  0.212E-01    0.88       1.0  T
   3     -8.8542740  0.656265E-04  0.174E-01    0.89       1.0  T
   4     -8.8544205 -0.146492E-03  0.104E-02    0.88       4.3  T
   5     -8.8544206 -0.144476E-06  0.632E-03    0.88       7.1  T
   6     -8.8544207 -0.381271E-07  0.236E-03    0.88      18.9  T
   7     -8.8544207  0.131405E-07  0.231E-03    0.88      19.4  T
   8     -8.8544207 -0.314874E-07  0.218E-04    0.88     204.8  T
   9     -8.8544207 -0.584226E-10  0.383E-05    0.88    1166.3  T
     SCC iter.                  ...        0 min,  0.001 sec
     gradient                   ...        0 min,  0.001 sec
 * total energy  :    -8.7105822 Eh     change       -0.3727031E-03 Eh
   gradient norm :     0.0110962 Eh/α   predicted    -0.2578026E-03 ( -30.83%)
   displ. norm   :     0.1363060 α      lambda       -0.4792410E-03
   maximum displ.:     0.0947367 α      in ANC's #1, #7, #3, ...

........................................................................
.............................. CYCLE    8 ..............................
........................................................................
   1     -8.8552658 -0.885527E+01  0.368E-01    0.87       0.0  T
   2     -8.8552389  0.269005E-04  0.250E-01    0.88       1.0  T
   3     -8.8550499  0.189011E-03  0.221E-01    0.88       1.0  T
   4     -8.8553132 -0.263333E-03  0.162E-02    0.87       2.8  T
   5     -8.8553140 -0.744537E-06  0.691E-03    0.87       6.5  T
   6     -8.8553139  0.288478E-07  0.327E-03    0.87      13.7  T
   7     -8.8553140 -0.416532E-07  0.189E-03    0.87      23.7  T
   8     -8.8553140 -0.153073E-07  0.239E-04    0.87     186.9  T
   9     -8.8553140 -0.193214E-10  0.733E-05    0.87     610.5  T
     SCC iter.                  ...        0 min,  0.001 sec
     gradient                   ...        0 min,  0.001 sec
 * total energy  :    -8.7109324 Eh     change       -0.3502351E-03 Eh
   gradient norm :     0.0107384 Eh/α   predicted    -0.2440730E-03 ( -30.31%)
   displ. norm   :     0.1442322 α      lambda       -0.3504296E-03
   maximum displ.:     0.1110513 α      in ANC's #1, #7, #3, ...

........................................................................
.............................. CYCLE    9 ..............................
........................................................................
   1     -8.8536389 -0.885364E+01  0.379E-01    0.87       0.0  T
   2     -8.8536390 -0.163529E-06  0.240E-01    0.88       1.0  T
   3     -8.8534612  0.177823E-03  0.172E-01    0.87       1.0  T
   4     -8.8536523 -0.191085E-03  0.215E-02    0.87       2.1  T
   5     -8.8536545 -0.221815E-05  0.656E-03    0.88       6.8  T
   6     -8.8536543  0.243044E-06  0.624E-03    0.88       7.2  T
   7     -8.8536545 -0.265642E-06  0.901E-04    0.88      49.6  T
   8     -8.8536545 -0.992095E-09  0.211E-04    0.88     211.5  T
     SCC iter.                  ...        0 min,  0.001 sec
     gradient                   ...        0 min,  0.001 sec
 * total energy  :    -8.7111482 Eh     change       -0.2157453E-03 Eh
   gradient norm :     0.0095681 Eh/α   predicted    -0.1788566E-03 ( -17.10%)
   displ. norm   :     0.0521601 α      lambda       -0.1742762E-03
   maximum displ.:     0.0407209 α      in ANC's #1, #7, #3, ...

........................................................................
.............................. CYCLE   10 ..............................
........................................................................
   1     -8.8544846 -0.885448E+01  0.143E-01    0.87       0.0  T
   2     -8.8544849 -0.332395E-06  0.890E-02    0.87       1.0  T
   3     -8.8544783  0.655395E-05  0.318E-02    0.87       1.4  T
   4     -8.8544852 -0.690936E-05  0.649E-03    0.87       6.9  T
   5     -8.8544853 -0.275862E-07  0.484E-03    0.87       9.2  T
   6     -8.8544853 -0.790656E-07  0.261E-03    0.87      17.1  T
   7     -8.8544854 -0.364761E-07  0.500E-04    0.87      89.5  T
   8     -8.8544854 -0.131418E-09  0.374E-05    0.87    1195.5  T
     SCC iter.                  ...        0 min,  0.001 sec
     gradient                   ...        0 min,  0.001 sec
 * total energy  :    -8.7112166 Eh     change       -0.6848993E-04 Eh
   gradient norm :     0.0066451 Eh/α   predicted    -0.8737498E-04 (  27.57%)
   displ. norm   :     0.0535639 α      lambda       -0.9340873E-04
   maximum displ.:     0.0444328 α      in ANC's #1, #3, #7, ...

........................................................................
.............................. CYCLE   11 ..............................
........................................................................
   1     -8.8526523 -0.885265E+01  0.147E-01    0.86       0.0  T
   2     -8.8526536 -0.131731E-05  0.904E-02    0.85       1.0  T
   3     -8.8526491  0.447152E-05  0.311E-02    0.86       1.4  T
   4     -8.8526524 -0.323431E-05  0.167E-02    0.85       2.7  T
   5     -8.8526543 -0.188316E-05  0.312E-03    0.85      14.3  T
   6     -8.8526542  0.107706E-07  0.158E-03    0.85      28.3  T
   7     -8.8526543 -0.150706E-07  0.408E-04    0.85     109.7  T
   8     -8.8526543 -0.201631E-09  0.562E-05    0.85     795.2  T
     SCC iter.                  ...        0 min,  0.001 sec
     gradient                   ...        0 min,  0.001 sec
 * total energy  :    -8.7112598 Eh     change       -0.4316522E-04 Eh
   gradient norm :     0.0031556 Eh/α   predicted    -0.4683869E-04 (   8.51%)
   displ. norm   :     0.0146820 α      lambda       -0.1771847E-04
   maximum displ.:     0.0095944 α      in ANC's #1, #7, #3, ...

........................................................................
.............................. CYCLE   12 ..............................
........................................................................
   1     -8.8535410 -0.885354E+01  0.549E-02    0.85       0.0  T
   2     -8.8535418 -0.770241E-06  0.330E-02    0.84       1.4  T
   3     -8.8535402  0.156189E-05  0.283E-02    0.84       1.6  T
   4     -8.8535426 -0.231401E-05  0.124E-02    0.84       3.6  T
   5     -8.8535434 -0.801651E-06  0.380E-03    0.84      11.8  T
   6     -8.8535434 -0.853030E-07  0.188E-03    0.84      23.8  T
   7     -8.8535435 -0.903968E-08  0.189E-04    0.84     236.7  T
   8     -8.8535435 -0.257412E-10  0.668E-05    0.84     669.6  T
     SCC iter.                  ...        0 min,  0.001 sec
     gradient                   ...        0 min,  0.001 sec
 * total energy  :    -8.7112692 Eh     change       -0.9418634E-05 Eh
   gradient norm :     0.0014977 Eh/α   predicted    -0.8860452E-05 (  -5.93%)
   displ. norm   :     0.0138614 α      lambda       -0.5013042E-05
   maximum displ.:     0.0100871 α      in ANC's #1, #7, #4, ...

........................................................................
.............................. CYCLE   13 ..............................
........................................................................
   1     -8.8539764 -0.885398E+01  0.706E-02    0.84       0.0  T
   2     -8.8539746  0.177211E-05  0.416E-02    0.83       1.1  T
   3     -8.8539626  0.119935E-04  0.522E-02    0.84       1.0  T
   4     -8.8539774 -0.147483E-04  0.953E-03    0.84       4.7  T
   5     -8.8539779 -0.552221E-06  0.270E-03    0.83      16.6  T
   6     -8.8539779 -0.170207E-07  0.159E-03    0.83      28.1  T
   7     -8.8539779 -0.416882E-08  0.812E-05    0.83     551.0  T
   8     -8.8539779 -0.730083E-12  0.432E-05    0.83    1035.6  T
     SCC iter.                  ...        0 min,  0.001 sec
     gradient                   ...        0 min,  0.001 sec
 * total energy  :    -8.7112769 Eh     change       -0.7707794E-05 Eh
   gradient norm :     0.0030641 Eh/α   predicted    -0.2507765E-05 ( -67.46%)
   displ. norm   :     0.0043356 α      lambda       -0.1188739E-04
   maximum displ.:     0.0038755 α      in ANC's #6, #4, #7, ...

........................................................................
.............................. CYCLE   14 ..............................
........................................................................
   1     -8.8539885 -0.885399E+01  0.730E-02    0.84       0.0  T
   2     -8.8539860  0.251252E-05  0.407E-02    0.84       1.1  T
   3     -8.8539698  0.161979E-04  0.589E-02    0.84       1.0  T
   4     -8.8539899 -0.200442E-04  0.183E-03    0.84      24.4  T
   5     -8.8539899 -0.155667E-07  0.629E-04    0.84      71.1  T
   6     -8.8539899  0.856996E-09  0.505E-04    0.84      88.6  T
     SCC iter.                  ...        0 min,  0.001 sec
     gradient                   ...        0 min,  0.001 sec
 * total energy  :    -8.7112923 Eh     change       -0.1535160E-04 Eh
   gradient norm :     0.0049671 Eh/α   predicted    -0.5941957E-05 ( -61.29%)
   displ. norm   :     0.0073737 α      lambda       -0.3133927E-04
   maximum displ.:     0.0065725 α      in ANC's #6, #4, #1, ...

........................................................................
.............................. CYCLE   15 ..............................
........................................................................
   1     -8.8542778 -0.885428E+01  0.124E-01    0.84       0.0  T
   2     -8.8542709  0.693535E-05  0.687E-02    0.85       1.0  T
   3     -8.8542257  0.452143E-04  0.991E-02    0.84       1.0  T
   4     -8.8542816 -0.559426E-04  0.682E-03    0.84       6.6  T
   5     -8.8542819 -0.254976E-06  0.206E-03    0.84      21.7  T
   6     -8.8542819 -0.236589E-07  0.879E-04    0.84      50.9  T
   7     -8.8542819 -0.901853E-09  0.843E-05    0.84     530.5  T
     SCC iter.                  ...        0 min,  0.001 sec
     gradient                   ...        0 min,  0.001 sec
 * total energy  :    -8.7113339 Eh     change       -0.4159321E-04 Eh
   gradient norm :     0.0082272 Eh/α   predicted    -0.1567037E-04 ( -62.32%)
   displ. norm   :     0.0119182 α      lambda       -0.8537620E-04
   maximum displ.:     0.0108711 α      in ANC's #6, #4, #1, ...

........................................................................
.............................. CYCLE   16 ..............................
........................................................................
   1     -8.8547966 -0.885480E+01  0.208E-01    0.86       0.0  T
   2     -8.8547797  0.168524E-04  0.112E-01    0.87       1.0  T
   3     -8.8546704  0.109338E-03  0.159E-01    0.86       1.0  T
   4     -8.8548079 -0.137553E-03  0.195E-02    0.86       2.3  T
   5     -8.8548099 -0.198794E-05  0.445E-03    0.86      10.1  T
   6     -8.8548101 -0.128832E-06  0.138E-03    0.86      32.5  T
   7     -8.8548101 -0.198827E-08  0.176E-04    0.86     254.0  T
   8     -8.8548101 -0.160671E-10  0.630E-05    0.86     709.9  T
     SCC iter.                  ...        0 min,  0.001 sec
     gradient                   ...        0 min,  0.001 sec
 * total energy  :    -8.7114452 Eh     change       -0.1112889E-03 Eh
   gradient norm :     0.0131326 Eh/α   predicted    -0.4269435E-04 ( -61.64%)
   displ. norm   :     0.0192107 α      lambda       -0.2164410E-03
   maximum displ.:     0.0172860 α      in ANC's #6, #4, #1, ...

........................................................................
.............................. CYCLE   17 ..............................
........................................................................
   1     -8.8557971 -0.885580E+01  0.335E-01    0.89       0.0  T
   2     -8.8557662  0.308384E-04  0.170E-01    0.93       1.0  T
   3     -8.8555750  0.191241E-03  0.234E-01    0.90       1.0  T
   4     -8.8558292 -0.254210E-03  0.543E-02    0.90       1.0  T
   5     -8.8558453 -0.161094E-04  0.804E-03    0.91       5.6  T
   6     -8.8558458 -0.441754E-06  0.211E-03    0.91      21.2  T
   7     -8.8558458 -0.470106E-08  0.443E-04    0.91     101.0  T
   8     -8.8558458 -0.845883E-10  0.101E-04    0.91     443.1  T
     SCC iter.                  ...        0 min,  0.001 sec
     gradient                   ...        0 min,  0.001 sec
 * total energy  :    -8.7117134 Eh     change       -0.2681938E-03 Eh
   gradient norm :     0.0191226 Eh/α   predicted    -0.1082621E-03 ( -59.63%)
   displ. norm   :     0.0285789 α      lambda       -0.4523412E-03
   maximum displ.:     0.0247731 α      in ANC's #6, #4, #1, ...

........................................................................
.............................. CYCLE   18 ..............................
........................................................................
   1     -8.8574833 -0.885748E+01  0.479E-01    0.98       0.0  T
   2     -8.8574496  0.337544E-04  0.231E-01    1.05       1.0  T
   3     -8.8572855  0.164042E-03  0.294E-01    0.99       1.0  T
   4     -8.8575507 -0.265155E-03  0.109E-01    1.00       1.0  T
   5     -8.8576242 -0.735215E-04  0.106E-02    1.01       4.2  T
   6     -8.8576250 -0.764050E-06  0.303E-03    1.01      14.8  T
   7     -8.8576250 -0.102740E-07  0.750E-04    1.01      59.6  T
   8     -8.8576250 -0.370203E-09  0.137E-04    1.01     327.6  T
     SCC iter.                  ...        0 min,  0.001 sec
     gradient                   ...        0 min,  0.001 sec
 * total energy  :    -8.7122206 Eh     change       -0.5072760E-03 Eh
   gradient norm :     0.0234816 Eh/α   predicted    -0.2263538E-03 ( -55.38%)
   displ. norm   :     0.0354507 α      lambda       -0.6498961E-03
   maximum displ.:     0.0288556 α      in ANC's #6, #4, #1, ...

........................................................................
.............................. CYCLE   19 ..............................
........................................................................
   1     -8.8595615 -0.885956E+01  0.538E-01    1.11       0.0  T
   2     -8.8595400  0.215043E-04  0.259E-01    1.20       1.0  T
   3     -8.8595276  0.123702E-04  0.295E-01    1.12       1.0  T
   4     -8.8596646 -0.136950E-03  0.130E-01    1.13       1.0  T
   5     -8.8597817 -0.117129E-03  0.100E-02    1.15       4.5  T
   6     -8.8597823 -0.608515E-06  0.377E-03    1.15      11.9  T
   7     -8.8597823 -0.177354E-07  0.877E-04    1.15      51.0  T
   8     -8.8597823 -0.715859E-09  0.117E-04    1.15     381.0  T
     SCC iter.                  ...        0 min,  0.001 sec
     gradient                   ...        0 min,  0.001 sec
 * total energy  :    -8.7128627 Eh     change       -0.6420487E-03 Eh
   gradient norm :     0.0234057 Eh/α   predicted    -0.3253555E-03 ( -49.33%)
   displ. norm   :     0.4767026 α      lambda       -0.8888094E-02
   maximum displ.:     0.3978208 α      in ANC's #6, #4, #2, ...

........................................................................
.............................. CYCLE   20 ..............................
........................................................................
   1     -8.8657014 -0.886570E+01  0.676E+00    3.10       0.0  T
   2     -8.6860408  0.179661E+00  0.630E+00    3.74       1.0  T
   3     -8.7833970 -0.973562E-01  0.522E+00    2.89       1.0  T
   4     -8.8859895 -0.102593E+00  0.203E+00    3.25       1.0  T
   5     -8.9043391 -0.183496E-01  0.103E+00    3.43       1.0  T
   6     -8.9058278 -0.148868E-02  0.874E-01    3.46       1.0  T
   7     -8.9058117  0.160396E-04  0.878E-01    3.46       1.0  T
   8     -8.9079338 -0.212203E-02  0.673E-02    3.55       1.0  T
   9     -8.9079381 -0.430094E-05  0.394E-02    3.55       1.1  T
  10     -8.9079424 -0.433760E-05  0.528E-03    3.55       8.5  T
  11     -8.9079425 -0.106404E-06  0.220E-03    3.55      20.3  T
  12     -8.9079425 -0.417371E-09  0.112E-03    3.55      39.8  T
  13     -8.9079425 -0.360503E-08  0.136E-04    3.55     327.9  T
  14     -8.9079425 -0.349090E-10  0.419E-05    3.55    1066.1  T
     SCC iter.                  ...        0 min,  0.001 sec
     gradient                   ...        0 min,  0.001 sec
 * total energy  :    -8.6928101 Eh     change        0.2005261E-01 Eh
   gradient norm :     0.1411888 Eh/α   predicted    -0.5453942E-02 (-127.20%)
   displ. norm   :     0.2748884 α      lambda       -0.2251434E-01
   maximum displ.:     0.2409031 α      in ANC's #6, #4, #3, ...
 * RMSD in coord.:     0.5612034 α      energy gain  -0.4312950E-01 Eh

generating ANC from model Hessian ...
Using Lindh-Hessian (1995)
 Shifting diagonal of input Hessian by    0.0000000000000000     
 Lowest  eigenvalues of input Hessian
   -0.000000   -0.000000   -0.000000   -0.000000    0.000000    0.000000
    0.036797    0.082857    0.201089    0.343021    0.784995    0.929058
    1.133215    1.544471    1.935382
 Highest eigenvalues
    0.343021    0.784995    0.929058    1.133215    1.544471    1.935382


........................................................................
.............................. CYCLE   21 ..............................
........................................................................
   1     -8.8403459 -0.884035E+01  0.501E+00    2.14       0.0  T
   2     -8.8310305  0.931546E-02  0.356E+00    1.67       1.0  T
   3     -8.8360179 -0.498740E-02  0.245E+00    2.13       1.0  T
   4     -8.8618809 -0.258630E-01  0.495E-01    2.05       1.0  T
   5     -8.8624807 -0.599872E-03  0.274E-01    2.00       1.0  T
   6     -8.8624608  0.199328E-04  0.366E-01    2.00       1.0  T
   7     -8.8624484  0.124254E-04  0.761E-02    2.00       1.0  T
   8     -8.8624864 -0.380111E-04  0.198E-02    2.01       2.3  T
   9     -8.8624866 -0.180212E-06  0.626E-03    2.01       7.1  T
  10     -8.8624866 -0.163978E-07  0.228E-03    2.01      19.6  T
  11     -8.8624866 -0.430567E-08  0.419E-04    2.01     106.9  T
  12     -8.8624866 -0.384581E-11  0.924E-05    2.01     483.9  T
     SCC iter.                  ...        0 min,  0.001 sec
     gradient                   ...        0 min,  0.001 sec
 * total energy  :    -8.7123663 Eh     change       -0.1955625E-01 Eh
   gradient norm :     0.0483707 Eh/α   predicted     0.0000000E+00 (-100.00%)
   displ. norm   :     0.0690560 α      lambda       -0.2036279E-02
   maximum displ.:     0.0536503 α      in ANC's #2, #8, #7, ...

........................................................................
.............................. CYCLE   22 ..............................
........................................................................
   1     -8.8603195 -0.886032E+01  0.343E-01    1.77       0.0  T
   2     -8.8603144  0.509403E-05  0.198E-01    1.75       1.0  T
   3     -8.8602481  0.663128E-04  0.177E-01    1.78       1.0  T
   4     -8.8603471 -0.989284E-04  0.237E-02    1.76       1.9  T
   5     -8.8603500 -0.294921E-05  0.956E-03    1.76       4.7  T
   6     -8.8603501 -0.610780E-07  0.287E-03    1.76      15.6  T
   7     -8.8603501 -0.399555E-07  0.904E-04    1.76      49.5  T
   8     -8.8603501 -0.222512E-08  0.457E-04    1.76      97.9  T
     SCC iter.                  ...        0 min,  0.001 sec
     gradient                   ...        0 min,  0.001 sec
 * total energy  :    -8.7137952 Eh     change       -0.1428842E-02 Eh
   gradient norm :     0.0223443 Eh/α   predicted    -0.1022994E-02 ( -28.40%)
   displ. norm   :     0.0537061 α      lambda       -0.8366109E-03
   maximum displ.:     0.0370840 α      in ANC's #1, #7, #8, ...

........................................................................
.............................. CYCLE   23 ..............................
........................................................................
   1     -8.8600651 -0.886007E+01  0.358E-01    1.57       0.0  T
   2     -8.8600078  0.572984E-04  0.232E-01    1.54       1.0  T
   3     -8.8600031  0.463182E-05  0.209E-01    1.57       1.0  T
   4     -8.8600918 -0.887023E-04  0.950E-02    1.57       1.0  T
   5     -8.8601531 -0.612741E-04  0.111E-02    1.56       4.0  T
   6     -8.8601532 -0.830985E-07  0.214E-03    1.56      20.9  T
   7     -8.8601532 -0.127746E-07  0.120E-03    1.56      37.1  T
   8     -8.8601532 -0.840626E-08  0.356E-04    1.56     125.8  T
   9     -8.8601532 -0.117973E-09  0.511E-05    1.56     875.5  T
     SCC iter.                  ...        0 min,  0.001 sec
     gradient                   ...        0 min,  0.001 sec
 * total energy  :    -8.7142525 Eh     change       -0.4573670E-03 Eh
   gradient norm :     0.0064634 Eh/α   predicted    -0.4195118E-03 (  -8.28%)
   displ. norm   :     0.0288135 α      lambda       -0.7099630E-04
   maximum displ.:     0.0267229 α      in ANC's #1, #7, #2, ...

........................................................................
.............................. CYCLE   24 ..............................
........................................................................
   1     -8.8599566 -0.885996E+01  0.132E-01    1.54       0.0  T
   2     -8.8599446  0.120261E-04  0.920E-02    1.54       1.0  T
   3     -8.8599172  0.273310E-04  0.955E-02    1.54       1.0  T
   4     -8.8599619 -0.447016E-04  0.180E-02    1.54       2.5  T
   5     -8.8599637 -0.172787E-05  0.464E-03    1.54       9.6  T
   6     -8.8599637 -0.241812E-07  0.292E-04    1.54     153.3  T
   7     -8.8599637 -0.292815E-10  0.110E-04    1.54     406.8  T
     SCC iter.                  ...        0 min,  0.001 sec
     gradient                   ...        0 min,  0.001 sec
 * total energy  :    -8.7143107 Eh     change       -0.5817208E-04 Eh
   gradient norm :     0.0054855 Eh/α   predicted    -0.3552560E-04 ( -38.93%)
   displ. norm   :     0.0598509 α      lambda       -0.1146151E-03
   maximum displ.:     0.0553851 α      in ANC's #1, #3, #5, ...

........................................................................
.............................. CYCLE   25 ..............................
........................................................................
   1     -8.8597353 -0.885974E+01  0.255E-01    1.54       0.0  T
   2     -8.8596842  0.511370E-04  0.184E-01    1.56       1.0  T
   3     -8.8595878  0.964464E-04  0.183E-01    1.54       1.0  T
   4     -8.8597603 -0.172560E-03  0.306E-02    1.55       1.5  T
   5     -8.8597664 -0.612940E-05  0.727E-03    1.55       6.2  T
   6     -8.8597665 -0.338384E-07  0.825E-04    1.55      54.2  T
   7     -8.8597665 -0.216762E-09  0.722E-04    1.55      62.0  T
     SCC iter.                  ...        0 min,  0.001 sec
     gradient                   ...        0 min,  0.001 sec
 * total energy  :    -8.7143715 Eh     change       -0.6080750E-04 Eh
   gradient norm :     0.0029330 Eh/α   predicted    -0.5751317E-04 (  -5.42%)
   displ. norm   :     0.0041179 α      lambda       -0.9305318E-05
   maximum displ.:     0.0019406 α      in ANC's #8, #1, #5, ...

........................................................................
.............................. CYCLE   26 ..............................
........................................................................
   1     -8.8602553 -0.886026E+01  0.272E-02    1.56       0.0  T
   2     -8.8602530  0.229169E-05  0.279E-02    1.57       1.6  T
   3     -8.8602563 -0.331614E-05  0.132E-02    1.56       3.4  T
   4     -8.8602565 -0.135817E-06  0.706E-03    1.56       6.3  T
   5     -8.8602567 -0.234333E-06  0.104E-03    1.56      43.0  T
   6     -8.8602567 -0.995668E-09  0.134E-04    1.56     334.3  T
   7     -8.8602567 -0.297895E-11  0.786E-05    1.56     569.0  T
     SCC iter.                  ...        0 min,  0.001 sec
     gradient                   ...        0 min,  0.001 sec
 * total energy  :    -8.7143783 Eh     change       -0.6791015E-05 Eh
   gradient norm :     0.0014543 Eh/α   predicted    -0.4653391E-05 ( -31.48%)
   displ. norm   :     0.0092821 α      lambda       -0.6694228E-05
   maximum displ.:     0.0047463 α      in ANC's #1, #6, #3, ...

........................................................................
.............................. CYCLE   27 ..............................
........................................................................
   1     -8.8609821 -0.886098E+01  0.588E-02    1.58       0.0  T
   2     -8.8609715  0.106176E-04  0.610E-02    1.59       1.0  T
   3     -8.8609871 -0.156442E-04  0.283E-02    1.58       1.6  T
   4     -8.8609875 -0.368692E-06  0.155E-02    1.58       2.9  T
   5     -8.8609886 -0.111155E-05  0.212E-03    1.58      21.1  T
   6     -8.8609886 -0.420549E-08  0.249E-04    1.58     179.8  T
   7     -8.8609886 -0.216076E-10  0.159E-04    1.58     282.1  T
     SCC iter.                  ...        0 min,  0.001 sec
     gradient                   ...        0 min,  0.001 sec
 * total energy  :    -8.7143834 Eh     change       -0.5085205E-05 Eh
   gradient norm :     0.0018232 Eh/α   predicted    -0.3346573E-05 ( -34.19%)
   displ. norm   :     0.0045738 α      lambda       -0.2653675E-05
   maximum displ.:     0.0034466 α      in ANC's #3, #6, #5, ...

........................................................................
.............................. CYCLE   28 ..............................
........................................................................
   1     -8.8608999 -0.886090E+01  0.273E-02    1.58       0.0  T
   2     -8.8608989  0.102811E-05  0.234E-02    1.59       1.9  T
   3     -8.8609002 -0.127699E-05  0.143E-02    1.58       3.1  T
   4     -8.8609005 -0.269019E-06  0.918E-03    1.58       4.9  T
   5     -8.8609009 -0.421087E-06  0.995E-04    1.58      44.9  T
   6     -8.8609009 -0.395870E-09  0.119E-04    1.58     375.8  T
     SCC iter.                  ...        0 min,  0.001 sec
     gradient                   ...        0 min,  0.001 sec
 * total energy  :    -8.7143867 Eh     change       -0.3257313E-05 Eh
   gradient norm :     0.0011751 Eh/α   predicted    -0.1325812E-05 ( -59.30%)
   displ. norm   :     0.0084057 α      lambda       -0.3272140E-05
   maximum displ.:     0.0058522 α      in ANC's #3, #6, #5, ...

........................................................................
.............................. CYCLE   29 ..............................
........................................................................
   1     -8.8606655 -0.886067E+01  0.510E-02    1.59       0.0  T
   2     -8.8606622  0.333174E-05  0.428E-02    1.59       1.0  T
   3     -8.8606667 -0.445690E-05  0.262E-02    1.59       1.7  T
   4     -8.8606673 -0.661837E-06  0.180E-02    1.59       2.5  T
   5     -8.8606690 -0.165563E-05  0.185E-03    1.59      24.2  T
   6     -8.8606690 -0.146281E-08  0.198E-04    1.59     225.6  T
   7     -8.8606690 -0.151381E-10  0.147E-04    1.59     304.8  T
     SCC iter.                  ...        0 min,  0.001 sec
     gradient                   ...        0 min,  0.001 sec
 * total energy  :    -8.7143892 Eh     change       -0.2521431E-05 Eh
   gradient norm :     0.0001863 Eh/α   predicted    -0.1634616E-05 ( -35.17%)
   displ. norm   :     0.0010861 α      lambda       -0.8209594E-07
   maximum displ.:     0.0009131 α      in ANC's #1, #7, #5, ...

   *** GEOMETRY OPTIMIZATION CONVERGED AFTER 29 ITERATIONS ***

------------------------------------------------------------------------
 total energy gain   :        -0.0647086 Eh      -40.6053 kcal/mol
 total RMSD          :         0.5245949 a0        0.2776 Å
 total power (kW/mol):        -5.8583584 (step)-1833.9759 (real)
------------------------------------------------------------------------

 ANCopt (total)                0 d,  0 h,  0 min,  0.093 sec
 optimizer setup                ...        0 min,  0.000 sec (  0.079%)
 model hessian                  ...        0 min,  0.000 sec (  0.159%)
 ANC generation                 ...        0 min,  0.000 sec (  0.112%)
 coordinate transformation      ...        0 min,  0.000 sec (  0.073%)
 single point calculation       ...        0 min,  0.090 sec ( 96.884%)
 optimization log               ...        0 min,  0.001 sec (  0.836%)
 hessian update                 ...        0 min,  0.000 sec (  0.074%)
 rational function              ...        0 min,  0.001 sec (  0.761%)

================
 final structure:
================
5
 xtb: 6.2.2 (9d81278992624c895f80dd42a50cac0aa55982e2)
C        -0.70599555440298   -0.03580376607536    0.07397550369468
C         0.37154073042288   -0.84472858547771   -0.02147647017808
C         1.62649728586359    0.07260652004980   -0.16983948319980
C         0.46940385791670    0.78308496861355   -0.06223058038963
H        -1.76144631980019    0.02484086288972    0.17957103007283

 Bond Distances (Angstroems)
 ---------------------------
C1-C2=1.3508         C1-C4=1.4390         C1-H5=1.0625         C2-C1=1.3508         C2-C3=1.5615         C2-C4=1.6313         
C3-C2=1.5615         C3-C4=1.3621         C4-C1=1.4390         C4-C2=1.6313         C4-C3=1.3621         H5-C1=1.0625         
 C  H  Rav=1.0625 sigma=0.0000  Rmin=1.0625  Rmax=1.0625     1
 C  C  Rav=1.4689 sigma=0.1106  Rmin=1.3508  Rmax=1.6313     5

 selected bond angles (degree)
 --------------------
C4-C1-C2= 71.49                H5-C1-C2=146.48                H5-C1-C4=142.03                C3-C2-C1=107.22                
C4-C2-C1= 56.77                C4-C2-C3= 50.45                C4-C3-C2= 67.43                C2-C4-C1= 51.74                
C3-C4-C1=113.86                C3-C4-C2= 62.12                

 selected dihedral angles (degree)
 ---------------------------------
C3-C2-C1-C4=359.92            C3-C2-C1-H5=179.75            C4-C2-C1-H5=179.83            C4-C3-C2-C1=  0.09            
C2-C4-C1-H5=180.15            C3-C4-C1-C2=  0.10            C3-C4-C1-H5=180.25            C1-C4-C2-C3=179.90            
C3-C4-C2-C1=180.10            C1-C4-C3-C2=359.91            
           -------------------------------------------------
          |                Final Singlepoint                |
           -------------------------------------------------

          ...................................................
          :                      SETUP                      :
          :.................................................:
          :  # basis functions                  17          :
          :  # atomic orbitals                  17          :
          :  # shells                            9          :
          :  # electrons                        17          :
          :  max. iterations                   250          :
          :  Hamiltonian                  GFN2-xTB          :
          :  restarted?                      false          :
          :  GBSA solvation                  false          :
          :  PC potential                    false          :
          :  electronic temp.          300.0000000     K    :
          :  accuracy                    1.0000000          :
          :  -> integral cutoff          0.2500000E+02      :
          :  -> integral neglect         0.1000000E-07      :
          :  -> SCF convergence          0.1000000E-05 Eh   :
          :  -> wf. convergence          0.1000000E-03 e    :
          :  Broyden damping             0.4000000          :
          ...................................................

 iter      E             dE          RMSdq      gap      omega  full diag
   1     -8.8606690 -0.886067E+01  0.699E-05    1.59       0.0  T
   2     -8.8606690  0.714806E-11  0.555E-05    1.59     805.9  T
   3     -8.8606690 -0.141256E-10  0.346E-05    1.59    1294.4  T

   *** convergence criteria satisfied after 3 iterations ***

         #    Occupation            Energy/Eh            Energy/eV
      -------------------------------------------------------------
         1        2.0000           -0.7147857             -19.4503
       ...           ...                  ...                  ...
         3        2.0000           -0.5872648             -15.9803
         4        2.0000           -0.5591365             -15.2149
         5        2.0000           -0.5278678             -14.3640
         6        2.0000           -0.5063260             -13.7778
         7        2.0000           -0.4386035             -11.9350
         8        2.0000           -0.4087088             -11.1215
         9        1.0000           -0.3766978             -10.2505 (HOMO)
        10                         -0.3182939              -8.6612 (LUMO)
        11                         -0.2661224              -7.2416
        12                         -0.1954122              -5.3174
        13                          0.0198701               0.5407
        14                          0.0790572               2.1513
       ...                                ...                  ...
        17                          0.6146188              16.7246
      -------------------------------------------------------------
                  HL-Gap            0.0584039 Eh            1.5893 eV
             Fermi-level           -0.3700996 Eh          -10.0709 eV

 SCC (total)                   0 d,  0 h,  0 min,  0.003 sec
 SCC setup                      ...        0 min,  0.000 sec (  3.214%)
 Dispersion                     ...        0 min,  0.000 sec (  0.502%)
 integral evaluation            ...        0 min,  0.001 sec ( 40.235%)
 zeroth order Hamiltonian       ...        0 min,  0.000 sec (  0.646%)
 iterations                     ...        0 min,  0.000 sec ( 11.836%)
 molecular gradient             ...        0 min,  0.001 sec ( 41.332%)
 printout                       ...        0 min,  0.000 sec (  1.811%)

         :::::::::::::::::::::::::::::::::::::::::::::::::::::
         ::                     SUMMARY                     ::
         :::::::::::::::::::::::::::::::::::::::::::::::::::::
         :: total energy              -8.714389178474 Eh    ::
         :: gradient norm              0.000186410981 Eh/a0 ::
         :: HOMO-LUMO gap              1.589251961508 eV    ::
         ::.................................................::
         :: SCC energy                -8.860668991893 Eh    ::
         :: -> isotropic ES           -0.007669603700 Eh    ::
         :: -> anisotropic ES         -0.000256027923 Eh    ::
         :: -> anisotropic XC          0.008082548981 Eh    ::
         :: -> dispersion             -0.002149587147 Eh    ::
         :: repulsion energy           0.146279824363 Eh    ::
         :: add. restraining           0.000000000000 Eh    ::
         :::::::::::::::::::::::::::::::::::::::::::::::::::::

           ------------------------------------------------- 
          |                Numerical Hessian                |
           ------------------------------------------------- 
step length          :   0.00500
SCC accuracy         :   0.30000
Hessian scale factor :   1.00000
frozen atoms in %    :   0.00000    0
RMS gradient         :   0.00019
estimated CPU  time      0.00 min
estimated wall time      0.00 min

writing file <hessian>.

 projected vibrational frequencies (cm-1)
eigval :       -0.00    -0.00    -0.00     0.00     0.00     0.00
eigval :      221.48   399.22   584.61   680.22   920.02  1031.39
eigval :     1435.87  1509.08  3237.10
           -------------------------------------------------
          |                Property Printout                |
           -------------------------------------------------

    * Orbital Energies and Occupations

         #    Occupation            Energy/Eh            Energy/eV
      -------------------------------------------------------------
         1        2.0000           -0.7147858             -19.4503
         2        2.0000           -0.6371952             -17.3390
         3        2.0000           -0.5872648             -15.9803
         4        2.0000           -0.5591365             -15.2149
         5        2.0000           -0.5278678             -14.3640
         6        2.0000           -0.5063261             -13.7778
         7        2.0000           -0.4386036             -11.9350
         8        2.0000           -0.4087090             -11.1215
         9        1.0000           -0.3766978             -10.2505 (HOMO)
        10                         -0.3182940              -8.6612 (LUMO)
        11                         -0.2661224              -7.2416
        12                         -0.1954122              -5.3174
        13                          0.0198699               0.5407
        14                          0.0790573               2.1513
        15                          0.1793910               4.8815
        16                          0.4252302              11.5711
        17                          0.6146188              16.7246
      -------------------------------------------------------------
                  HL-Gap            0.0584039 Eh            1.5892 eV
             Fermi-level           -0.3700997 Eh          -10.0709 eV

     #   Z        covCN         q      C6AA      α(0)
     1   6 C      2.919     0.036    27.193     8.551
     2   6 C      2.908    -0.010    28.278     8.720
     3   6 C      1.983    -0.131    34.721     9.516
     4   6 C      2.916     0.023    27.496     8.599
     5   1 H      0.927     0.082     1.954     2.186

 Mol. C6AA /au·bohr⁶  :        531.965034
 Mol. C8AA /au·bohr⁸  :      14733.737232
 Mol. α(0) /au        :         37.571657


Wiberg/Mayer (AO) data.
largest (>0.10) Wiberg bond orders for each atom
          total WBO             WBO to atom ...
     1  C   3.641        C    2 1.543    C    4 1.060    H    5 0.964
     2  C   3.182        C    1 1.543    C    4 0.826    C    3 0.807
     3  C   2.352        C    4 1.453    C    2 0.807
     4  C   3.342        C    3 1.453    C    1 1.060    C    2 0.826
     5  H   0.993        C    1 0.964

MOs/occ written to file <molden.input>


molecular dipole:
                 x           y           z       tot (Debye)
 q only:       -0.711       0.034       0.073
   full:       -1.455       0.159       0.148       3.738
molecular quadrupole (traceless):
                xx          xy          yy          xz          yz          zz
 q only:       -0.255      -0.035       0.146       0.041       0.003       0.109
  q+dip:       -0.674      -0.623      -0.384       0.204       0.093       1.059
   full:       -2.946       0.072      -0.533       0.682       0.070       3.478

           -------------------------------------------------
          |                Geometry Summary                 |
           -------------------------------------------------

      molecular mass/u    :       49.0508844
   center of mass at/Å    :        0.3951167      -0.0055743      -0.0402816
  moments of inertia/u·Å² :        0.1574312E+02   0.3822247E+02   0.5396555E+02
rotational constants/cm⁻¹ :        0.1070793E+01   0.4410398E+00   0.3123776E+00

 * 3 selected distances

     #   Z        #   Z                                     value/Å
Molecule has the following symmetry elements: (sigma) 
It seems to be the Cs point group
     1   6 C      2   6 C                                 1.3507609
     3   6 C      4   6 C                                 1.3620663 (max)
     1   6 C      5   1 H                                 1.0624521 (min)

 * 2 distinct bonds (by element types)

   Z      Z             #   av. dist./Å        max./Å        min./Å
   1 H    6 C           1     1.0624521     1.0624521     1.0624521
   6 C    6 C           2     1.3564136     1.3620663     1.3507609

           -------------------------------------------------
          |               Frequency Printout                |
           -------------------------------------------------
 projected vibrational frequencies (cm-1)
eigval :       -0.00    -0.00    -0.00     0.00     0.00     0.00
eigval :      221.48   399.22   584.61   680.22   920.02  1031.39
eigval :     1435.87  1509.08  3237.10
 reduced masses (amu)
   1: 10.87   2: 11.98   3: 11.82   4: 11.88   5: 10.68   6: 11.80   7:  9.41   8: 11.41
   9:  5.23  10: 11.84  11:  2.85  12: 11.91  13: 11.99  14: 11.47  15:  2.02
 IR intensities (amu)
   1:  0.24   2:  0.18   3:  0.04   4:  0.10   5:  0.31   6:  0.08   7:  0.45   8:  1.28
   9:  0.27  10:  0.14  11:  0.22  12:  0.38  13:  0.42  14:  0.22  15:  0.00
 Raman intensities (amu)
   1:  0.00   2:  0.00   3:  0.00   4:  0.00   5:  0.00   6:  0.00   7:  0.00   8:  0.00
   9:  0.00  10:  0.00  11:  0.00  12:  0.00  13:  0.00  14:  0.00  15:  0.00
 output can be read by thermo (or use thermo option).
 writing <g98.out> molden fake output.
 recommended (thermochemical) frequency scaling factor: 1.0
           -------------------------------------------------
          |             Thermodynamic Functions             |
           -------------------------------------------------

cs  symmetry found (for desy threshold:  0.10E+00) used in thermo

          ...................................................
          :                      SETUP                      :
          :.................................................:
          :  # frequencies                           9      :
          :  # imaginary freq.                       0      :
          :  linear?                             false      :
          :  only rotor calc.                    false      :
          :  symmetry                               cs      :
          :  rotational number                       1      :
          :  scaling factor                  1.0000000      :
          :  rotor cutoff                   50.0000000 cm⁻¹ :
          :  imag. cutoff                  -20.0000000 cm⁻¹ :
          :.................................................:

    mode    ω/cm⁻¹     T·S(HO)/kcal·mol⁻¹    T·S(FR)/kcal·mol⁻¹   T·S(vib)
   ------------------------------------------------------------------------
       1    221.48    -0.00000 ( 99.74%)     0.01310 (  0.26%)     0.00003
   ------------------------------------------------------------------------

   temp. (K)  partition function   enthalpy   heat capacity  entropy
                                   cal/mol     cal/K/mol   cal/K/mol   J/K/mol
 298.15  VIB   2.01                  766.366      6.196      3.958
         ROT  0.138E+05              888.752      2.981     21.919
         INT  0.277E+05             1655.118      9.177     25.878
         TR   0.332E+27             1481.254      4.968     37.578
         TOT                        3136.3718    14.1452    63.4555   265.4978

   temp. (K)  partition function   enthalpy   heat capacity  entropy
                                   cal/mol     cal/K/mol   cal/K/mol   J/K/mol
 120.00  VIB   1.09                   59.582      1.657      0.662
         ROT  0.351E+04              357.707      2.981     19.206
         INT  0.382E+04              417.289      4.638     19.869
         TR   0.849E+26              596.178      4.968     33.058
         TOT                        1013.4672     9.6059    52.9269   221.4461

   temp. (K)  partition function   enthalpy   heat capacity  entropy
                                   cal/mol     cal/K/mol   cal/K/mol   J/K/mol
 100.00  VIB   1.05                   31.441      1.161      0.407
         ROT  0.267E+04              298.089      2.981     18.663
         INT  0.280E+04              329.530      4.142     19.070
         TR   0.646E+26              496.815      4.968     32.153
         TOT                         826.3453     9.1101    51.2228   214.3164

   temp. (K)  partition function   enthalpy   heat capacity  entropy
                                   cal/mol     cal/K/mol   cal/K/mol   J/K/mol
  80.00  VIB   1.02                   12.943      0.695      0.202
         ROT  0.191E+04              238.471      2.981     17.998
         INT  0.195E+04              251.414      3.676     18.200
         TR   0.462E+26              397.452      4.968     31.045
         TOT                         648.8661     8.6444    49.2449   206.0409

   temp. (K)  partition function   enthalpy   heat capacity  entropy
                                   cal/mol     cal/K/mol   cal/K/mol   J/K/mol
  60.00  VIB   1.01                    3.223      0.293      0.065
         ROT  0.124E+04              178.853      2.981     17.140
         INT  0.125E+04              182.076      3.273     17.205
         TR   0.300E+26              298.089      4.968     29.616
         TOT                         480.1650     8.2416    46.8213   195.9003

   temp. (K)  partition function   enthalpy   heat capacity  entropy
                                   cal/mol     cal/K/mol   cal/K/mol   J/K/mol
  40.00  VIB   1.00                    0.220      0.044      0.006
         ROT   676.                  119.236      2.981     15.932
         INT   677.                  119.456      3.025     15.938
         TR   0.163E+26              198.726      4.968     27.603
         TOT                         318.1820     7.9931    43.5407   182.1743

   temp. (K)  partition function   enthalpy   heat capacity  entropy
                                   cal/mol     cal/K/mol   cal/K/mol   J/K/mol
  20.00  VIB   1.00                    0.000      0.000     -0.002
         ROT   239.                   59.618      2.981     13.865
         INT   239.                   59.618      2.981     13.863
         TR   0.577E+25               99.363      4.968     24.161
         TOT                         158.9809     7.9491    38.0243   159.0938

   temp. (K)  partition function   enthalpy   heat capacity  entropy
                                   cal/mol     cal/K/mol   cal/K/mol   J/K/mol
  10.00  VIB   1.00                    0.000      0.000     -0.004
         ROT   84.6                   29.809      2.981     11.799
         INT   84.6                   29.809      2.981     11.795
         TR   0.204E+25               49.681      4.968     20.719
         TOT                          79.4904     7.9490    32.5141   136.0391

       T/K    H(0)-H(T)+PV         H(T)/Eh          T*S/Eh         G(T)/Eh
   ------------------------------------------------------------------------
    298.15    0.499813E-02    0.278231E-01    0.301498E-01   -0.232669E-02
    120.00    0.161506E-02    0.244400E-01    0.101213E-01    0.143187E-01
    100.00    0.131687E-02    0.241418E-01    0.816288E-02    0.159789E-01
     80.00    0.103403E-02    0.238590E-01    0.627815E-02    0.175808E-01
     60.00    0.765192E-03    0.235901E-01    0.447687E-02    0.191133E-01
     40.00    0.507055E-03    0.233320E-01    0.277546E-02    0.205565E-01
     20.00    0.253352E-03    0.230783E-01    0.121191E-02    0.218664E-01
     10.00    0.126676E-03    0.229516E-01    0.518146E-03    0.224335E-01 (used)
   ------------------------------------------------------------------------

         :::::::::::::::::::::::::::::::::::::::::::::::::::::
         ::                  THERMODYNAMIC                  ::
         :::::::::::::::::::::::::::::::::::::::::::::::::::::
         :: total free energy          -8.691955707599 Eh   ::
         ::.................................................::
         :: total energy               -8.714389178372 Eh   ::
         :: zero point energy           0.022824940405 Eh   ::
         :: G(RRHO) w/o ZPVE           -0.000391469633 Eh   ::
         :: G(RRHO) contrib.            0.022433470772 Eh   ::
         :::::::::::::::::::::::::::::::::::::::::::::::::::::

optimized geometry written to: xtbopt.xyz


           -------------------------------------------------
          | TOTAL ENERGY               -8.714389178372 Eh   |
          | TOTAL ENTHALPY             -8.691437561951 Eh   |
          | TOTAL FREE ENERGY          -8.691955707599 Eh   |
          | GRADIENT NORM               0.000186758932 Eh/α |
          | HOMO-LUMO GAP               1.589249715084 eV   |
           -------------------------------------------------

------------------------------------------------------------------------
 * finished run on 2020/05/12 at 11:45:11.325     
------------------------------------------------------------------------
 total:
 * wall-time:     0 d,  0 h,  0 min,  0.206 sec
 *  cpu-time:     0 d,  0 h,  0 min,  0.205 sec
 * ratio c/w:     0.994 speedup
 SCF:
 * wall-time:     0 d,  0 h,  0 min,  0.004 sec
 *  cpu-time:     0 d,  0 h,  0 min,  0.004 sec
 * ratio c/w:     1.000 speedup
 ANC optimizer:
 * wall-time:     0 d,  0 h,  0 min,  0.096 sec
 *  cpu-time:     0 d,  0 h,  0 min,  0.096 sec
 * ratio c/w:     0.998 speedup
 numerical hessian:
 * wall-time:     0 d,  0 h,  0 min,  0.087 sec
 *  cpu-time:     0 d,  0 h,  0 min,  0.086 sec
 * ratio c/w:     0.989 speedup

