5
 energy: -9.061891303752 gnorm: 0.106943448826 xtb: 6.2.2 (9d81278992624c895f80dd42a50cac0aa55982e2)
C        -0.03816400000000   -0.07164200000000    0.01127500000000
C         1.36988400000000    0.46389500000000   -0.13971400000000
O        -0.94698000000000    0.98225200000000   -0.06723000000000
H        -0.13906400000000   -0.57445200000000    0.99502900000000
H        -0.24567600000000   -0.80005200000000   -0.79935900000000
5
 energy: -9.083272938559 gnorm: 0.068139352375 xtb: 6.2.2 (9d81278992624c895f80dd42a50cac0aa55982e2)
C        -0.04282286800557   -0.08674183740231    0.01345029721450
C         1.26020866890148    0.50397755011471   -0.13823711644028
O        -0.84064364911957    0.99799809090056   -0.07552754315620
H        -0.13554617484398   -0.59583437305819    0.98925436305074
H        -0.24119597693237   -0.81939843055478   -0.78893900066875
5
 energy: -9.164296882450 gnorm: 0.217926450630 xtb: 6.2.2 (9d81278992624c895f80dd42a50cac0aa55982e2)
C        -0.05604585618654   -0.15929778263842    0.02335823909832
C         0.96100393525561    0.65966111161949   -0.14003356177309
O        -0.52018471845704    1.06371428908132   -0.10282950396133
H        -0.13996362111804   -0.67110635829580    0.99208732369749
H        -0.24480973949399   -0.89297025976659   -0.77258149706140
5
 energy: -9.023412916310 gnorm: 1.415614877685 xtb: 6.2.2 (9d81278992624c895f80dd42a50cac0aa55982e2)
C        -0.07803263409505   -0.28945281609010    0.04102843913459
C         0.72087541054663    0.84511920495954   -0.14908331532454
O        -0.20546749097571    1.10903413737839   -0.12722600833248
H        -0.16492837781441   -0.71859020723592    1.02246489837190
H        -0.27244690766145   -0.94610931901191   -0.78718301384947
5
 energy: -9.217162497961 gnorm: 0.130191022459 xtb: 6.2.2 (9d81278992624c895f80dd42a50cac0aa55982e2)
C        -0.10169205556400   -0.31052973809745    0.04508391757434
C         0.93080514449995    0.81724230528580   -0.15805128578636
O        -0.37922815937283    1.13049970956837   -0.11960091157857
H        -0.17103947813976   -0.70454197997938    1.02352766033393
H        -0.27884545142336   -0.93266929677734   -0.79095838054333
5
 energy: -9.222727843443 gnorm: 0.068213454331 xtb: 6.2.2 (9d81278992624c895f80dd42a50cac0aa55982e2)
C        -0.06684249559326   -0.25756711194883    0.03635446790185
C         0.90800581862515    0.79559964592125   -0.15397558590847
O        -0.38486161577157    1.11532966208715   -0.11735893916030
H        -0.17448890038321   -0.71312707159905    1.02067610788979
H        -0.28181280687711   -0.94023412446053   -0.78569505072287
5
 energy: -9.225556843996 gnorm: 0.049896382262 xtb: 6.2.2 (9d81278992624c895f80dd42a50cac0aa55982e2)
C        -0.04173923500764   -0.29058583430833    0.03901410539017
C         0.92156440197121    0.82491881965253   -0.15846718631786
O        -0.35817393297344    1.06907444721719   -0.11312911830175
H        -0.20555295413430   -0.68474152724125    1.04658503971915
H        -0.31609827985583   -0.91866490532014   -0.81400184048970
5
 energy: -9.227024246254 gnorm: 0.022613892515 xtb: 6.2.2 (9d81278992624c895f80dd42a50cac0aa55982e2)
C        -0.04340425473358   -0.29654117085297    0.03986180706196
C         0.90602646491353    0.82581383561578   -0.15765650934303
O        -0.35128501663173    1.07953052545045   -0.11485306145671
H        -0.20099826594256   -0.68871409922658    1.03647919219060
H        -0.31033892760567   -0.92008809098668   -0.80383042845283
5
 energy: -9.227350996984 gnorm: 0.007056289334 xtb: 6.2.2 (9d81278992624c895f80dd42a50cac0aa55982e2)
C        -0.03829934585614   -0.29862838170510    0.03982097274376
C         0.89384937484819    0.82811778201715   -0.15722272620013
O        -0.34528745017130    1.08501617179984   -0.11589908187346
H        -0.20080533972497   -0.69229395474439    1.03101006644471
H        -0.30945723909579   -0.92221061736750   -0.79770823111488
5
 energy: -9.227373045888 gnorm: 0.003955960666 xtb: 6.2.2 (9d81278992624c895f80dd42a50cac0aa55982e2)
C        -0.03749813148052   -0.29882528107140    0.03979813021442
C         0.89440141612708    0.82862639909310   -0.15731947690418
O        -0.34630622489501    1.08678709987038   -0.11606119791632
H        -0.20096369011039   -0.69331644857987    1.03130065633670
H        -0.30963336964116   -0.92327076931220   -0.79771711173062
5
 energy: -9.227390555630 gnorm: 0.001407148010 xtb: 6.2.2 (9d81278992624c895f80dd42a50cac0aa55982e2)
C        -0.03390494440111   -0.29967783462968    0.03969183530674
C         0.89465854117765    0.83004478035213   -0.15751308655812
O        -0.34718288357744    1.08816529433114   -0.11618238091251
H        -0.20244903611251   -0.69428530895537    1.03153623904575
H        -0.31112167708658   -0.92424593109823   -0.79753160688187
5
 energy: -9.227394630012 gnorm: 0.000635228433 xtb: 6.2.2 (9d81278992624c895f80dd42a50cac0aa55982e2)
C        -0.03087971182757   -0.30085963243919    0.03966067247965
C         0.89443978467910    0.83059567553262   -0.15756934854427
O        -0.34754685501505    1.08773527922290   -0.11610669438638
H        -0.20367531794573   -0.69376550066099    1.03145740963792
H        -0.31233789989074   -0.92370482165534   -0.79744103918692
