 Entering Gaussian System
 *********************************************
 Gaussian 98:
 frequency output generated by the xtb code
 *********************************************
                         Standard orientation:
 --------------------------------------------------------------------
  Center     Atomic     Atomic              Coordinates (Angstroms)
  Number     Number      Type              X           Y           Z
 --------------------------------------------------------------------
    1          6             0       -0.030881   -0.300859    0.039661
    2          6             0        0.894444    0.830591   -0.157574
    3          8             0       -0.347542    1.087737   -0.116107
    4          1             0       -0.203675   -0.693763    1.031459
    5          1             0       -0.312346   -0.923705   -0.797438
 --------------------------------------------------------------------
     1 basis functions        1 primitive gaussians
     1 alpha electrons        1 beta electrons

 Harmonic frequencies (cm**-1), IR intensities (KM/Mole),
 Raman scattering activities (A**4/amu), Raman depolarization ratios,
 reduced masses (AMU), force constants (mDyne/A) and normal coordinates:
                      1                      2                      3
                        a                      a                      a 
 Frequencies --   883.4548               942.2828               968.4745
 Red. masses --     3.0576                13.3264                 5.3563
 Frc consts  --     0.0000                 0.0000                 0.0000
 IR Inten    --     0.1666                 0.5579                 0.5760
 Raman Activ --     0.0000                 0.0000                 0.0000
 Depolar     --     0.0000                 0.0000                 0.0000
 Atom AN      X      Y      Z        X      Y      Z        X      Y      Z
   1   6    -0.01  -0.03  -0.24     0.50  -0.38   0.02    -0.10   0.30  -0.03
   2   6     0.02   0.04   0.31    -0.31  -0.31   0.06     0.01  -0.44   0.05
   3   8    -0.01  -0.02  -0.15    -0.12   0.60  -0.07    -0.19   0.18  -0.01
   4   1     0.61   0.14   0.12    -0.10  -0.01  -0.00     0.55  -0.11   0.01
   5   1    -0.59  -0.10   0.22    -0.10  -0.01   0.02     0.55  -0.12  -0.05
                      4                      5                      6
                        a                      a                      a 
 Frequencies --  1096.5362              1119.9792              1402.1126
 Red. masses --     3.2323                10.2477                 2.5387
 Frc consts  --     0.0000                 0.0000                 0.0000
 IR Inten    --     0.2226                 0.4778                 0.3475
 Raman Activ --     0.0000                 0.0000                 0.0000
 Depolar     --     0.0000                 0.0000                 0.0000
 Atom AN      X      Y      Z        X      Y      Z        X      Y      Z
   1   6     0.02   0.04   0.36     0.38   0.52  -0.09     0.04   0.16  -0.02
   2   6    -0.00   0.00   0.01     0.16  -0.39   0.04     0.24   0.03  -0.02
   3   8    -0.01  -0.03  -0.23    -0.34  -0.24   0.05    -0.16   0.10  -0.00
   4   1     0.20  -0.60  -0.12    -0.24   0.23  -0.04    -0.19  -0.58  -0.26
   5   1    -0.22   0.55  -0.24    -0.24   0.24   0.01    -0.14  -0.49   0.42
                      7                      8                      9
                        a                      a                      a 
 Frequencies --  1570.1212              3077.3234              3096.3386
 Red. masses --    12.5095                 1.4155                 2.1236
 Frc consts  --     0.0000                 0.0000                 0.0000
 IR Inten    --     1.0630                 0.1214                 0.2429
 Raman Activ --     0.0000                 0.0000                 0.0000
 Depolar     --     0.0000                 0.0000                 0.0000
 Atom AN      X      Y      Z        X      Y      Z        X      Y      Z
   1   6     0.13   0.36  -0.05    -0.08  -0.17   0.03    -0.02  -0.04  -0.32
   2   6    -0.70  -0.08   0.05     0.01  -0.00  -0.00    -0.00  -0.00  -0.01
   3   8     0.50  -0.19  -0.01    -0.01  -0.00   0.00    -0.00  -0.00  -0.00
   4   1    -0.02  -0.12  -0.12     0.10   0.24  -0.65    -0.12  -0.26   0.61
   5   1    -0.00  -0.09   0.15     0.17   0.39   0.55     0.18   0.40   0.51
