      -----------------------------------------------------------      
     |                   =====================                   |     
     |                           x T B                           |     
     |                   =====================                   |     
     |                         S. Grimme                         |     
     |          Mulliken Center for Theoretical Chemistry        |     
     |                    University of Bonn                     |     
      -----------------------------------------------------------      

   * xtb version 6.2.2 (9d81278992624c895f80dd42a50cac0aa55982e2) compiled by '@Darwin' on 04/03/2020

   xtb is free software: you can redistribute it and/or modify it under
   the terms of the GNU Lesser General Public License as published by
   the Free Software Foundation, either version 3 of the License, or
   (at your option) any later version.
   
   xtb is distributed in the hope that it will be useful,
   but WITHOUT ANY WARRANTY; without even the implied warranty of
   MERCHANTABILITY or FITNESS FOR A PARTICULAR PURPOSE.  See the
   GNU Lesser General Public License for more details.
   
   Cite this work as:
   * S. Grimme, C. Bannwarth, P. Shushkov, J. Chem. Theory Comput., 2017,
     13, 1989-2009. DOI: 10.1021/acs.jctc.7b00118
   * C. Bannwarth, S. Ehlert and S. Grimme., J. Chem. Theory Comput., 2019,
     15, 1652-1671. DOI: 10.1021/acs.jctc.8b01176
   * P. Pracht, E. Caldeweyher, S. Ehlert, S. Grimme, ChemRxiv, 2019, preprint.
     DOI: 10.26434/chemrxiv.8326202.v1
   
   for DFT-D4:
   * E. Caldeweyher, C. Bannwarth and S. Grimme, J. Chem. Phys., 2017,
     147, 034112. DOI: 10.1063/1.4993215
   * E. Caldeweyher, S. Ehlert, A. Hansen, H. Neugebauer, S. Spicher,
     C. Bannwarth and S. Grimme, J. Chem. Phys., 2019, 150, 154122.
     DOI: 10.1063/1.5090222
   
   for sTDA-xTB:
   * S. Grimme and C. Bannwarth, J. Chem. Phys., 2016, 145, 054103.
     DOI: 10.1063/1.4959605
   
   in the mass-spec context:
   * V. Asgeirsson, C. Bauer and S. Grimme, Chem. Sci., 2017, 8, 4879.
     DOI: 10.1039/c7sc00601b
   
   for metadynamics refer to:
   * S. Grimme, J. Chem. Theory Comput., 2019, 155, 2847-2862
     DOI: 10.1021/acs.jctc.9b00143
   
   with help from (in alphabetical order)
   C. Bannwarth, F. Bohle, G. Brandenburg, E. Caldeweyher, M. Checinski,
   S. Dohm, S. Ehlert, S. Ehrlich, F. März, H. Neugebauer, J. Pisarek,
   P. Pracht, P. Shushkov, and S. Spicher.
   
 * started run on 2020/05/12 at 11:45:12.925     

           -------------------------------------------------
          |                Calculation Setup                |
           -------------------------------------------------

          program call               : xtb --input H2C2O1_0_S_0.input H2C2O1_0_S_0.xyz --ohess --molden --namespace H2C2O1_0_S_0 output.out
          calculation namespace      : H2C2O1_0_S_0
          coordinate file            : H2C2O1_0_S_0.xyz
          number of atoms            :                     5
          number of electrons        :                    16
          charge                     :                     0
          spin                       :                   0.0
          first test random number   :      0.67535759469906

   ID    Z sym.   atoms
    1    6 C      1, 2
    2    8 O      3
    3    1 H      4, 5

           -------------------------------------------------
          |                 G F N 2 - x T B                 |
           -------------------------------------------------

        Reference                      10.1021/acs.jctc.8b01176
      * Hamiltonian:
        H0-scaling (s, p, d)           1.850000    2.230000    2.230000
        zeta-weighting                 0.500000
      * Dispersion:
        s8                             2.700000
        a1                             0.520000
        a2                             5.000000
        s9                             5.000000
      * Repulsion:
        kExp                           1.500000    1.000000
        rExp                           1.000000
      * Coulomb:
        alpha                          2.000000
        third order                    shell-resolved
        anisotropic                    true
        a3                             3.000000
        a5                             4.000000
        cn-shift                       1.200000
        cn-exp                         4.000000
        max-rad                        5.000000


          ...................................................
          :                      SETUP                      :
          :.................................................:
          :  # basis functions                  14          :
          :  # atomic orbitals                  14          :
          :  # shells                            8          :
          :  # electrons                        16          :
          :  max. iterations                   250          :
          :  Hamiltonian                  GFN2-xTB          :
          :  restarted?                      false          :
          :  GBSA solvation                  false          :
          :  PC potential                    false          :
          :  electronic temp.          300.0000000     K    :
          :  accuracy                    1.0000000          :
          :  -> integral cutoff          0.2500000E+02      :
          :  -> integral neglect         0.1000000E-07      :
          :  -> SCF convergence          0.1000000E-05 Eh   :
          :  -> wf. convergence          0.1000000E-03 e    :
          :  Broyden damping             0.4000000          :
          ...................................................

 iter      E             dE          RMSdq      gap      omega  full diag
   1     -8.8052328 -0.880523E+01  0.119E+01    1.78       0.0  T
   2     -6.1130989  0.269213E+01  0.203E+01    2.44       1.0  T
   3     -8.6588975 -0.254580E+01  0.102E+01    2.19       1.0  T
   4     -8.7841975 -0.125300E+00  0.728E+00    1.95       1.0  T
   5     -8.8686222 -0.844247E-01  0.605E+00    1.64       1.0  T
   6     -8.9188305 -0.502083E-01  0.537E+00    1.42       1.0  T
   7     -8.9503032 -0.314727E-01  0.485E+00    1.27       1.0  T
   8     -9.1042002 -0.153897E+00  0.158E+00    0.67       1.0  T
   9     -9.1007436  0.345658E-02  0.205E+00    0.55       1.0  T
  10     -8.1466371  0.954106E+00  0.122E+01    0.57       1.0  T
  11     -7.5533034  0.593334E+00  0.156E+01    0.74       1.0  T
  12     -7.3797030  0.173600E+00  0.165E+01    0.80       1.0  T
  13     -7.9769303 -0.597227E+00  0.132E+01    0.62       1.0  T
  14     -8.8014753 -0.824545E+00  0.688E+00    0.51       1.0  T
  15     -9.0959106 -0.294435E+00  0.178E+00    0.55       1.0  T
  16     -9.0890216  0.688903E-02  0.198E+00    0.55       1.0  T
  17     -9.1138296 -0.248080E-01  0.220E-01    0.62       1.0  T
  18     -9.1130332  0.796361E-03  0.462E-01    0.60       1.0  T
  19     -9.1139190 -0.885849E-03  0.245E-01    0.61       1.0  T
  20     -9.1137671  0.151930E-03  0.294E-01    0.61       1.0  T
  21     -9.1134501  0.317034E-03  0.365E-01    0.60       1.0  T
  22     -9.1130327  0.417427E-03  0.442E-01    0.60       1.0  T
  23     -9.1130752 -0.425111E-04  0.435E-01    0.60       1.0  T
  24     -9.1133084 -0.233258E-03  0.400E-01    0.60       1.0  T
  25     -9.1134097 -0.101301E-03  0.387E-01    0.60       1.0  T
  26     -9.1133603  0.494641E-04  0.390E-01    0.60       1.0  T
  27     -9.1132737  0.865607E-04  0.373E-01    0.60       1.0  T
  28     -9.1135207 -0.247003E-03  0.267E-01    0.60       1.0  T
  29     -9.1138164 -0.295705E-03  0.161E-01    0.61       1.0  T
  30     -9.1139519 -0.135535E-03  0.855E-02    0.61       1.0  T
  31     -9.1139961 -0.441348E-04  0.379E-02    0.61       1.2  T
  32     -9.1140058 -0.968295E-05  0.123E-02    0.62       3.6  T
  33     -9.1140069 -0.114559E-05  0.205E-04    0.62     217.8  T
  34     -9.1140069  0.865568E-08  0.106E-03    0.62      42.2  T
  35     -9.1140069 -0.833830E-08  0.216E-04    0.62     207.3  T
  36     -9.1140069 -0.333397E-09  0.516E-05    0.62     866.7  T

   *** convergence criteria satisfied after 36 iterations ***

         #    Occupation            Energy/Eh            Energy/eV
      -------------------------------------------------------------
         1        2.0000           -0.7095460             -19.3077
         2        2.0000           -0.6723879             -18.2966
         3        2.0000           -0.6185125             -16.8306
         4        2.0000           -0.5749273             -15.6446
         5        2.0000           -0.5483288             -14.9208
         6        2.0000           -0.5101901             -13.8830
         7        2.0000           -0.4348360             -11.8325
         8        2.0000           -0.4275302             -11.6337 (HOMO)
         9        0.0000           -0.4048806             -11.0174 (LUMO)
        10                         -0.3975180             -10.8170
        11                          0.0621471               1.6911
        12                          0.0994689               2.7067
        13                          0.1063766               2.8947
        14                          0.1432928               3.8992
      -------------------------------------------------------------
                  HL-Gap            0.0226496 Eh            0.6163 eV
             Fermi-level           -0.4162054 Eh          -11.3255 eV

 SCC (total)                   0 d,  0 h,  0 min,  0.005 sec
 SCC setup                      ...        0 min,  0.000 sec (  1.658%)
 Dispersion                     ...        0 min,  0.000 sec (  0.233%)
 integral evaluation            ...        0 min,  0.001 sec ( 15.092%)
 zeroth order Hamiltonian       ...        0 min,  0.000 sec (  0.307%)
 iterations                     ...        0 min,  0.003 sec ( 65.767%)
 molecular gradient             ...        0 min,  0.001 sec ( 15.493%)
 printout                       ...        0 min,  0.000 sec (  1.183%)

         :::::::::::::::::::::::::::::::::::::::::::::::::::::
         ::                     SUMMARY                     ::
         :::::::::::::::::::::::::::::::::::::::::::::::::::::
         :: total energy              -9.061891303688 Eh    ::
         :: gradient norm              0.106943172817 Eh/a0 ::
         :: HOMO-LUMO gap              0.616326731364 eV    ::
         ::.................................................::
         :: SCC energy                -9.114006905026 Eh    ::
         :: -> isotropic ES            0.018187689944 Eh    ::
         :: -> anisotropic ES         -0.001868061875 Eh    ::
         :: -> anisotropic XC          0.004931515046 Eh    ::
         :: -> dispersion             -0.001304781304 Eh    ::
         :: repulsion energy           0.052115559698 Eh    ::
         :: add. restraining           0.000000000000 Eh    ::
         :::::::::::::::::::::::::::::::::::::::::::::::::::::

      ----------------------------------------------------------- 
     |                   =====================                   |
     |                        A N C O P T                        |
     |                   =====================                   |
     |               Approximate Normal Coordinate               |
     |                Rational Function Optimizer                |
      ----------------------------------------------------------- 

          ...................................................
          :                      SETUP                      :
          :.................................................:
          :   optimization level            normal          :
          :   max. optcycles                   200          :
          :   ANC micro-cycles                  20          :
          :   degrees of freedom                 9          :
          :.................................................:
          :   RF solver                   davidson          :
          :   write xtbopt.log                true          :
          :   linear?                        false          :
          :   energy convergence         0.5000000E-05 Eh   :
          :   grad. convergence          0.1000000E-02 Eh/α :
          :   maximium RF displ.         1.0000000          :
          :   Hlow (freq-cutoff)         0.1000000E-01      :
          :   Hmax (freq-cutoff)         5.0000000          :
          :   S6 in model hess.         20.0000000          :
          ...................................................

generating ANC from model Hessian ...
Using Lindh-Hessian (1995)
 Shifting diagonal of input Hessian by    0.0000000000000000     
 Lowest  eigenvalues of input Hessian
   -0.000000   -0.000000    0.000000    0.000000    0.000000    0.000000
    0.076509    0.085337    0.117178    0.120596    0.138240    0.448091
    1.027177    1.050743    1.366217
 Highest eigenvalues
    0.120596    0.138240    0.448091    1.027177    1.050743    1.366217


........................................................................
.............................. CYCLE    1 ..............................
........................................................................
   1     -9.1140069 -0.911401E+01  0.516E-06    0.62       0.0  T
   2     -9.1140069  0.158860E-10  0.457E-05    0.62     978.2  T
   3     -9.1140069 -0.159854E-10  0.273E-06    0.62   16397.4  T
     SCC iter.                  ...        0 min,  0.000 sec
     gradient                   ...        0 min,  0.001 sec
 * total energy  :    -9.0618913 Eh     change       -0.6415668E-10 Eh
   gradient norm :     0.1069434 Eh/α   predicted     0.0000000E+00 (-100.00%)
   displ. norm   :     0.3077526 α      lambda       -0.2306473E-01
   maximum displ.:     0.1792191 α      in ANC's #2, #3, #6, ...

........................................................................
.............................. CYCLE    2 ..............................
........................................................................
   1     -9.1370922 -0.913709E+01  0.281E+00    1.07       0.0  T
   2     -9.0119270  0.125165E+00  0.422E+00    1.70       1.0  T
   3     -9.0726939 -0.607669E-01  0.347E+00    0.93       1.0  T
   4     -9.1290229 -0.563291E-01  0.172E+00    1.27       1.0  T
   5     -9.1434485 -0.144256E-01  0.967E-01    1.19       1.0  T
   6     -9.1469053 -0.345686E-02  0.658E-01    1.16       1.0  T
   7     -9.1492288 -0.232343E-02  0.270E-01    1.12       1.0  T
   8     -9.1497339 -0.505106E-03  0.182E-02    1.10       2.5  T
   9     -9.1497347 -0.823896E-06  0.126E-02    1.10       3.6  T
  10     -9.1497356 -0.925326E-06  0.448E-03    1.10      10.0  T
  11     -9.1497358 -0.140931E-06  0.316E-04    1.10     141.6  T
  12     -9.1497358 -0.529814E-09  0.132E-04    1.10     339.3  T
     SCC iter.                  ...        0 min,  0.001 sec
     gradient                   ...        0 min,  0.001 sec
 * total energy  :    -9.0832729 Eh     change       -0.2138163E-01 Eh
   gradient norm :     0.0681391 Eh/α   predicted    -0.1262462E-01 ( -40.96%)
   displ. norm   :     0.9227713 α      lambda       -0.5705688E-01
   maximum displ.:     0.5935468 α      in ANC's #2, #3, #6, ...

........................................................................
.............................. CYCLE    3 ..............................
........................................................................
   1     -9.2439179 -0.924392E+01  0.648E+00    2.13       0.0  T
   2     -9.2576351 -0.137173E-01  0.347E+00    2.77       1.0  T
   3     -9.2545943  0.304080E-02  0.238E+00    1.76       1.0  T
   4     -9.2673883 -0.127940E-01  0.459E-01    2.44       1.0  T
   5     -9.2680093 -0.621066E-03  0.116E-01    2.32       1.0  T
   6     -9.2680213 -0.119578E-04  0.477E-02    2.32       1.0  T
   7     -9.2680222 -0.937452E-06  0.156E-02    2.32       2.9  T
   8     -9.2680226 -0.392695E-06  0.458E-03    2.32       9.8  T
   9     -9.2680226 -0.559807E-08  0.905E-04    2.32      49.4  T
  10     -9.2680226 -0.234333E-08  0.151E-04    2.32     295.4  T
     SCC iter.                  ...        0 min,  0.001 sec
     gradient                   ...        0 min,  0.001 sec
 * total energy  :    -9.1642969 Eh     change       -0.8102394E-01 Eh
   gradient norm :     0.2174754 Eh/α   predicted    -0.5282061E-01 ( -34.81%)
   displ. norm   :     0.8846902 α      lambda       -0.1299484E+00
   maximum displ.:     0.6206866 α      in ANC's #3, #2, #6, ...

........................................................................
.............................. CYCLE    4 ..............................
........................................................................
   1     -9.2766307 -0.927663E+01  0.973E+00    6.73       0.0  T
   2     -9.3353904 -0.587597E-01  0.475E+00    5.86       1.0  T
   3     -9.3362844 -0.894011E-03  0.193E+00    5.85       1.0  T
   4     -9.3364298 -0.145397E-03  0.226E-01    5.78       1.0  T
   5     -9.3364584 -0.286468E-04  0.966E-02    5.80       1.0  T
   6     -9.3364630 -0.450639E-05  0.327E-02    5.81       1.4  T
   7     -9.3364632 -0.266053E-06  0.702E-03    5.81       6.4  T
   8     -9.3364633 -0.101481E-06  0.209E-03    5.81      21.4  T
   9     -9.3364633 -0.662828E-09  0.393E-04    5.81     113.7  T
  10     -9.3364633 -0.383181E-09  0.476E-05    5.81     938.8  T
     SCC iter.                  ...        0 min,  0.001 sec
     gradient                   ...        0 min,  0.001 sec
 * total energy  :    -9.0234129 Eh     change        0.1408840E+00 Eh
   gradient norm :     1.4154559 Eh/α   predicted    -0.1158280E+00 (-182.22%)
   displ. norm   :     0.5248264 α      lambda       -0.7334761E+00
   maximum displ.:     0.2885615 α      in ANC's #6, #3, #8, ...

........................................................................
.............................. CYCLE    5 ..............................
........................................................................
   1     -9.2509193 -0.925092E+01  0.620E+00    2.61       0.0  T
   2     -9.2853424 -0.344231E-01  0.281E+00    2.97       1.0  T
   3     -9.2866157 -0.127332E-02  0.170E+00    2.99       1.0  T
   4     -9.2871334 -0.517624E-03  0.588E-01    2.97       1.0  T
   5     -9.2887984 -0.166504E-02  0.122E-01    3.05       1.0  T
   6     -9.2887904  0.796288E-05  0.757E-02    3.05       1.0  T
   7     -9.2888048 -0.144004E-04  0.298E-02    3.05       1.5  T
   8     -9.2888088 -0.400335E-05  0.468E-03    3.05       9.6  T
   9     -9.2888089 -0.663860E-07  0.117E-03    3.05      38.3  T
  10     -9.2888089 -0.273816E-08  0.273E-04    3.05     163.8  T
  11     -9.2888089 -0.217309E-09  0.291E-05    3.05    1536.0  T
     SCC iter.                  ...        0 min,  0.001 sec
     gradient                   ...        0 min,  0.001 sec
 * total energy  :    -9.2171625 Eh     change       -0.1937496E+00 Eh
   gradient norm :     0.1301874 Eh/α   predicted    -0.4677534E+00 ( 141.42%)
   displ. norm   :     0.1408438 α      lambda       -0.1234516E-01
   maximum displ.:     0.1253658 α      in ANC's #8, #3, #9, ...

........................................................................
.............................. CYCLE    6 ..............................
........................................................................
   1     -9.2993970 -0.929940E+01  0.794E-01    3.13       0.0  T
   2     -9.2997244 -0.327375E-03  0.435E-01    3.17       1.0  T
   3     -9.2997209  0.350017E-05  0.285E-01    3.12       1.0  T
   4     -9.2998512 -0.130346E-03  0.553E-02    3.12       1.0  T
   5     -9.2998571 -0.588260E-05  0.189E-02    3.12       2.4  T
   6     -9.2998572 -0.101891E-06  0.605E-03    3.12       7.4  T
   7     -9.2998572 -0.108109E-07  0.723E-04    3.12      61.8  T
   8     -9.2998572 -0.540304E-09  0.326E-04    3.12     137.0  T
     SCC iter.                  ...        0 min,  0.001 sec
     gradient                   ...        0 min,  0.001 sec
 * total energy  :    -9.2227278 Eh     change       -0.5565345E-02 Eh
   gradient norm :     0.0679864 Eh/α   predicted    -0.6295027E-02 (  13.11%)
   displ. norm   :     0.1940516 α      lambda       -0.6138952E-02
   maximum displ.:     0.1667262 α      in ANC's #5, #3, #6, ...

........................................................................
.............................. CYCLE    7 ..............................
........................................................................
   1     -9.3003457 -0.930035E+01  0.642E-01    3.31       0.0  T
   2     -9.3006471 -0.301435E-03  0.334E-01    3.26       1.0  T
   3     -9.3006623 -0.152347E-04  0.171E-01    3.27       1.0  T
   4     -9.3006678 -0.543045E-05  0.269E-02    3.27       1.7  T
   5     -9.3006687 -0.944362E-06  0.137E-02    3.27       3.3  T
   6     -9.3006691 -0.385093E-06  0.396E-03    3.27      11.3  T
   7     -9.3006691 -0.467730E-08  0.367E-04    3.27     121.9  T
   8     -9.3006691 -0.181203E-09  0.160E-04    3.27     280.2  T
     SCC iter.                  ...        0 min,  0.001 sec
     gradient                   ...        0 min,  0.001 sec
 * total energy  :    -9.2255568 Eh     change       -0.2829001E-02 Eh
   gradient norm :     0.0491100 Eh/α   predicted    -0.3185062E-02 (  12.59%)
   displ. norm   :     0.0506682 α      lambda       -0.2086685E-02
   maximum displ.:     0.0345261 α      in ANC's #5, #6, #2, ...

........................................................................
.............................. CYCLE    8 ..............................
........................................................................
   1     -9.3077716 -0.930777E+01  0.393E-01    3.37       0.0  T
   2     -9.3078406 -0.690086E-04  0.199E-01    3.35       1.0  T
   3     -9.3078405  0.140507E-06  0.989E-02    3.34       1.0  T
   4     -9.3078469 -0.642557E-05  0.209E-02    3.35       2.1  T
   5     -9.3078485 -0.163320E-05  0.649E-03    3.34       6.9  T
   6     -9.3078485 -0.233201E-07  0.762E-04    3.34      58.7  T
   7     -9.3078485 -0.265052E-09  0.283E-04    3.34     158.0  T
     SCC iter.                  ...        0 min,  0.001 sec
     gradient                   ...        0 min,  0.001 sec
 * total energy  :    -9.2270242 Eh     change       -0.1467402E-02 Eh
   gradient norm :     0.0221484 Eh/α   predicted    -0.1046021E-02 ( -28.72%)
   displ. norm   :     0.0346846 α      lambda       -0.6864576E-03
   maximum displ.:     0.0214960 α      in ANC's #2, #6, #5, ...

........................................................................
.............................. CYCLE    9 ..............................
........................................................................
   1     -9.3127263 -0.931273E+01  0.290E-01    3.43       0.0  T
   2     -9.3127645 -0.381889E-04  0.150E-01    3.41       1.0  T
   3     -9.3127647 -0.177572E-06  0.749E-02    3.41       1.0  T
   4     -9.3127686 -0.385653E-05  0.155E-02    3.41       2.9  T
   5     -9.3127694 -0.808468E-06  0.561E-03    3.41       8.0  T
   6     -9.3127694 -0.129494E-07  0.796E-04    3.41      56.2  T
   7     -9.3127694 -0.275097E-09  0.203E-04    3.41     220.4  T
     SCC iter.                  ...        0 min,  0.001 sec
     gradient                   ...        0 min,  0.001 sec
 * total energy  :    -9.2273510 Eh     change       -0.3267507E-03 Eh
   gradient norm :     0.0069656 Eh/α   predicted    -0.3436410E-03 (   5.17%)
   displ. norm   :     0.0052657 α      lambda       -0.2927808E-04
   maximum displ.:     0.0037424 α      in ANC's #6, #9, #2, ...

........................................................................
.............................. CYCLE   10 ..............................
........................................................................
   1     -9.3120834 -0.931208E+01  0.307E-02    3.39       0.0  T
   2     -9.3120846 -0.113069E-05  0.158E-02    3.40       2.8  T
   3     -9.3120848 -0.235854E-06  0.923E-03    3.40       4.8  T
   4     -9.3120848 -0.478486E-07  0.256E-03    3.40      17.5  T
   5     -9.3120848 -0.154927E-07  0.598E-04    3.40      74.8  T
   6     -9.3120848 -0.141252E-09  0.203E-04    3.40     220.5  T
     SCC iter.                  ...        0 min,  0.001 sec
     gradient                   ...        0 min,  0.001 sec
 * total energy  :    -9.2273730 Eh     change       -0.2204890E-04 Eh
   gradient norm :     0.0038746 Eh/α   predicted    -0.1463948E-04 ( -33.60%)
   displ. norm   :     0.0094199 α      lambda       -0.2860249E-04
   maximum displ.:     0.0059773 α      in ANC's #9, #2, #5, ...

........................................................................
.............................. CYCLE   11 ..............................
........................................................................
   1     -9.3114689 -0.931147E+01  0.435E-02    3.39       0.0  T
   2     -9.3114706 -0.161609E-05  0.247E-02    3.39       1.8  T
   3     -9.3114709 -0.388732E-06  0.149E-02    3.39       3.0  T
   4     -9.3114711 -0.173693E-06  0.284E-03    3.39      15.8  T
   5     -9.3114711 -0.192716E-07  0.107E-03    3.39      41.8  T
   6     -9.3114711 -0.309406E-09  0.168E-04    3.39     266.4  T
   7     -9.3114711 -0.165841E-10  0.191E-05    3.39    2346.2  T
     SCC iter.                  ...        0 min,  0.000 sec
     gradient                   ...        0 min,  0.001 sec
 * total energy  :    -9.2273906 Eh     change       -0.1750974E-04 Eh
   gradient norm :     0.0013862 Eh/α   predicted    -0.1430289E-04 ( -18.31%)
   displ. norm   :     0.0072669 α      lambda       -0.5414957E-05
   maximum displ.:     0.0049155 α      in ANC's #5, #9, #8, ...

........................................................................
.............................. CYCLE   12 ..............................
........................................................................
   1     -9.3114986 -0.931150E+01  0.277E-02    3.39       0.0  T
   2     -9.3114990 -0.403324E-06  0.165E-02    3.39       2.7  T
   3     -9.3114991 -0.538602E-07  0.100E-02    3.39       4.5  T
   4     -9.3114992 -0.115345E-06  0.141E-03    3.39      31.7  T
   5     -9.3114992 -0.383126E-08  0.728E-04    3.39      61.5  T
   6     -9.3114992 -0.124274E-09  0.140E-04    3.39     320.4  T
     SCC iter.                  ...        0 min,  0.000 sec
     gradient                   ...        0 min,  0.001 sec
 * total energy  :    -9.2273946 Eh     change       -0.4074383E-05 Eh
   gradient norm :     0.0006332 Eh/α   predicted    -0.2708745E-05 ( -33.52%)
   displ. norm   :     0.0023046 α      lambda       -0.8170581E-06
   maximum displ.:     0.0015552 α      in ANC's #6, #2, #5, ...

   *** GEOMETRY OPTIMIZATION CONVERGED AFTER 12 ITERATIONS ***

------------------------------------------------------------------------
 total energy gain   :        -0.1655033 Eh     -103.8549 kcal/mol
 total RMSD          :         0.7683290 a0        0.4066 Å
 total power (kW/mol):       -36.2107436 (step)********** (real)
------------------------------------------------------------------------

 ANCopt (total)                0 d,  0 h,  0 min,  0.028 sec
 optimizer setup                ...        0 min,  0.000 sec (  0.323%)
 model hessian                  ...        0 min,  0.000 sec (  0.370%)
 ANC generation                 ...        0 min,  0.000 sec (  0.206%)
 coordinate transformation      ...        0 min,  0.000 sec (  0.108%)
 single point calculation       ...        0 min,  0.027 sec ( 94.901%)
 optimization log               ...        0 min,  0.000 sec (  1.213%)
 hessian update                 ...        0 min,  0.000 sec (  0.119%)
 rational function              ...        0 min,  0.000 sec (  1.159%)

================
 final structure:
================
5
 xtb: 6.2.2 (9d81278992624c895f80dd42a50cac0aa55982e2)
C        -0.03087971182757   -0.30085963243919    0.03966067247965
C         0.89443978467910    0.83059567553262   -0.15756934854427
O        -0.34754685501505    1.08773527922290   -0.11610669438638
H        -0.20367531794573   -0.69376550066099    1.03145740963792
H        -0.31233789989074   -0.92370482165534   -0.79744103918692

 Bond Distances (Angstroems)
 ---------------------------
C1-C2=1.4749         C1-O3=1.4327         C1-H4=1.0807         C1-H5=1.0807         C2-C1=1.4749         C2-O3=1.2690         
O3-C1=1.4327         O3-C2=1.2690         H4-C1=1.0807         H5-C1=1.0807         
 C  H  Rav=1.0807 sigma=0.0000  Rmin=1.0807  Rmax=1.0807     2
 C  C  Rav=1.4749 sigma=0.0000  Rmin=1.4749  Rmax=1.4749     1
 O  C  Rav=1.3509 sigma=0.0819  Rmin=1.2690  Rmax=1.4327     2

 selected bond angles (degree)
 --------------------
O3-C1-C2= 51.73                H4-C1-C2=120.13                H4-C1-O3=114.63                H5-C1-C2=120.13                
H5-C1-O3=114.63                H5-C1-H4=117.37                O3-C2-C1= 62.42                C2-O3-C1= 65.85                

 selected dihedral angles (degree)
 ---------------------------------
O3-C2-C1-H4=261.03            O3-C2-C1-H5= 98.97            C2-O3-C1-H4=109.98            C2-O3-C1-H5=250.02            
           -------------------------------------------------
          |                Final Singlepoint                |
           -------------------------------------------------

          ...................................................
          :                      SETUP                      :
          :.................................................:
          :  # basis functions                  14          :
          :  # atomic orbitals                  14          :
          :  # shells                            8          :
          :  # electrons                        16          :
          :  max. iterations                   250          :
          :  Hamiltonian                  GFN2-xTB          :
          :  restarted?                      false          :
          :  GBSA solvation                  false          :
          :  PC potential                    false          :
          :  electronic temp.          300.0000000     K    :
          :  accuracy                    1.0000000          :
          :  -> integral cutoff          0.2500000E+02      :
          :  -> integral neglect         0.1000000E-07      :
          :  -> SCF convergence          0.1000000E-05 Eh   :
          :  -> wf. convergence          0.1000000E-03 e    :
          :  Broyden damping             0.4000000          :
          ...................................................

 iter      E             dE          RMSdq      gap      omega  full diag
   1     -9.3114992 -0.931150E+01  0.245E-05    3.39       0.0  T
   2     -9.3114992 -0.497380E-13  0.149E-05    3.39    2997.5  T
   3     -9.3114992  0.177636E-13  0.467E-06    3.39    9580.1  T

   *** convergence criteria satisfied after 3 iterations ***

         #    Occupation            Energy/Eh            Energy/eV
      -------------------------------------------------------------
         1        2.0000           -0.7746468             -21.0792
         2        2.0000           -0.6633868             -18.0517
         3        2.0000           -0.6453578             -17.5611
         4        2.0000           -0.6021566             -16.3855
         5        2.0000           -0.5649527             -15.3731
         6        2.0000           -0.4881448             -13.2831
         7        2.0000           -0.4850220             -13.1981
         8        2.0000           -0.4312835             -11.7358 (HOMO)
         9                         -0.3067304              -8.3466 (LUMO)
        10                         -0.1012767              -2.7559
        11                          0.0623374               1.6963
        12                          0.1658503               4.5130
        13                          0.2450885               6.6692
        14                          0.3941583              10.7256
      -------------------------------------------------------------
                  HL-Gap            0.1245531 Eh            3.3893 eV
             Fermi-level           -0.3690069 Eh          -10.0412 eV

 SCC (total)                   0 d,  0 h,  0 min,  0.002 sec
 SCC setup                      ...        0 min,  0.000 sec (  2.683%)
 Dispersion                     ...        0 min,  0.000 sec (  0.561%)
 integral evaluation            ...        0 min,  0.001 sec ( 34.695%)
 zeroth order Hamiltonian       ...        0 min,  0.000 sec (  0.617%)
 iterations                     ...        0 min,  0.000 sec ( 22.741%)
 molecular gradient             ...        0 min,  0.001 sec ( 35.582%)
 printout                       ...        0 min,  0.000 sec (  2.638%)

         :::::::::::::::::::::::::::::::::::::::::::::::::::::
         ::                     SUMMARY                     ::
         :::::::::::::::::::::::::::::::::::::::::::::::::::::
         :: total energy              -9.227394626931 Eh    ::
         :: gradient norm              0.000635274384 Eh/a0 ::
         :: HOMO-LUMO gap              3.389262577369 eV    ::
         ::.................................................::
         :: SCC energy                -9.311499207489 Eh    ::
         :: -> isotropic ES            0.000528305776 Eh    ::
         :: -> anisotropic ES          0.000964618949 Eh    ::
         :: -> anisotropic XC          0.002552145017 Eh    ::
         :: -> dispersion             -0.001342958470 Eh    ::
         :: repulsion energy           0.084104561578 Eh    ::
         :: add. restraining           0.000000000000 Eh    ::
         :::::::::::::::::::::::::::::::::::::::::::::::::::::

           ------------------------------------------------- 
          |                Numerical Hessian                |
           ------------------------------------------------- 
step length          :   0.00500
SCC accuracy         :   0.30000
Hessian scale factor :   1.00000
frozen atoms in %    :   0.00000    0
RMS gradient         :   0.00064
estimated CPU  time      0.00 min
estimated wall time      0.00 min

writing file <hessian>.

 projected vibrational frequencies (cm-1)
eigval :       -0.00    -0.00    -0.00     0.00     0.00     0.00
eigval :      883.45   942.28   968.47  1096.54  1119.98  1402.11
eigval :     1570.12  3077.32  3096.34
           -------------------------------------------------
          |                Property Printout                |
           -------------------------------------------------

    * Orbital Energies and Occupations

         #    Occupation            Energy/Eh            Energy/eV
      -------------------------------------------------------------
         1        2.0000           -0.7746468             -21.0792
         2        2.0000           -0.6633867             -18.0517
         3        2.0000           -0.6453578             -17.5611
         4        2.0000           -0.6021566             -16.3855
         5        2.0000           -0.5649526             -15.3731
         6        2.0000           -0.4881448             -13.2831
         7        2.0000           -0.4850220             -13.1981
         8        2.0000           -0.4312835             -11.7358 (HOMO)
         9                         -0.3067304              -8.3466 (LUMO)
        10                         -0.1012767              -2.7559
        11                          0.0623374               1.6963
        12                          0.1658503               4.5130
        13                          0.2450885               6.6692
        14                          0.3941582              10.7256
      -------------------------------------------------------------
                  HL-Gap            0.1245531 Eh            3.3893 eV
             Fermi-level           -0.3690070 Eh          -10.0412 eV

     #   Z        covCN         q      C6AA      α(0)
     1   6 C      3.677     0.054    19.880     6.388
     2   6 C      1.833    -0.021    31.725     9.100
     3   8 O      1.703    -0.133    16.307     5.452
     4   1 H      0.926     0.050     2.324     2.384
     5   1 H      0.926     0.050     2.324     2.384

 Mol. C6AA /au·bohr⁶  :        293.354897
 Mol. C8AA /au·bohr⁸  :       6852.108905
 Mol. α(0) /au        :         25.707913


Wiberg/Mayer (AO) data.
largest (>0.10) Wiberg bond orders for each atom
          total WBO             WBO to atom ...
     1  C   3.814        C    2 0.985    H    4 0.975    H    5 0.975    O    3 0.880
     2  C   2.546        O    3 1.553    C    1 0.985
     3  O   2.469        C    2 1.553    C    1 0.880
     4  H   0.998        C    1 0.975
     5  H   0.998        C    1 0.975

MOs/occ written to file <molden.input>


molecular dipole:
                 x           y           z       tot (Debye)
 q only:       -0.000      -0.488       0.061
   full:       -0.559      -0.591       0.107       2.085
Molecule has the following symmetry elements: (sigma) 
It seems to be the Cs point group
molecular quadrupole (traceless):
                xx          xy          yy          xz          yz          zz
 q only:       -0.060       0.301      -0.458      -0.003       0.107       0.518
  q+dip:       -1.900      -0.333      -0.788       0.319       0.467       2.689
   full:       -2.574      -0.655      -0.605       0.430       0.526       3.179

           -------------------------------------------------
          |                Geometry Summary                 |
           -------------------------------------------------

      molecular mass/u    :       42.0367582
   center of mass at/Å    :        0.1020879       0.5265700      -0.0722698
  moments of inertia/u·Å² :        0.1279206E+02   0.2020028E+02   0.2955572E+02
rotational constants/cm⁻¹ :        0.1317820E+01   0.8345247E+00   0.5703679E+00

 * 4 selected distances

     #   Z        #   Z                                     value/Å
     1   6 C      3   8 O                                 1.4327377 (max)
     2   6 C      3   8 O                                 1.2690038
     1   6 C      4   1 H                                 1.0806915 (min)
     1   6 C      5   1 H                                 1.0806915

 * 2 distinct bonds (by element types)

   Z      Z             #   av. dist./Å        max./Å        min./Å
   1 H    6 C           2     1.0806915     1.0806915     1.0806915
   6 C    8 O           2     1.3508708     1.4327377     1.2690038

           -------------------------------------------------
          |               Frequency Printout                |
           -------------------------------------------------
 projected vibrational frequencies (cm-1)
eigval :       -0.00    -0.00    -0.00     0.00     0.00     0.00
eigval :      883.45   942.28   968.47  1096.54  1119.98  1402.11
eigval :     1570.12  3077.32  3096.34
 reduced masses (amu)
   1: 13.04   2: 12.29   3: 11.59   4: 13.87   5: 12.40   6:  9.11   7:  3.06   8: 13.33
   9:  5.36  10:  3.23  11: 10.25  12:  2.54  13: 12.51  14:  1.42  15:  2.12
 IR intensities (amu)
   1:  0.26   2:  0.23   3:  0.08   4:  0.14   5:  0.08   6:  0.31   7:  0.17   8:  0.56
   9:  0.58  10:  0.22  11:  0.48  12:  0.35  13:  1.06  14:  0.12  15:  0.24
 Raman intensities (amu)
   1:  0.00   2:  0.00   3:  0.00   4:  0.00   5:  0.00   6:  0.00   7:  0.00   8:  0.00
   9:  0.00  10:  0.00  11:  0.00  12:  0.00  13:  0.00  14:  0.00  15:  0.00
 output can be read by thermo (or use thermo option).
 writing <g98.out> molden fake output.
 recommended (thermochemical) frequency scaling factor: 1.0
           -------------------------------------------------
          |             Thermodynamic Functions             |
           -------------------------------------------------

cs  symmetry found (for desy threshold:  0.10E+00) used in thermo

          ...................................................
          :                      SETUP                      :
          :.................................................:
          :  # frequencies                           9      :
          :  # imaginary freq.                       0      :
          :  linear?                             false      :
          :  only rotor calc.                    false      :
          :  symmetry                               cs      :
          :  rotational number                       1      :
          :  scaling factor                  1.0000000      :
          :  rotor cutoff                   50.0000000 cm⁻¹ :
          :  imag. cutoff                  -20.0000000 cm⁻¹ :
          :.................................................:

    mode    ω/cm⁻¹     T·S(HO)/kcal·mol⁻¹    T·S(FR)/kcal·mol⁻¹   T·S(vib)
   ------------------------------------------------------------------------
   ------------------------------------------------------------------------

   temp. (K)  partition function   enthalpy   heat capacity  entropy
                                   cal/mol     cal/K/mol   cal/K/mol   J/K/mol
 298.15  VIB   1.05                  128.279      2.091      0.521
         ROT  0.668E+04              888.752      2.981     20.481
         INT  0.699E+04             1017.032      5.072     21.002
         TR   0.264E+27             1481.254      4.968     37.118
         TOT                        2498.2856    10.0401    58.1197   243.1728

   temp. (K)  partition function   enthalpy   heat capacity  entropy
                                   cal/mol     cal/K/mol   cal/K/mol   J/K/mol
 120.00  VIB   1.00                    0.133      0.012      0.001
         ROT  0.170E+04              357.707      2.981     17.768
         INT  0.170E+04              357.840      2.993     17.769
         TR   0.673E+26              596.178      4.968     32.599
         TOT                         954.0178     7.9614    50.3681   210.7401

   temp. (K)  partition function   enthalpy   heat capacity  entropy
                                   cal/mol     cal/K/mol   cal/K/mol   J/K/mol
 100.00  VIB   1.00                    0.014      0.002      0.000
         ROT  0.130E+04              298.089      2.981     17.225
         INT  0.130E+04              298.103      2.983     17.225
         TR   0.512E+26              496.815      4.968     31.693
         TOT                         794.9183     7.9509    48.9182   204.6737

   temp. (K)  partition function   enthalpy   heat capacity  entropy
                                   cal/mol     cal/K/mol   cal/K/mol   J/K/mol
  80.00  VIB   1.00                    0.001      0.000     -0.000
         ROT   928.                  238.471      2.981     16.560
         INT   928.                  238.472      2.981     16.560
         TR   0.367E+26              397.452      4.968     30.585
         TOT                         635.9237     7.9491    47.1448   197.2539

   temp. (K)  partition function   enthalpy   heat capacity  entropy
                                   cal/mol     cal/K/mol   cal/K/mol   J/K/mol
  60.00  VIB   1.00                    0.000      0.000     -0.000
         ROT   603.                  178.853      2.981     15.702
         INT   603.                  178.853      2.981     15.702
         TR   0.238E+26              298.089      4.968     29.157
         TOT                         476.9424     7.9490    44.8587   187.6888

   temp. (K)  partition function   enthalpy   heat capacity  entropy
                                   cal/mol     cal/K/mol   cal/K/mol   J/K/mol
  40.00  VIB   1.00                    0.000      0.000     -0.000
         ROT   328.                  119.236      2.981     14.493
         INT   328.                  119.236      2.981     14.493
         TR   0.130E+26              198.726      4.968     27.143
         TOT                         317.9616     7.9490    41.6366   174.2075

   temp. (K)  partition function   enthalpy   heat capacity  entropy
                                   cal/mol     cal/K/mol   cal/K/mol   J/K/mol
  20.00  VIB   1.00                    0.000      0.000     -0.000
         ROT   116.                   59.618      2.981     12.427
         INT   116.                   59.618      2.981     12.427
         TR   0.458E+25               99.363      4.968     23.701
         TOT                         158.9808     7.9490    36.1284   151.1612

   temp. (K)  partition function   enthalpy   heat capacity  entropy
                                   cal/mol     cal/K/mol   cal/K/mol   J/K/mol
  10.00  VIB   1.00                    0.000      0.000     -0.000
         ROT   41.0                   29.809      2.981     10.361
         INT   41.0                   29.809      2.981     10.361
         TR   0.162E+25               49.681      4.968     20.259
         TOT                          79.4904     7.9490    30.6202   128.1149

       T/K    H(0)-H(T)+PV         H(T)/Eh          T*S/Eh         G(T)/Eh
   ------------------------------------------------------------------------
    298.15    0.398127E-02    0.362324E-01    0.276145E-01    0.861789E-02
    120.00    0.152032E-02    0.337715E-01    0.963200E-02    0.241395E-01
    100.00    0.126678E-02    0.335179E-01    0.779561E-02    0.257223E-01
     80.00    0.101341E-02    0.332646E-01    0.601040E-02    0.272542E-01
     60.00    0.760056E-03    0.330112E-01    0.428921E-02    0.287220E-01
     40.00    0.506704E-03    0.327579E-01    0.265409E-02    0.301038E-01
     20.00    0.253352E-03    0.325045E-01    0.115149E-02    0.313530E-01
     10.00    0.126676E-03    0.323778E-01    0.487964E-03    0.318899E-01 (used)
   ------------------------------------------------------------------------

         :::::::::::::::::::::::::::::::::::::::::::::::::::::
         ::                  THERMODYNAMIC                  ::
         :::::::::::::::::::::::::::::::::::::::::::::::::::::
         :: total free energy          -9.195504753925 Eh   ::
         ::.................................................::
         :: total energy               -9.227394626936 Eh   ::
         :: zero point energy           0.032251161057 Eh   ::
         :: G(RRHO) w/o ZPVE           -0.000361288045 Eh   ::
         :: G(RRHO) contrib.            0.031889873012 Eh   ::
         :::::::::::::::::::::::::::::::::::::::::::::::::::::

optimized geometry written to: xtbopt.xyz


           -------------------------------------------------
          | TOTAL ENERGY               -9.227394626936 Eh   |
          | TOTAL ENTHALPY             -9.195016789864 Eh   |
          | TOTAL FREE ENERGY          -9.195504753925 Eh   |
          | GRADIENT NORM               0.000635299650 Eh/α |
          | HOMO-LUMO GAP               3.389262402682 eV   |
           -------------------------------------------------

------------------------------------------------------------------------
 * finished run on 2020/05/12 at 11:45:13.040     
------------------------------------------------------------------------
 total:
 * wall-time:     0 d,  0 h,  0 min,  0.114 sec
 *  cpu-time:     0 d,  0 h,  0 min,  0.113 sec
 * ratio c/w:     0.992 speedup
 SCF:
 * wall-time:     0 d,  0 h,  0 min,  0.005 sec
 *  cpu-time:     0 d,  0 h,  0 min,  0.005 sec
 * ratio c/w:     1.022 speedup
 ANC optimizer:
 * wall-time:     0 d,  0 h,  0 min,  0.031 sec
 *  cpu-time:     0 d,  0 h,  0 min,  0.031 sec
 * ratio c/w:     0.996 speedup
 numerical hessian:
 * wall-time:     0 d,  0 h,  0 min,  0.060 sec
 *  cpu-time:     0 d,  0 h,  0 min,  0.060 sec
 * ratio c/w:     0.994 speedup

