[Molden Format]
[Title]
[Atoms] AU
C      1     6 -0.58356908005180E-01 -0.56854181815863E+00  0.74948997938780E-01
C      2     6  0.16902532501546E+01  0.15695888316076E+01 -0.29777152629317E+00
O      3     8 -0.65675831371907E+00  0.20555246389747E+01 -0.21941112827545E+00
H      4     1 -0.38489059414635E+00 -0.13110212521132E+01  0.19491754642674E+01
H      5     1 -0.59024743426748E+00 -0.17455485105812E+01 -0.15069399179149E+01
[GTO]
           1 0
 s           4   1.0000000000000000     
   51.049363095579913      -0.16312063210127389     
   8.7911227406887544      -0.19911024581000730     
  0.70640422258929825       0.31882047753655751     
  0.26922813413411617       0.12706504184240380     
 p           4   1.0000000000000000     
   5.8263656140800002       0.73716451545209605     
   1.5106896018720002       0.68216371614850257     
  0.53256483288000001       0.35783053929253711     
  0.21202323690600003        5.3983030275847881E-002

           2 0
 s           4   1.0000000000000000     
   51.049363095579913      -0.16312063210127389     
   8.7911227406887544      -0.19911024581000730     
  0.70640422258929825       0.31882047753655751     
  0.26922813413411617       0.12706504184240380     
 p           4   1.0000000000000000     
   5.8263656140800002       0.73716451545209605     
   1.5106896018720002       0.68216371614850257     
  0.53256483288000001       0.35783053929253711     
  0.21202323690600003        5.3983030275847881E-002

           3 0
 s           4   1.0000000000000000     
   69.137961906196551      -0.20478756370077797     
   11.906129132707308      -0.24997023136827334     
  0.95670827744340703       0.40025880240639616     
  0.36462520496073686       0.15952206667693555     
 p           4   1.0000000000000000     
   8.2124193257781641        1.1321556799186829     
   2.1293576997098116        1.0476840782254817     
  0.75066448202360914       0.54956508217158984     
  0.29885246543283073        8.2908486592766617E-002

           4 0
 s           3   1.0000000000000000     
   3.3702276975336001       0.27359110588908298     
  0.61389118221497996       0.26460540653860526     
  0.16614291148415999        8.2465947534082318E-002

           5 0
 s           3   1.0000000000000000     
   3.3702276975336001       0.27359110588908298     
  0.61389118221497996       0.26460540653860526     
  0.16614291148415999        8.2465947534082318E-002

[MO]
Sym=     1a
Ene=  -0.77464684205029033     
Spin= Alpha
Occup=     2.00000000
           1 -0.18348079694457856     
           2  -4.7370221736719731E-003
           3 -0.15343701946700974     
           4   1.9572655138950429E-002
           5 -0.26866731426778456     
           6  0.16168313760207001     
           7  -7.0894322056146526E-003
           8  -8.7156178859733157E-003
           9 -0.63126847540298436     
          10 -0.16909386995565223     
          11  0.11088058223857433     
          12  -3.8933867897085464E-003
          13  -9.7554574252969994E-003
          14  -9.7554577117712326E-003
Sym=     2a
Ene=  -0.66338674653696439     
Spin= Alpha
Occup=     2.00000000
           1  0.39264492204901186     
           2   6.0109173324112856E-002
           3   3.4158852037684664E-002
           4  -7.8662772654445635E-003
           5  0.14865417208835660     
           6   2.5253377456771250E-002
           7 -0.21222179426179022     
           8   2.5181515669136734E-002
           9 -0.53366958334790471     
          10  0.15755236346013884     
          11 -0.45550651861917663     
          12   4.7908012416294207E-002
          13  0.12296930476323013     
          14  0.12296929965384522     
Sym=     3a
Ene=  -0.64535783854406603     
Spin= Alpha
Occup=     2.00000000
           1  0.19654350941196300     
           2 -0.22804551632036901     
           3   2.2853094451297622E-002
           4   1.0676841702153645E-002
           5 -0.41194272864053938     
           6   2.4759052516554643E-002
           7 -0.11759238571274057     
           8   1.3313395474305774E-002
           9  0.32237084379612940     
          10 -0.57610267474913102     
          11 -0.23005922642617166     
          12   6.3155752544688248E-002
          13   8.6719451130893965E-002
          14   8.6719453750467218E-002
Sym=     4a
Ene=  -0.60215664951200620     
Spin= Alpha
Occup=     2.00000000
           1  -1.8169475278902221E-009
           2   2.0324390369369474E-002
           3   4.3005655418553057E-002
           4  0.34205563219074364     
           5  -9.2679520369920847E-009
           6   1.8792307283003275E-002
           7   3.9763817148626437E-002
           8  0.31627089282210813     
           9   2.9134814794449816E-008
          10   3.9304064266122596E-002
          11   8.3165936411736724E-002
          12  0.66147991185115518     
          13  0.16145410966597248     
          14 -0.16145411147658978     
Sym=     5a
Ene=  -0.56495263952263186     
Spin= Alpha
Occup=     2.00000000
           1  0.29275285267529172     
           2   1.7403095903550908E-002
           3 -0.43054674613742017     
           4   5.3097319796996625E-002
           5   4.0109555901859856E-002
           6   7.4307960025122360E-003
           7  0.12588476522868877     
           8  -1.6268649729084445E-002
           9   9.5822312674501600E-002
          10   6.0966381600674677E-002
          11  0.45995085818485221     
          12  -6.1450803190482267E-002
          13  0.30335268222213457     
          14  0.30335267607260946     
Sym=     6a
Ene=  -0.48814483645292828     
Spin= Alpha
Occup=     2.00000000
           1  -4.3926259578792218E-002
           2 -0.42703265835431720     
           3  -1.8562566052729736E-002
           4   2.7707408558361759E-002
           5 -0.41255044685808873     
           6 -0.40404760829929259     
           7  0.34843037542403865     
           8  -1.9799268367387993E-002
           9 -0.17488431029458054     
          10  0.44676206664350859     
          11 -0.21483454551172187     
          12   4.6463569074316240E-004
          13   5.2337201203197105E-002
          14   5.2337208623435459E-002
Sym=     7a
Ene=  -0.48502200362635495     
Spin= Alpha
Occup=     2.00000000
           1  -3.0787179317207557E-009
           2   2.6994644445704499E-002
           3   5.7119645438993775E-002
           4  0.45431460408391311     
           5  -2.3635271950512703E-009
           6  -1.1195302131000520E-002
           7  -2.3688825945583782E-002
           8 -0.18841469947916703     
           9  -1.1640959050525892E-008
          10  -3.1964310258987383E-002
          11  -6.7635282245829639E-002
          12 -0.53795317435151990     
          13  0.40183516768041805     
          14 -0.40183517195286644     
Sym=     8a
Ene=  -0.43128352646759921     
Spin= Alpha
Occup=     2.00000000
           1   7.4656915674700286E-002
           2  0.47699551899748632     
           3  -5.4074437134229297E-002
           4  -2.1543688458401565E-002
           5 -0.53901746656450300     
           6 -0.49527011579295938     
           7 -0.40589474804517756     
           8   8.0460114578413081E-002
           9   4.3674145695555840E-002
          10  0.11989579615959627     
          11  0.19768510877351841     
          12  -3.1978385530317371E-002
          13  -6.6048416466454402E-002
          14  -6.6048416855402053E-002
Sym=     9a
Ene=  -0.30673042501929482     
Spin= Alpha
Occup=     0.00000000
           1  -3.7448196399277893E-010
           2  -1.2676128510337324E-003
           3  -2.6822241930159509E-003
           4  -2.1333691076836667E-002
           5  -2.7045609020838304E-009
           6   5.5761636544764501E-002
           7  0.11798949498954726     
           8  0.93845736295237836     
           9  -4.9872305081311558E-009
          10  -3.2097487974455115E-002
          11  -6.7917064267960847E-002
          12 -0.54019442305966092     
          13  -7.8481279897691644E-002
          14   7.8481280281556209E-002
Sym=    10a
Ene=  -0.10127667935377795     
Spin= Alpha
Occup=     0.00000000
           1   2.0700959302667635E-003
           2  0.71991961739226784     
           3 -0.38337810567282016     
           4   5.4245367668978271E-003
           5  -6.6874812428020167E-002
           6  -7.6665900630766379E-002
           7  0.69231516558100636     
           8  -8.2487393834221781E-002
           9  0.14165143757772183     
          10 -0.24717175870003641     
          11 -0.61127995570666727     
          12   9.1540989172848655E-002
          13  -3.4045365407153416E-002
          14  -3.4045360553477746E-002
Sym=    11a
Ene=    6.2337412326370842E-002
Spin= Alpha
Occup=     0.00000000
           1  -1.1210406645328954     
           2  -5.3716275576287339E-004
           3 -0.32114362800806956     
           4   4.0408371810302664E-002
           5  0.10366282818035882     
           6   1.4948571934518094E-002
           7 -0.46476734059095354     
           8   5.7545614434184579E-002
           9  0.35516294229421413     
          10  0.19761174751758792     
          11 -0.41061496664488106     
          12   3.9883641984795770E-002
          13  0.47451567281504647     
          14  0.47451568141126904     
Sym=    12a
Ene=   0.16585031706628356     
Spin= Alpha
Occup=     0.00000000
           1 -0.37462725747392867     
           2  0.33826699042002040     
           3  0.93521933752192776     
           4 -0.13768163724866339     
           5  -5.0318198993102164E-002
           6 -0.19497086751658618     
           7  0.38420572569945749     
           8  -3.6720206751652287E-002
           9 -0.42292553255562182     
          10 -0.32097909624428828     
          11  0.27755134756204780     
          12  -1.5823656676675950E-002
          13  0.61775323904535584     
          14  0.61775328629365756     
Sym=    13a
Ene=   0.24508848048706033     
Spin= Alpha
Occup=     0.00000000
           1   2.1597076438549792E-008
           2   6.6209650049547722E-002
           3  0.14009709773529888     
           4   1.1142955947584019     
           5  -6.4019623591344625E-009
           6  -9.2136655960623794E-003
           7  -1.9495806950356812E-002
           8 -0.15506443618653648     
           9   1.4237753146980834E-008
          10  -6.6191688450662452E-003
          11  -1.4005946948546002E-002
          12 -0.11139958163361341     
          13 -0.84958067790326874     
          14  0.84958063740540446     
Sym=    14a
Ene=   0.39415822099716458     
Spin= Alpha
Occup=     0.00000000
           1 -0.18363801291473722     
           2 -0.31368539170035747     
           3 -0.39750270516883429     
           4   6.8615546256932392E-002
           5  0.84217190753493998     
           6 -0.99558292712414587     
           7 -0.10736969830079653     
           8   7.2655224129228244E-002
           9 -0.52906443706908679     
          10 -0.72719561652559694     
          11   5.0527050103432065E-002
          12   3.6856183017044845E-002
          13 -0.13419727347611438     
          14 -0.13419725594378290     
