$hessian                                                                        
        0.2346048297   0.1414660061  -0.0000454004  -0.1262987139  -0.1359246037
        0.0236643140  -0.0216095329   0.0468323210  -0.0067555688  -0.0372181359
       -0.0147609201   0.0368024963  -0.0494784470  -0.0376128033  -0.0536658411
        0.1414660061   0.5619063715  -0.0120064356  -0.1655700403  -0.1482533847
        0.0264786610   0.0933028526  -0.2339377096   0.0193897275  -0.0215826212
       -0.0654879092   0.0799128975  -0.0476161972  -0.1142273679  -0.1137748504
       -0.0000454004  -0.0120064356   0.5349543806   0.0273370520   0.0247408312
       -0.0206318210  -0.0125279589   0.0221132776  -0.0379127276   0.0486038046
        0.0755175003  -0.2686755617  -0.0633674972  -0.1103651737  -0.2077342704
       -0.1262987139  -0.1655700403   0.0273370520   0.6578173549   0.0716545322
       -0.0460045007  -0.5154564154   0.0898179416   0.0181176133  -0.0069024107
        0.0021641186  -0.0015635733  -0.0091598148   0.0019334480   0.0021134088
       -0.1359246037  -0.1482533847   0.0247408312   0.0716545322   0.2162440725
       -0.0270313805   0.0899687610  -0.0450384615  -0.0022057649  -0.0100558712
       -0.0103088536   0.0050977163  -0.0156428183  -0.0126433727  -0.0006014021
        0.0236643140   0.0264786610  -0.0206318210  -0.0460045007  -0.0270313805
        0.0413354351   0.0181063445  -0.0021962922  -0.0209709321   0.0228939720
        0.0074439597  -0.0021554512  -0.0186601297  -0.0046949480   0.0024227693
       -0.0216095329   0.0933028526  -0.0125279589  -0.5154564154   0.0899687610
        0.0181063445   0.5249956694  -0.1605900411  -0.0080751331   0.0050511568
       -0.0096577125   0.0038071366   0.0070191222  -0.0130238600  -0.0013103891
        0.0468323210  -0.2339377096   0.0221132776   0.0898179416  -0.0450384615
       -0.0021962922  -0.1605900411   0.3277027299  -0.0255769480   0.0098040829
       -0.0211256363   0.0065931275   0.0141356955  -0.0276009225  -0.0009331649
       -0.0067555688   0.0193897275  -0.0379127276   0.0181176133  -0.0022057649
       -0.0209709321  -0.0080751331  -0.0255769480   0.0523904498  -0.0208614770
        0.0261392097   0.0009652885   0.0175745656  -0.0177462243   0.0055279214
       -0.0372181359  -0.0215826212   0.0486038046  -0.0069024107  -0.0100558712
        0.0228939720   0.0050511568   0.0098040829  -0.0208614770   0.0379948239
        0.0198934676  -0.0431067475   0.0010745659   0.0019409418  -0.0075295520
       -0.0147609201  -0.0654879092   0.0755175003   0.0021641186  -0.0103088536
        0.0074439597  -0.0096577125  -0.0211256363   0.0261392097   0.0198934676
        0.0909241327  -0.0965065099   0.0023610464   0.0059982664  -0.0125941599
        0.0368024963   0.0799128975  -0.2686755617  -0.0015635733   0.0050977163
       -0.0021554512   0.0038071366   0.0065931275   0.0009652885  -0.0431067475
       -0.0965065099   0.2928192616   0.0040606880   0.0049027687  -0.0229535372
       -0.0494784470  -0.0476161972  -0.0633674972  -0.0091598148  -0.0156428183
       -0.0186601297   0.0070191222   0.0141356955   0.0175745656   0.0010745659
        0.0023610464   0.0040606880   0.0505445737   0.0467622735   0.0603923734
       -0.0376128033  -0.1142273679  -0.1103651737   0.0019334480  -0.0126433727
       -0.0046949480  -0.0130238600  -0.0276009225  -0.0177462243   0.0019409418
        0.0059982664   0.0049027687   0.0467622735   0.1484733967   0.1279035773
       -0.0536658411  -0.1137748504  -0.2077342704   0.0021134088  -0.0006014021
        0.0024227693  -0.0013103891  -0.0009331649   0.0055279214  -0.0075295520
       -0.0125941599  -0.0229535372   0.0603923734   0.1279035773   0.2227371169
