$hessian                                                                        
        0.6670112358  -0.0417588198  -0.0924676554  -0.3442663550   0.0214496700
       -0.0541726138  -0.2435930761   0.0163487624   0.1204993269  -0.0377285532
        0.0017860428   0.0033432060  -0.0414232515   0.0021743446   0.0227977362
       -0.0417588198   0.0370016894   0.0077975707   0.0210675105  -0.0078215758
        0.0027809047   0.0167312692  -0.0076400384  -0.0093485396   0.0020036212
       -0.0107670551   0.0000024920   0.0019564189  -0.0107730200  -0.0012324277
       -0.0924676554   0.0077975707   0.2581256199  -0.1023583391   0.0059033078
       -0.0969078889   0.1687349676  -0.0124746094  -0.1975854939   0.0308845192
       -0.0017821437   0.0163600376  -0.0047934923   0.0005558746   0.0200077253
       -0.3442663550   0.0210675105  -0.1023583391   0.5280019300  -0.0329625527
       -0.0524301006  -0.0938823835   0.0049399697   0.0466600711  -0.0850029154
        0.0055927010   0.1153932773  -0.0048502761   0.0013623715  -0.0072649086
        0.0214496700  -0.0078215758   0.0059033078  -0.0329625527   0.0279071853
        0.0054721570   0.0046849719  -0.0235980376  -0.0025051897   0.0054161344
       -0.0133335381  -0.0091249866   0.0014117764   0.0168459662   0.0002547115
       -0.0541726138   0.0027809047  -0.0969078889  -0.0524301006   0.0054721570
        0.2835763511   0.0143726000  -0.0004104799   0.0414321599   0.0926088658
       -0.0076487111  -0.2177895727  -0.0003787514  -0.0001938708  -0.0103110494
       -0.2435930761   0.0167312692   0.1687349676  -0.0938823835   0.0046849719
        0.0143726000   0.5257534428  -0.0328702394  -0.0571220432  -0.0029163814
        0.0013230561   0.0039541126  -0.1853616019   0.0101309421  -0.1299396370
        0.0163487624  -0.0076400384  -0.0124746094   0.0049399697  -0.0235980376
       -0.0004104799  -0.0328702394   0.0279051016   0.0057945126   0.0012642038
        0.0168500953  -0.0004927723   0.0103173035  -0.0135171210   0.0075833489
        0.1204993269  -0.0093485396  -0.1975854939   0.0466600711  -0.0025051897
        0.0414321599  -0.0571220432   0.0057945126   0.2855480261  -0.0029354967
       -0.0000445680  -0.0122444601  -0.1071018581   0.0061037848  -0.1171502320
       -0.0377285532   0.0020036212   0.0308845192  -0.0850029154   0.0054161344
        0.0926088658  -0.0029163814   0.0012642038  -0.0029354967   0.1259627462
       -0.0083459100  -0.1226501656  -0.0003148962  -0.0003380494   0.0020922774
        0.0017860428  -0.0107670551  -0.0017821437   0.0055927010  -0.0133335381
       -0.0076487111   0.0013230561   0.0168500953  -0.0000445680  -0.0083459100
        0.0130116792   0.0095317801  -0.0003558899  -0.0057611813  -0.0000563573
        0.0033432060   0.0000024920   0.0163600376   0.1153932773  -0.0091249866
       -0.2177895727   0.0039541126  -0.0004927723  -0.0122444601  -0.1226501656
        0.0095317801   0.2094288500  -0.0000404302   0.0000834868   0.0042451452
       -0.0414232515   0.0019564189  -0.0047934923  -0.0048502761   0.0014117764
       -0.0003787514  -0.1853616019   0.0103173035  -0.1071018581  -0.0003148962
       -0.0003558899  -0.0000404302   0.2319500257  -0.0133296088   0.1123145320
        0.0021743446  -0.0107730200   0.0005558746   0.0013623715   0.0168459662
       -0.0001938708   0.0101309421  -0.0135171210   0.0061037848  -0.0003380494
       -0.0057611813   0.0000834868  -0.0133296088   0.0132053562  -0.0065492755
        0.0227977362  -0.0012324277   0.0200077253  -0.0072649086   0.0002547115
       -0.0103110494  -0.1299396370   0.0075833489  -0.1171502320   0.0020922774
       -0.0000563573   0.0042451452   0.1123145320  -0.0065492755   0.1032084109
