      -----------------------------------------------------------      
     |                   =====================                   |     
     |                           x T B                           |     
     |                   =====================                   |     
     |                         S. Grimme                         |     
     |          Mulliken Center for Theoretical Chemistry        |     
     |                    University of Bonn                     |     
      -----------------------------------------------------------      

   * xtb version 6.2.2 (9d81278992624c895f80dd42a50cac0aa55982e2) compiled by '@Darwin' on 04/03/2020

   xtb is free software: you can redistribute it and/or modify it under
   the terms of the GNU Lesser General Public License as published by
   the Free Software Foundation, either version 3 of the License, or
   (at your option) any later version.
   
   xtb is distributed in the hope that it will be useful,
   but WITHOUT ANY WARRANTY; without even the implied warranty of
   MERCHANTABILITY or FITNESS FOR A PARTICULAR PURPOSE.  See the
   GNU Lesser General Public License for more details.
   
   Cite this work as:
   * S. Grimme, C. Bannwarth, P. Shushkov, J. Chem. Theory Comput., 2017,
     13, 1989-2009. DOI: 10.1021/acs.jctc.7b00118
   * C. Bannwarth, S. Ehlert and S. Grimme., J. Chem. Theory Comput., 2019,
     15, 1652-1671. DOI: 10.1021/acs.jctc.8b01176
   * P. Pracht, E. Caldeweyher, S. Ehlert, S. Grimme, ChemRxiv, 2019, preprint.
     DOI: 10.26434/chemrxiv.8326202.v1
   
   for DFT-D4:
   * E. Caldeweyher, C. Bannwarth and S. Grimme, J. Chem. Phys., 2017,
     147, 034112. DOI: 10.1063/1.4993215
   * E. Caldeweyher, S. Ehlert, A. Hansen, H. Neugebauer, S. Spicher,
     C. Bannwarth and S. Grimme, J. Chem. Phys., 2019, 150, 154122.
     DOI: 10.1063/1.5090222
   
   for sTDA-xTB:
   * S. Grimme and C. Bannwarth, J. Chem. Phys., 2016, 145, 054103.
     DOI: 10.1063/1.4959605
   
   in the mass-spec context:
   * V. Asgeirsson, C. Bauer and S. Grimme, Chem. Sci., 2017, 8, 4879.
     DOI: 10.1039/c7sc00601b
   
   for metadynamics refer to:
   * S. Grimme, J. Chem. Theory Comput., 2019, 155, 2847-2862
     DOI: 10.1021/acs.jctc.9b00143
   
   with help from (in alphabetical order)
   C. Bannwarth, F. Bohle, G. Brandenburg, E. Caldeweyher, M. Checinski,
   S. Dohm, S. Ehlert, S. Ehrlich, F. März, H. Neugebauer, J. Pisarek,
   P. Pracht, P. Shushkov, and S. Spicher.
   
 * started run on 2020/05/12 at 11:45:15.144     

           -------------------------------------------------
          |                Calculation Setup                |
           -------------------------------------------------

          program call               : xtb --input H2C2O1_6_S_2.input H2C2O1_6_S_2.xyz --ohess --molden --namespace H2C2O1_6_S_2 output.out
          calculation namespace      : H2C2O1_6_S_2
          coordinate file            : H2C2O1_6_S_2.xyz
          number of atoms            :                     5
          number of electrons        :                    16
          charge                     :                     0
          spin                       :                   1.0
          first test random number   :      0.86586024980690

   ID    Z sym.   atoms
    1    8 O      1
    2    6 C      2, 3
    3    1 H      4, 5

           -------------------------------------------------
          |                 G F N 2 - x T B                 |
           -------------------------------------------------

        Reference                      10.1021/acs.jctc.8b01176
      * Hamiltonian:
        H0-scaling (s, p, d)           1.850000    2.230000    2.230000
        zeta-weighting                 0.500000
      * Dispersion:
        s8                             2.700000
        a1                             0.520000
        a2                             5.000000
        s9                             5.000000
      * Repulsion:
        kExp                           1.500000    1.000000
        rExp                           1.000000
      * Coulomb:
        alpha                          2.000000
        third order                    shell-resolved
        anisotropic                    true
        a3                             3.000000
        a5                             4.000000
        cn-shift                       1.200000
        cn-exp                         4.000000
        max-rad                        5.000000


          ...................................................
          :                      SETUP                      :
          :.................................................:
          :  # basis functions                  14          :
          :  # atomic orbitals                  14          :
          :  # shells                            8          :
          :  # electrons                        16          :
          :  max. iterations                   250          :
          :  Hamiltonian                  GFN2-xTB          :
          :  restarted?                      false          :
          :  GBSA solvation                  false          :
          :  PC potential                    false          :
          :  electronic temp.          300.0000000     K    :
          :  accuracy                    1.0000000          :
          :  -> integral cutoff          0.2500000E+02      :
          :  -> integral neglect         0.1000000E-07      :
          :  -> SCF convergence          0.1000000E-05 Eh   :
          :  -> wf. convergence          0.1000000E-03 e    :
          :  Broyden damping             0.4000000          :
          ...................................................

 iter      E             dE          RMSdq      gap      omega  full diag
   1     -9.0889409 -0.908894E+01  0.622E+00    1.72       0.0  T
   2     -9.0942124 -0.527158E-02  0.403E+00    1.58       1.0  T
   3     -9.0932302  0.982240E-03  0.893E-01    1.69       1.0  T
   4     -9.0960658 -0.283563E-02  0.322E-01    1.59       1.0  T
   5     -9.0919985  0.406731E-02  0.774E-01    1.59       1.0  T
   6     -9.0953381 -0.333959E-02  0.359E-01    1.59       1.0  T
   7     -9.0961377 -0.799557E-03  0.616E-02    1.60       1.0  T
   8     -9.0961515 -0.137965E-04  0.143E-02    1.60       3.1  T
   9     -9.0961526 -0.115058E-05  0.218E-03    1.60      20.5  T
  10     -9.0961526 -0.158968E-07  0.365E-04    1.60     122.4  T
  11     -9.0961526 -0.499890E-09  0.141E-04    1.60     316.7  T

   *** convergence criteria satisfied after 11 iterations ***

         #    Occupation            Energy/Eh            Energy/eV
      -------------------------------------------------------------
         1        2.0000           -0.7623484             -20.7446
       ...           ...                  ...                  ...
         3        2.0000           -0.6226294             -16.9426
         4        2.0000           -0.5811452             -15.8138
         5        2.0000           -0.5549485             -15.1009
         6        2.0000           -0.5207138             -14.1693
         7        1.9936           -0.4011288             -10.9153
         8        1.0064           -0.3915546             -10.6547
         9        1.0000           -0.3613423              -9.8326 (HOMO)
        10                         -0.3026204              -8.2347 (LUMO)
        11                          0.0499325               1.3587
        12                          0.1107698               3.0142
        13                          0.1223501               3.3293
        14                          0.1834261               4.9913
      -------------------------------------------------------------
                  HL-Gap            0.0587219 Eh            1.5979 eV
             Fermi-level           -0.3641615 Eh           -9.9093 eV

 transition dipole moment (au) for excitation:           8           9
     X       Y       Z   
  -0.0000   0.0000   0.0000  total (au/Debye):    0.000   0.000
 dE (eV)             :    0.822
 oscillator strength :  0.14010E-10

 SCC (total)                   0 d,  0 h,  0 min,  0.003 sec
 SCC setup                      ...        0 min,  0.000 sec (  2.779%)
 Dispersion                     ...        0 min,  0.000 sec (  0.477%)
 integral evaluation            ...        0 min,  0.001 sec ( 22.586%)
 zeroth order Hamiltonian       ...        0 min,  0.000 sec (  0.506%)
 iterations                     ...        0 min,  0.001 sec ( 31.464%)
 molecular gradient             ...        0 min,  0.001 sec ( 23.164%)
 printout                       ...        0 min,  0.001 sec ( 18.710%)

         :::::::::::::::::::::::::::::::::::::::::::::::::::::
         ::                     SUMMARY                     ::
         :::::::::::::::::::::::::::::::::::::::::::::::::::::
         :: total energy              -9.050846946840 Eh    ::
         :: gradient norm              0.180059789273 Eh/a0 ::
         :: HOMO-LUMO gap              1.597903234170 eV    ::
         ::.................................................::
         :: SCC energy                -9.096152621968 Eh    ::
         :: -> isotropic ES           -0.002304315406 Eh    ::
         :: -> anisotropic ES          0.000391269000 Eh    ::
         :: -> anisotropic XC          0.004438392854 Eh    ::
         :: -> dispersion             -0.001393290606 Eh    ::
         :: repulsion energy           0.045305758828 Eh    ::
         :: add. restraining           0.000000000000 Eh    ::
         :::::::::::::::::::::::::::::::::::::::::::::::::::::

      ----------------------------------------------------------- 
     |                   =====================                   |
     |                        A N C O P T                        |
     |                   =====================                   |
     |               Approximate Normal Coordinate               |
     |                Rational Function Optimizer                |
      ----------------------------------------------------------- 

          ...................................................
          :                      SETUP                      :
          :.................................................:
          :   optimization level            normal          :
          :   max. optcycles                   200          :
          :   ANC micro-cycles                  20          :
          :   degrees of freedom                 9          :
          :.................................................:
          :   RF solver                   davidson          :
          :   write xtbopt.log                true          :
          :   linear?                        false          :
          :   energy convergence         0.5000000E-05 Eh   :
          :   grad. convergence          0.1000000E-02 Eh/α :
          :   maximium RF displ.         1.0000000          :
          :   Hlow (freq-cutoff)         0.1000000E-01      :
          :   Hmax (freq-cutoff)         5.0000000          :
          :   S6 in model hess.         20.0000000          :
          ...................................................

generating ANC from model Hessian ...
Using Lindh-Hessian (1995)
 Shifting diagonal of input Hessian by    5.1047383185100909E-004
 Lowest  eigenvalues of input Hessian
   -0.000000   -0.000000   -0.000000    0.000000    0.000000    0.000000
    0.010000    0.018765    0.054984    0.111785    0.155509    0.780440
    0.881088    1.193151    1.352431
 Highest eigenvalues
    0.111785    0.155509    0.780440    0.881088    1.193151    1.352431


........................................................................
.............................. CYCLE    1 ..............................
........................................................................
   1     -9.0961526 -0.909615E+01  0.786E-05    1.60       0.0  T
   2     -9.0961526  0.699425E-08  0.999E-04    1.60      44.8  T
   3     -9.0961526 -0.702675E-08  0.347E-05    1.60    1287.0  T
     SCC iter.                  ...        0 min,  0.000 sec
     gradient                   ...        0 min,  0.001 sec
 * total energy  :    -9.0508469 Eh     change       -0.1766438E-08 Eh
   gradient norm :     0.1800616 Eh/α   predicted     0.0000000E+00 (-100.00%)
   displ. norm   :     0.4272982 α      lambda       -0.4816720E-01
   maximum displ.:     0.2936301 α      in ANC's #4, #3, #7, ...

........................................................................
.............................. CYCLE    2 ..............................
........................................................................
   1     -9.1363426 -0.913634E+01  0.172E+00    2.22       0.0  T
   2     -9.1370815 -0.738896E-03  0.104E+00    2.20       1.0  T
   3     -9.1370876 -0.609959E-05  0.281E-01    2.20       1.0  T
   4     -9.1371374 -0.498724E-04  0.397E-02    2.20       1.1  T
   5     -9.1371369  0.548667E-06  0.191E-02    2.19       2.3  T
   6     -9.1371334  0.347682E-05  0.266E-02    2.19       1.7  T
   7     -9.1371386 -0.514848E-05  0.193E-03    2.19      23.2  T
   8     -9.1371386 -0.125127E-07  0.262E-04    2.19     170.5  T
   9     -9.1371386 -0.595790E-11  0.323E-05    2.19    1384.1  T
     SCC iter.                  ...        0 min,  0.001 sec
     gradient                   ...        0 min,  0.001 sec
 * total energy  :    -9.0819896 Eh     change       -0.3114261E-01 Eh
   gradient norm :     0.0981826 Eh/α   predicted    -0.2848087E-01 (  -8.55%)
   displ. norm   :     0.2791939 α      lambda       -0.1819312E-01
   maximum displ.:     0.2263424 α      in ANC's #3, #8, #7, ...

........................................................................
.............................. CYCLE    3 ..............................
........................................................................
   1     -9.1649779 -0.916498E+01  0.125E+00    2.31       0.0  T
   2     -9.1661477 -0.116985E-02  0.726E-01    2.29       1.0  T
   3     -9.1661657 -0.180010E-04  0.324E-01    2.28       1.0  T
   4     -9.1661717 -0.602322E-05  0.229E-02    2.27       2.0  T
   5     -9.1661718 -0.113096E-06  0.585E-03    2.27       7.6  T
   6     -9.1661716  0.214872E-06  0.595E-03    2.27       7.5  T
   7     -9.1661719 -0.230821E-06  0.223E-03    2.27      20.1  T
   8     -9.1661719 -0.300256E-07  0.230E-04    2.27     194.6  T
   9     -9.1661719 -0.553690E-11  0.522E-05    2.27     856.5  T
     SCC iter.                  ...        0 min,  0.001 sec
     gradient                   ...        0 min,  0.001 sec
 * total energy  :    -9.0928699 Eh     change       -0.1088032E-01 Eh
   gradient norm :     0.0137280 Eh/α   predicted    -0.9805635E-02 (  -9.88%)
   displ. norm   :     0.2049554 α      lambda       -0.2177029E-02
   maximum displ.:     0.2027526 α      in ANC's #3, #8, #7, ...

........................................................................
.............................. CYCLE    4 ..............................
........................................................................
   1     -9.1671105 -0.916711E+01  0.526E-01    2.35       0.0  T
   2     -9.1671186 -0.803792E-05  0.322E-01    2.34       1.0  T
   3     -9.1671214 -0.279797E-05  0.221E-02    2.34       2.0  T
   4     -9.1671216 -0.278332E-06  0.739E-03    2.34       6.0  T
   5     -9.1671216  0.326459E-08  0.342E-03    2.34      13.1  T
   6     -9.1671214  0.189559E-06  0.499E-03    2.34       9.0  T
   7     -9.1671216 -0.200126E-06  0.185E-04    2.34     242.0  T
   8     -9.1671216 -0.144116E-10  0.909E-05    2.34     492.1  T
     SCC iter.                  ...        0 min,  0.001 sec
     gradient                   ...        0 min,  0.001 sec
 * total energy  :    -9.0941731 Eh     change       -0.1303243E-02 Eh
   gradient norm :     0.0097918 Eh/α   predicted    -0.1134242E-02 ( -12.97%)
   displ. norm   :     0.0689850 α      lambda       -0.2633210E-03
   maximum displ.:     0.0670270 α      in ANC's #3, #7, #8, ...

........................................................................
.............................. CYCLE    5 ..............................
........................................................................
   1     -9.1675480 -0.916755E+01  0.180E-01    2.33       0.0  T
   2     -9.1675502 -0.218214E-05  0.108E-01    2.34       1.0  T
   3     -9.1675506 -0.349772E-06  0.114E-02    2.33       3.9  T
   4     -9.1675506 -0.378686E-07  0.399E-03    2.33      11.2  T
   5     -9.1675506  0.329123E-08  0.147E-03    2.33      30.4  T
   6     -9.1675506  0.344424E-07  0.236E-03    2.33      18.9  T
   7     -9.1675506 -0.420953E-07  0.768E-05    2.33     582.2  T
   8     -9.1675506 -0.863309E-12  0.319E-05    2.33    1400.2  T
     SCC iter.                  ...        0 min,  0.001 sec
     gradient                   ...        0 min,  0.001 sec
 * total energy  :    -9.0943449 Eh     change       -0.1717542E-03 Eh
   gradient norm :     0.0060168 Eh/α   predicted    -0.1322857E-03 ( -22.98%)
   displ. norm   :     0.0264524 α      lambda       -0.6817744E-04
   maximum displ.:     0.0234544 α      in ANC's #3, #7, #4, ...

........................................................................
.............................. CYCLE    6 ..............................
........................................................................
   1     -9.1684779 -0.916848E+01  0.688E-02    2.32       0.0  T
   2     -9.1684786 -0.646062E-06  0.410E-02    2.32       1.1  T
   3     -9.1684787 -0.984524E-07  0.613E-03    2.32       7.3  T
   4     -9.1684787 -0.172732E-07  0.170E-03    2.32      26.3  T
   5     -9.1684787 -0.824627E-09  0.763E-04    2.32      58.6  T
   6     -9.1684787  0.723490E-08  0.112E-03    2.32      39.9  T
   7     -9.1684787 -0.877534E-08  0.264E-05    2.32    1695.7  T
     SCC iter.                  ...        0 min,  0.001 sec
     gradient                   ...        0 min,  0.001 sec
 * total energy  :    -9.0943824 Eh     change       -0.3753119E-04 Eh
   gradient norm :     0.0011133 Eh/α   predicted    -0.3411317E-04 (  -9.11%)
   displ. norm   :     0.0062065 α      lambda       -0.2148439E-05
   maximum displ.:     0.0052183 α      in ANC's #3, #4, #7, ...

........................................................................
.............................. CYCLE    7 ..............................
........................................................................
   1     -9.1684826 -0.916848E+01  0.121E-02    2.32       0.0  T
   2     -9.1684828 -0.192762E-06  0.588E-03    2.32       7.6  T
   3     -9.1684828 -0.386923E-08  0.313E-03    2.32      14.3  T
   4     -9.1684828 -0.355882E-09  0.426E-04    2.32     105.0  T
   5     -9.1684828  0.888351E-09  0.377E-04    2.32     118.5  T
     SCC iter.                  ...        0 min,  0.000 sec
     gradient                   ...        0 min,  0.001 sec
 * total energy  :    -9.0943835 Eh     change       -0.1144214E-05 Eh
   gradient norm :     0.0003700 Eh/α   predicted    -0.1074903E-05 (  -6.06%)
   displ. norm   :     0.0023673 α      lambda       -0.2270443E-06
   maximum displ.:     0.0022508 α      in ANC's #3, #7, #4, ...

   *** GEOMETRY OPTIMIZATION CONVERGED AFTER 7 ITERATIONS ***

------------------------------------------------------------------------
 total energy gain   :        -0.0435366 Eh      -27.3196 kcal/mol
 total RMSD          :         0.4060751 a0        0.2149 Å
 total power (kW/mol):       -16.3293323 (step)-6957.1524 (real)
------------------------------------------------------------------------

 ANCopt (total)                0 d,  0 h,  0 min,  0.016 sec
 optimizer setup                ...        0 min,  0.000 sec (  0.431%)
 model hessian                  ...        0 min,  0.000 sec (  0.511%)
 ANC generation                 ...        0 min,  0.000 sec (  0.360%)
 coordinate transformation      ...        0 min,  0.000 sec (  0.115%)
 single point calculation       ...        0 min,  0.016 sec ( 94.405%)
 optimization log               ...        0 min,  0.000 sec (  1.143%)
 hessian update                 ...        0 min,  0.000 sec (  0.115%)
 rational function              ...        0 min,  0.000 sec (  1.299%)

================
 final structure:
================
5
 xtb: 6.2.2 (9d81278992624c895f80dd42a50cac0aa55982e2)
O         0.01602601255739   -0.00042600356797    0.50646478691931
C        -1.24225374277512    0.07929145951341    0.27889061761760
C         1.06930457990085   -0.07454471681137   -0.21915476903689
H        -1.81917698435979    0.12412856739797    1.20564288935239
H         1.97610013467667   -0.12844930653203    0.38791747514758

 Bond Distances (Angstroems)
 ---------------------------
O1-C2=1.2812         O1-C3=1.2812         C2-O1=1.2812         C2-H4=1.0926         C3-O1=1.2812         C3-H5=1.0926         
H4-C2=1.0926         H5-C3=1.0926         
 C  H  Rav=1.0926 sigma=0.0000  Rmin=1.0926  Rmax=1.0926     2
 O  C  Rav=1.2812 sigma=0.0000  Rmin=1.2812  Rmax=1.2812     2

 selected bond angles (degree)
 --------------------
C3-O1-C2=135.27                H4-C2-O1=111.75                H5-C3-O1=111.75                

 selected dihedral angles (degree)
 ---------------------------------
H4-C2-O1-C3=180.00            H5-C3-O1-C2=180.00            
           -------------------------------------------------
          |                Final Singlepoint                |
           -------------------------------------------------

          ...................................................
          :                      SETUP                      :
          :.................................................:
          :  # basis functions                  14          :
          :  # atomic orbitals                  14          :
          :  # shells                            8          :
          :  # electrons                        16          :
          :  max. iterations                   250          :
          :  Hamiltonian                  GFN2-xTB          :
          :  restarted?                      false          :
          :  GBSA solvation                  false          :
          :  PC potential                    false          :
          :  electronic temp.          300.0000000     K    :
          :  accuracy                    1.0000000          :
          :  -> integral cutoff          0.2500000E+02      :
          :  -> integral neglect         0.1000000E-07      :
          :  -> SCF convergence          0.1000000E-05 Eh   :
          :  -> wf. convergence          0.1000000E-03 e    :
          :  Broyden damping             0.4000000          :
          ...................................................

 iter      E             dE          RMSdq      gap      omega  full diag
   1     -9.1684828 -0.916848E+01  0.196E-04    2.32       0.0  T
   2     -9.1684828  0.354810E-10  0.940E-05    2.32     475.6  T
   3     -9.1684828  0.373202E-09  0.261E-04    2.32     171.3  T

   *** convergence criteria satisfied after 3 iterations ***

         #    Occupation            Energy/Eh            Energy/eV
      -------------------------------------------------------------
         1        2.0000           -0.7727795             -21.0284
       ...           ...                  ...                  ...
         3        2.0000           -0.6184854             -16.8298
         4        2.0000           -0.6024043             -16.3923
         5        2.0000           -0.5503461             -14.9757
         6        2.0000           -0.5128989             -13.9567
         7        2.0000           -0.4020035             -10.9391
         8        1.0000           -0.3556598              -9.6780
         9        1.0000           -0.3287578              -8.9460 (HOMO)
        10                         -0.2433345              -6.6215 (LUMO)
        11                          0.1050023               2.8573
        12                          0.1792275               4.8770
        13                          0.2269407               6.1754
        14                          0.5300394              14.4231
      -------------------------------------------------------------
                  HL-Gap            0.0854232 Eh            2.3245 eV
             Fermi-level           -0.3324389 Eh           -9.0461 eV

 transition dipole moment (au) for excitation:           8           9
     X       Y       Z   
   0.0000  -0.0000  -0.0000  total (au/Debye):    0.000   0.000
 dE (eV)             :    0.732
 oscillator strength :  0.41786E-11

 SCC (total)                   0 d,  0 h,  0 min,  0.003 sec
 SCC setup                      ...        0 min,  0.000 sec (  2.320%)
 Dispersion                     ...        0 min,  0.000 sec (  0.436%)
 integral evaluation            ...        0 min,  0.001 sec ( 27.487%)
 zeroth order Hamiltonian       ...        0 min,  0.000 sec (  0.418%)
 iterations                     ...        0 min,  0.000 sec ( 16.588%)
 molecular gradient             ...        0 min,  0.001 sec ( 28.260%)
 printout                       ...        0 min,  0.001 sec ( 24.198%)

         :::::::::::::::::::::::::::::::::::::::::::::::::::::
         ::                     SUMMARY                     ::
         :::::::::::::::::::::::::::::::::::::::::::::::::::::
         :: total energy              -9.094383544892 Eh    ::
         :: gradient norm              0.000369899010 Eh/a0 ::
         :: HOMO-LUMO gap              2.324484770249 eV    ::
         ::.................................................::
         :: SCC energy                -9.168482771760 Eh    ::
         :: -> isotropic ES           -0.002574592463 Eh    ::
         :: -> anisotropic ES          0.000999285513 Eh    ::
         :: -> anisotropic XC          0.004190588398 Eh    ::
         :: -> dispersion             -0.001403088823 Eh    ::
         :: repulsion energy           0.074099284836 Eh    ::
         :: add. restraining           0.000000000000 Eh    ::
         :::::::::::::::::::::::::::::::::::::::::::::::::::::

           ------------------------------------------------- 
          |                Numerical Hessian                |
           ------------------------------------------------- 
step length          :   0.00500
SCC accuracy         :   0.30000
Hessian scale factor :   1.00000
frozen atoms in %    :   0.00000    0
RMS gradient         :   0.00037
estimated CPU  time      0.00 min
estimated wall time      0.00 min

writing file <hessian>.

 projected vibrational frequencies (cm-1)
eigval :       -0.00    -0.00    -0.00    -0.00     0.00     0.00
eigval :      452.62   485.01   764.44  1010.29  1079.63  1287.66
eigval :     1384.94  2888.08  2901.92
           -------------------------------------------------
          |                Property Printout                |
           -------------------------------------------------

    * Orbital Energies and Occupations

         #    Occupation            Energy/Eh            Energy/eV
      -------------------------------------------------------------
         1        2.0000           -0.7727795             -21.0284
         2        2.0000           -0.7099334             -19.3183
         3        2.0000           -0.6184854             -16.8298
         4        2.0000           -0.6024043             -16.3923
         5        2.0000           -0.5503462             -14.9757
         6        2.0000           -0.5128989             -13.9567
         7        2.0000           -0.4020036             -10.9391
         8        1.0000           -0.3556598              -9.6780
         9        1.0000           -0.3287578              -8.9460 (HOMO)
        10                         -0.2433345              -6.6215 (LUMO)
        11                          0.1050023               2.8573
        12                          0.1792275               4.8770
        13                          0.2269407               6.1754
        14                          0.5300393              14.4231
      -------------------------------------------------------------
                  HL-Gap            0.0854233 Eh            2.3245 eV
             Fermi-level           -0.3324389 Eh           -9.0461 eV

     #   Z        covCN         q      C6AA      α(0)
     1   8 O      1.710     0.003    14.438     5.130
     2   6 C      1.804    -0.063    32.904     9.270
     3   6 C      1.804    -0.063    32.904     9.270
     4   1 H      0.924     0.061     2.186     2.312
     5   1 H      0.924     0.061     2.186     2.312

 Mol. C6AA /au·bohr⁶  :        330.454787
Molecule has the following symmetry elements: (C2) 2*(sigma) 
It seems to be the C2v point group
 Mol. C8AA /au·bohr⁸  :       7888.564733
 Mol. α(0) /au        :         28.293693


Wiberg/Mayer (AO) data.
largest (>0.10) Wiberg bond orders for each atom
          total WBO             WBO to atom ...
     1  O   2.628        C    3 1.313    C    2 1.313
     2  C   2.474        O    1 1.313    H    4 0.924    C    3 0.211
     3  C   2.474        O    1 1.313    H    5 0.924    C    2 0.211
     4  H   0.953        C    2 0.924
     5  H   0.953        C    3 0.924

MOs/occ written to file <molden.input>


molecular dipole:
                 x           y           z       tot (Debye)
 q only:        0.039      -0.001       0.180
   full:        0.184      -0.005       0.854       2.221
molecular quadrupole (traceless):
                xx          xy          yy          xz          yz          zz
 q only:        0.808      -0.097      -0.644      -0.272       0.020      -0.163
  q+dip:       -0.614       0.011      -0.433       0.128      -0.005       1.047
   full:       -0.912       0.110       0.814      -0.018      -0.013       0.099

           -------------------------------------------------
          |                Geometry Summary                 |
           -------------------------------------------------

      molecular mass/u    :       42.0367582
   center of mass at/Å    :       -0.0395519       0.0010911       0.2480407
  moments of inertia/u·Å² :        0.2949390E+01   0.4134864E+02   0.4429803E+02
rotational constants/cm⁻¹ :        0.5715633E+01   0.4076950E+00   0.3805504E+00

 * 2 selected distances

     #   Z        #   Z                                     value/Å
     1   8 O      2   6 C                                 1.2811763 (min)
     1   8 O      3   6 C                                 1.2811764 (max)

 * 1 distinct bonds (by element types)

   Z      Z             #   av. dist./Å        max./Å        min./Å
   6 C    8 O           2     1.2811764     1.2811764     1.2811763

           -------------------------------------------------
          |               Frequency Printout                |
           -------------------------------------------------
 projected vibrational frequencies (cm-1)
eigval :       -0.00    -0.00    -0.00    -0.00     0.00     0.00
eigval :      452.62   485.01   764.44  1010.29  1079.63  1287.66
eigval :     1384.94  2888.08  2901.92
 reduced masses (amu)
   1: 10.45   2: 11.50   3: 11.79   4: 11.98   5: 12.11   6: 12.37   7: 11.51   8:  4.86
   9:  3.04  10:  3.60  11:  5.94  12:  9.78  13: 13.60  14:  1.77  15:  1.81
 IR intensities (amu)
   1:  0.40   2:  0.34   3:  0.22   4:  0.22   5:  0.43   6:  0.23   7:  0.08   8:  0.01
   9:  0.00  10:  1.11  11:  0.08  12:  0.14  13:  1.30  14:  0.47  15:  0.00
 Raman intensities (amu)
   1:  0.00   2:  0.00   3:  0.00   4:  0.00   5:  0.00   6:  0.00   7:  0.00   8:  0.00
   9:  0.00  10:  0.00  11:  0.00  12:  0.00  13:  0.00  14:  0.00  15:  0.00
 output can be read by thermo (or use thermo option).
 writing <g98.out> molden fake output.
 recommended (thermochemical) frequency scaling factor: 1.0
           -------------------------------------------------
          |             Thermodynamic Functions             |
           -------------------------------------------------

c2v symmetry found (for desy threshold:  0.10E+00) used in thermo

          ...................................................
          :                      SETUP                      :
          :.................................................:
          :  # frequencies                           9      :
          :  # imaginary freq.                       0      :
          :  linear?                             false      :
          :  only rotor calc.                    false      :
          :  symmetry                              c2v      :
          :  rotational number                       2      :
          :  scaling factor                  1.0000000      :
          :  rotor cutoff                   50.0000000 cm⁻¹ :
          :  imag. cutoff                  -20.0000000 cm⁻¹ :
          :.................................................:

    mode    ω/cm⁻¹     T·S(HO)/kcal·mol⁻¹    T·S(FR)/kcal·mol⁻¹   T·S(vib)
   ------------------------------------------------------------------------
   ------------------------------------------------------------------------

   temp. (K)  partition function   enthalpy   heat capacity  entropy
                                   cal/mol     cal/K/mol   cal/K/mol   J/K/mol
 298.15  VIB   1.30                  419.471      4.280      1.928
         ROT  0.281E+04              888.752      2.981     18.760
         INT  0.365E+04             1308.223      7.261     20.688
         TR   0.264E+27             1481.254      4.968     37.118
         TOT                        2789.4769    12.2289    57.8062   241.8610

   temp. (K)  partition function   enthalpy   heat capacity  entropy
                                   cal/mol     cal/K/mol   cal/K/mol   J/K/mol
 120.00  VIB   1.01                   10.116      0.481      0.099
         ROT   717.                  357.707      2.981     16.047
         INT   722.                  367.823      3.462     16.146
         TR   0.673E+26              596.178      4.968     32.599
         TOT                         964.0011     8.4302    48.7447   203.9480

   temp. (K)  partition function   enthalpy   heat capacity  entropy
                                   cal/mol     cal/K/mol   cal/K/mol   J/K/mol
 100.00  VIB   1.00                    3.257      0.220      0.037
         ROT   545.                  298.089      2.981     15.503
         INT   547.                  301.346      3.201     15.541
         TR   0.512E+26              496.815      4.968     31.693
         TOT                         798.1613     8.1693    47.2340   197.6272

   temp. (K)  partition function   enthalpy   heat capacity  entropy
                                   cal/mol     cal/K/mol   cal/K/mol   J/K/mol
  80.00  VIB   1.00                    0.606      0.063      0.008
         ROT   390.                  238.471      2.981     14.838
         INT   390.                  239.077      3.044     14.847
         TR   0.367E+26              397.452      4.968     30.585
         TOT                         636.5289     8.0125    45.4318   190.0867

   temp. (K)  partition function   enthalpy   heat capacity  entropy
                                   cal/mol     cal/K/mol   cal/K/mol   J/K/mol
  60.00  VIB   1.00                    0.037      0.007      0.001
         ROT   253.                  178.853      2.981     13.981
         INT   253.                  178.891      2.988     13.981
         TR   0.238E+26              298.089      4.968     29.157
         TOT                         476.9798     7.9560    43.1378   180.4887

   temp. (K)  partition function   enthalpy   heat capacity  entropy
                                   cal/mol     cal/K/mol   cal/K/mol   J/K/mol
  40.00  VIB   1.00                    0.000      0.000     -0.000
         ROT   138.                  119.236      2.981     12.772
         INT   138.                  119.236      2.981     12.772
         TR   0.130E+26              198.726      4.968     27.143
         TOT                         317.9617     7.9491    39.9150   167.0042

   temp. (K)  partition function   enthalpy   heat capacity  entropy
                                   cal/mol     cal/K/mol   cal/K/mol   J/K/mol
  20.00  VIB   1.00                    0.000      0.000     -0.000
         ROT   48.8                   59.618      2.981     10.706
         INT   48.8                   59.618      2.981     10.705
         TR   0.458E+25               99.363      4.968     23.701
         TOT                         158.9808     7.9490    34.4066   143.9571

   temp. (K)  partition function   enthalpy   heat capacity  entropy
                                   cal/mol     cal/K/mol   cal/K/mol   J/K/mol
  10.00  VIB   1.00                    0.000      0.000     -0.001
         ROT   17.2                   29.809      2.981      8.640
         INT   17.2                   29.809      2.981      8.639
         TR   0.162E+25               49.681      4.968     20.259
         TOT                          79.4904     7.9490    28.8982   120.9101

       T/K    H(0)-H(T)+PV         H(T)/Eh          T*S/Eh         G(T)/Eh
   ------------------------------------------------------------------------
    298.15    0.444531E-02    0.323633E-01    0.274656E-01    0.489777E-02
    120.00    0.153623E-02    0.294543E-01    0.932156E-02    0.201327E-01
    100.00    0.127195E-02    0.291900E-01    0.752722E-02    0.216628E-01
     80.00    0.101437E-02    0.289324E-01    0.579202E-02    0.231404E-01
     60.00    0.760116E-03    0.286781E-01    0.412467E-02    0.245535E-01
     40.00    0.506704E-03    0.284247E-01    0.254434E-02    0.258804E-01
     20.00    0.253352E-03    0.281714E-01    0.109661E-02    0.270748E-01
     10.00    0.126676E-03    0.280447E-01    0.460522E-03    0.275842E-01 (used)
   ------------------------------------------------------------------------

         :::::::::::::::::::::::::::::::::::::::::::::::::::::
         ::                  THERMODYNAMIC                  ::
         :::::::::::::::::::::::::::::::::::::::::::::::::::::
         :: total free energy          -9.066799367637 Eh   ::
         ::.................................................::
         :: total energy               -9.094383545444 Eh   ::
         :: zero point energy           0.027918023995 Eh   ::
         :: G(RRHO) w/o ZPVE           -0.000333846187 Eh   ::
         :: G(RRHO) contrib.            0.027584177807 Eh   ::
         :::::::::::::::::::::::::::::::::::::::::::::::::::::

optimized geometry written to: xtbopt.xyz


           -------------------------------------------------
          | TOTAL ENERGY               -9.094383545444 Eh   |
          | TOTAL ENTHALPY             -9.066338845434 Eh   |
          | TOTAL FREE ENERGY          -9.066799367637 Eh   |
          | GRADIENT NORM               0.000369831037 Eh/α |
          | HOMO-LUMO GAP               2.324485630904 eV   |
           -------------------------------------------------

------------------------------------------------------------------------
 * finished run on 2020/05/12 at 11:45:15.247     
------------------------------------------------------------------------
 total:
 * wall-time:     0 d,  0 h,  0 min,  0.102 sec
 *  cpu-time:     0 d,  0 h,  0 min,  0.101 sec
 * ratio c/w:     0.989 speedup
 SCF:
 * wall-time:     0 d,  0 h,  0 min,  0.003 sec
 *  cpu-time:     0 d,  0 h,  0 min,  0.003 sec
 * ratio c/w:     1.000 speedup
 ANC optimizer:
 * wall-time:     0 d,  0 h,  0 min,  0.020 sec
 *  cpu-time:     0 d,  0 h,  0 min,  0.020 sec
 * ratio c/w:     0.988 speedup
 numerical hessian:
 * wall-time:     0 d,  0 h,  0 min,  0.061 sec
 *  cpu-time:     0 d,  0 h,  0 min,  0.060 sec
 * ratio c/w:     0.987 speedup

