[Molden Format]
[Title]
[Atoms] AU
O      1     8  0.30288108424710E-01 -0.80351816595852E-03  0.95707954593067E+00
C      2     6 -0.23475165090568E+01  0.14985234000503E+00  0.52703476999251E+00
C      3     6  0.20206904290794E+01 -0.14088038886847E+00 -0.41414926164302E+00
H      4     1 -0.34377367725330E+01  0.23459095125565E+00  0.22783462441746E+01
H      5     1  0.37342889907444E+01 -0.24275226099013E+00  0.73304510749427E+00
[GTO]
           1 0
 s           4   1.0000000000000000     
   69.137961906196551      -0.20478756370077797     
   11.906129132707308      -0.24997023136827334     
  0.95670827744340703       0.40025880240639616     
  0.36462520496073686       0.15952206667693555     
 p           4   1.0000000000000000     
   8.2124193257781641        1.1321556799186829     
   2.1293576997098116        1.0476840782254817     
  0.75066448202360914       0.54956508217158984     
  0.29885246543283073        8.2908486592766617E-002

           2 0
 s           4   1.0000000000000000     
   51.049363095579913      -0.16312063210127389     
   8.7911227406887544      -0.19911024581000730     
  0.70640422258929825       0.31882047753655751     
  0.26922813413411617       0.12706504184240380     
 p           4   1.0000000000000000     
   5.8263656140800002       0.73716451545209605     
   1.5106896018720002       0.68216371614850257     
  0.53256483288000001       0.35783053929253711     
  0.21202323690600003        5.3983030275847881E-002

           3 0
 s           4   1.0000000000000000     
   51.049363095579913      -0.16312063210127389     
   8.7911227406887544      -0.19911024581000730     
  0.70640422258929825       0.31882047753655751     
  0.26922813413411617       0.12706504184240380     
 p           4   1.0000000000000000     
   5.8263656140800002       0.73716451545209605     
   1.5106896018720002       0.68216371614850257     
  0.53256483288000001       0.35783053929253711     
  0.21202323690600003        5.3983030275847881E-002

           4 0
 s           3   1.0000000000000000     
   3.3702276975336001       0.27359110588908298     
  0.61389118221497996       0.26460540653860526     
  0.16614291148415999        8.2465947534082318E-002

           5 0
 s           3   1.0000000000000000     
   3.3702276975336001       0.27359110588908298     
  0.61389118221497996       0.26460540653860526     
  0.16614291148415999        8.2465947534082318E-002

[MO]
Sym=     1a
Ene=  -0.77277952964672747     
Spin= Alpha
Occup=     2.00000000
           1  0.76771546136015967     
           2  -1.4681296362179465E-002
           3   3.9993883166002152E-004
           4  -6.8260042802437457E-002
           5  0.16509345127105590     
           6  0.14231577356177508     
           7  -9.0850678081197574E-003
           8   1.7322207027511999E-002
           9  0.16509292261267369     
          10 -0.12258886103616148     
          11   8.5460713566975852E-003
          12   7.4399007347248580E-002
          13   6.6501565988824731E-003
          14   6.6500828910383142E-003
Sym=     2a
Ene=  -0.70993340099162183     
Spin= Alpha
Occup=     2.00000000
           1   7.5749046811890531E-007
           2  0.59371138043680383     
           3  -3.9515353273575270E-002
           4 -0.12792240751856851     
           5 -0.31570591128749242     
           6 -0.13551344539074023     
           7   8.2222734909244456E-003
           8  -6.9607343229148605E-002
           9  0.31570587563954983     
          10  -9.4895499516205295E-002
          11   7.1129661205568545E-003
          12  0.11925180656952647     
          13  -7.1151978444082900E-002
          14   7.1151890588964109E-002
Sym=     3a
Ene=  -0.61848539255286661     
Spin= Alpha
Occup=     2.00000000
           1 -0.27593413746322376     
           2 -0.16386423411718937     
           3   4.4793193906706181E-003
           4 -0.76190786836866731     
           5  0.16389474027439627     
           6   6.4335331129115395E-002
           7  -5.9154446893286633E-003
           8 -0.21652190422229861     
           9  0.16389465016042817     
          10 -0.14764707754329293     
          11   8.1933718694320347E-003
          12 -0.17084728540816621     
          13  -4.0389191997595338E-002
          14  -4.0389063076023267E-002
Sym=     4a
Ene=  -0.60240432235014285     
Spin= Alpha
Occup=     2.00000000
           1   4.3450949449780838E-006
           2   5.3271762075821294E-002
           3  0.82184744908517515     
           4  -6.6252768697747950E-003
           5  -3.4821535119948947E-006
           6   1.7698233969110633E-002
           7  0.27302039765790109     
           8  -2.2018264343074486E-003
           9  -3.4973921749242378E-006
          10   1.7695685731869651E-002
          11  0.27302010555837125     
          12  -2.2012883736659003E-003
          13  -5.3149296011368863E-006
          14  -5.1683375403325845E-006
Sym=     5a
Ene=  -0.55034622446327441     
Spin= Alpha
Occup=     2.00000000
           1  0.18987168997287379     
           2   2.4384321620443401E-003
           3  -7.9564744820533116E-005
           4   1.1345512948346254E-002
           5 -0.39452623757476957     
           6  0.21862725930554883     
           7  -1.4983618527848137E-002
           8 -0.10048848657263725     
           9 -0.39452525753601597     
          10 -0.24057095913349288     
          11   1.5578866754824347E-002
          12  -1.5486623824297577E-003
          13 -0.33805688763268732     
          14 -0.33805544554805833     
Sym=     6a
Ene=  -0.51289894887121412     
Spin= Alpha
Occup=     2.00000000
           1  -5.3807130460846852E-007
           2 -0.28321016700741980     
           3   1.8849294762248583E-002
           4   6.1021171414828851E-002
           5 -0.23412220215087773     
           6  0.35993892776847319     
           7  -2.3962526024986656E-002
           8  -7.9106635705762512E-002
           9  0.23412389234164546     
          10  0.36057771526831967     
          11  -2.3992563333585157E-002
          12  -7.6137172119988480E-002
          13 -0.35428679595944140     
          14  0.35428841116424603     
Sym=     7a
Ene=  -0.40200356161429507     
Spin= Alpha
Occup=     2.00000000
           1  -3.1905823374992242E-007
           2  -6.3706512090334150E-002
           3   4.2401786673931952E-003
           4   1.3725411419406048E-002
           5 -0.39884321903249559     
           6  0.11818173387121682     
           7  -3.2732437014764610E-003
           8  0.54572908035234291     
           9  0.39884260823292855     
          10 -0.11662964950036095     
          11   3.1698662985383888E-003
          12 -0.54606206103868371     
          13  0.18330119788966254     
          14 -0.18330068536613287     
Sym=     8a
Ene=  -0.35565980337732472     
Spin= Alpha
Occup=     1.00000000
           1   9.2373750654180152E-008
           2   1.6805852090844141E-006
           3  -9.9560514778788906E-007
           4   1.0261787591315856E-007
           5  -1.2466785746152471E-006
           6   4.6237613199946639E-002
           7  0.71344872768383893     
           8  -5.7357011731336205E-003
           9   2.2118212069794075E-006
          10  -4.6258649213353778E-002
          11 -0.71344623519919892     
          12   5.7394335973683782E-003
          13   1.2886849797930131E-006
          14  -1.8534898985326538E-006
Sym=     9a
Ene=  -0.32875778314457271     
Spin= Alpha
Occup=     1.00000000
           1 -0.15591758802373476     
           2 -0.10585837374136038     
           3   2.9021731151121430E-003
           4 -0.49220532484452945     
           5 -0.31979516580071821     
           6  0.23245796422404413     
           7  -1.1039499272898516E-002
           8  0.50026606242650440     
           9 -0.31979632263631735     
          10  -6.2130231881874047E-003
          11   4.8441884196521109E-003
          12  0.55169212703946557     
          13  0.21667303081107528     
          14  0.21667349259553878     
Sym=    10a
Ene=  -0.24333450804728790     
Spin= Alpha
Occup=     0.00000000
           1   6.1880796341911242E-006
           2   4.0667811148616159E-002
           3  0.62738165522103295     
           4  -5.0520359657572258E-003
           5  -5.1388462972362269E-006
           6  -4.3410407620413378E-002
           7 -0.66973158925429421     
           8   5.3854067098096821E-003
           9  -4.9622455664365888E-006
          10  -4.3418148778534449E-002
          11 -0.66973241845315534     
          12   5.3874395513907342E-003
          13   5.0840297425660573E-006
          14   4.8651741924404377E-006
Sym=    11a
Ene=   0.10500229072873291     
Spin= Alpha
Occup=     0.00000000
           1  0.69102823606486086     
           2  -5.5842443334530811E-002
           3   1.5184762673568031E-003
           4 -0.25964425951768999     
           5 -0.63838210394724582     
           6 -0.32125551404341507     
           7   1.7593208590403638E-002
           8 -0.40219878220180943     
           9 -0.63838156184467454     
          10  0.12746208198052772     
          11  -1.2272319558561735E-002
          12 -0.49888003403553777     
          13  0.54514291479119215     
          14  0.54514175739430049     
Sym=    12a
Ene=   0.17922749512611588     
Spin= Alpha
Occup=     0.00000000
           1   1.1336098324029813E-006
           2 -0.12727048813481417     
           3   8.4708211129278059E-003
           4   2.7421293449013985E-002
           5  0.35467336176189113     
           6 -0.48903969808261694     
           7   3.5850192926938231E-002
           8  0.51673928633404498     
           9 -0.35467418438259135     
          10 -0.65814700448900110     
          11   4.0501890050265506E-002
          12 -0.26956407675028016     
          13 -0.79533211138924564     
          14  0.79533172919537543     
Sym=    13a
Ene=   0.22694073126822814     
Spin= Alpha
Occup=     0.00000000
           1 -0.61771382080756509     
           2   9.8358428246442350E-002
           3  -2.6913617935104433E-003
           4  0.45733176819718319     
           5  -6.7069903337563769E-002
           6  0.68836479820429897     
           7  -4.7799818016559699E-002
           8 -0.39601181409205566     
           9  -6.7070485817632197E-002
          10 -0.79019017650245160     
          11   5.0607241978086213E-002
          12  -7.7439680592951365E-002
          13  0.58390468971398302     
          14  0.58390611093084011     
Sym=    14a
Ene=   0.53003934887817516     
Spin= Alpha
Occup=     0.00000000
           1  -2.1405203004550874E-007
           2   1.0641786841666192     
           3  -7.0828033666900742E-002
           4 -0.22929030252256305     
           5  0.61046568008419133     
           6  0.62829711767516816     
           7  -3.8447104989805247E-002
           8  0.28265128546019047     
           9 -0.61046556601848467     
          10  0.45644984480689904     
          11  -3.3749976049627442E-002
          12 -0.51637341376094859     
          13 -0.12022485701945494     
          14  0.12022495197021245     
