5
 energy: -9.050846948607 gnorm: 0.180061637935 xtb: 6.2.2 (9d81278992624c895f80dd42a50cac0aa55982e2)
O         0.09297000000000   -0.00253500000000    0.86423200000000
C        -1.16183300000000    0.07393600000000    0.26191800000000
C         0.98902900000000   -0.06920400000000   -0.20150400000000
H        -1.94544500000000    0.13102900000000    1.04532100000000
H         2.02527900000000   -0.13322600000000    0.18979400000000
5
 energy: -9.081989556200 gnorm: 0.098182612748 xtb: 6.2.2 (9d81278992624c895f80dd42a50cac0aa55982e2)
O         0.05723012971092   -0.00156042993175    0.69805374151127
C        -1.23190515798444    0.07873184828212    0.29328330169647
C         1.06578858452371   -0.07418037125248   -0.20177407666727
H        -1.95109264463300    0.13197441261963    1.11720931994958
H         2.05997908838280   -0.13496545971753    0.25298871350994
5
 energy: -9.092869873128 gnorm: 0.013727972220 xtb: 6.2.2 (9d81278992624c895f80dd42a50cac0aa55982e2)
O         0.03462325111989   -0.00094602021637    0.59293969011474
C        -1.21946871035152    0.07797383883368    0.29914462379929
C         1.05686310592958   -0.07351768846778   -0.19131022825225
H        -1.88917448760163    0.12822933418067    1.15032010004681
H         2.01715684090368   -0.13173946433020    0.30866681429141
5
 energy: -9.094173116544 gnorm: 0.009791792782 xtb: 6.2.2 (9d81278992624c895f80dd42a50cac0aa55982e2)
O         0.02210431025750   -0.00060574412605    0.53473149709859
C        -1.23097991453254    0.07858028664426    0.28175413585812
C         1.06020588977601   -0.07389955917019   -0.21190123458925
H        -1.84429280438538    0.12564843305134    1.19097341534221
H         1.99296251888441   -0.12972341639937    0.36420318629033
5
 energy: -9.094344870791 gnorm: 0.006016786424 xtb: 6.2.2 (9d81278992624c895f80dd42a50cac0aa55982e2)
O         0.01771570861802   -0.00048459501722    0.51432527763957
C        -1.23849147193699    0.07904527450131    0.27896989459285
C         1.06590769125800   -0.07431394060100   -0.21753276037057
H        -1.82859521596560    0.12472411544449    1.20266989057494
H         1.98346328802658   -0.12897085432757    0.38132869756321
5
 energy: -9.094382401983 gnorm: 0.001113273747 xtb: 6.2.2 (9d81278992624c895f80dd42a50cac0aa55982e2)
O         0.01614588729233   -0.00044599171292    0.50702731270345
C        -1.24158566243292    0.07924800167924    0.27934581712356
C         1.06888231007224   -0.07451503033435   -0.21846460210163
H        -1.82126379811520    0.12427231543092    1.20519917393408
H         1.97782126318355   -0.12855929506290    0.38665329834054
5
 energy: -9.094383546197 gnorm: 0.000370033245 xtb: 6.2.2 (9d81278992624c895f80dd42a50cac0aa55982e2)
O         0.01602601255739   -0.00042600356797    0.50646478691931
C        -1.24225374277512    0.07929145951341    0.27889061761760
C         1.06930457990085   -0.07454471681137   -0.21915476903689
H        -1.81917698435979    0.12412856739797    1.20564288935239
H         1.97610013467667   -0.12844930653203    0.38791747514758
