 Entering Gaussian System
 *********************************************
 Gaussian 98:
 frequency output generated by the xtb code
 *********************************************
                         Standard orientation:
 --------------------------------------------------------------------
  Center     Atomic     Atomic              Coordinates (Angstroms)
  Number     Number      Type              X           Y           Z
 --------------------------------------------------------------------
    1          8             0        0.016028   -0.000425    0.506465
    2          6             0       -1.242252    0.079298    0.278895
    3          6             0        1.069303   -0.074551   -0.219158
    4          1             0       -1.819172    0.124140    1.205649
    5          1             0        1.976101   -0.128459    0.387911
 --------------------------------------------------------------------
     1 basis functions        1 primitive gaussians
     1 alpha electrons        1 beta electrons

 Harmonic frequencies (cm**-1), IR intensities (KM/Mole),
 Raman scattering activities (A**4/amu), Raman depolarization ratios,
 reduced masses (AMU), force constants (mDyne/A) and normal coordinates:
                      1                      2                      3
                        a                      a                      a 
 Frequencies --   452.6161               485.0061               764.4404
 Red. masses --    11.5072                 4.8636                 3.0378
 Frc consts  --     0.0000                 0.0000                 0.0000
 IR Inten    --     0.0793                 0.0060                 0.0002
 Raman Activ --     0.0000                 0.0000                 0.0000
 Depolar     --     0.0000                 0.0000                 0.0000
 Atom AN      X      Y      Z        X      Y      Z        X      Y      Z
   1   8     0.14  -0.00   0.64    -0.03  -0.49   0.00    -0.00  -0.00  -0.00
   2   6     0.24  -0.02  -0.35     0.01   0.11  -0.00    -0.02  -0.30   0.00
   3   6    -0.36   0.02  -0.22     0.01   0.11  -0.00     0.02   0.30  -0.00
   4   1    -0.18   0.01  -0.27     0.04   0.61  -0.00     0.04   0.64  -0.01
   5   1     0.05  -0.01  -0.31     0.04   0.61  -0.00    -0.04  -0.64   0.01
                      4                      5                      6
                        a                      a                      a 
 Frequencies --  1010.2936              1079.6322              1287.6624
 Red. masses --     3.6022                 5.9394                 9.7793
 Frc consts  --     0.0000                 0.0000                 0.0000
 IR Inten    --     1.1140                 0.0758                 0.1356
 Raman Activ --     0.0000                 0.0000                 0.0000
 Depolar     --     0.0000                 0.0000                 0.0000
 Atom AN      X      Y      Z        X      Y      Z        X      Y      Z
   1   8     0.05  -0.00  -0.01    -0.01   0.00  -0.06    -0.09   0.00  -0.42
   2   6    -0.21   0.01  -0.26     0.44  -0.03  -0.15     0.47  -0.03   0.23
   3   6    -0.09   0.01   0.33    -0.47   0.03   0.05    -0.33   0.02   0.40
   4   1     0.52  -0.03   0.34     0.48  -0.03   0.21    -0.29   0.02  -0.22
   5   1     0.33  -0.03  -0.52    -0.35   0.03   0.39     0.18  -0.01  -0.32
                      7                      8                      9
                        a                      a                      a 
 Frequencies --  1384.9388              2888.0839              2901.9225
 Red. masses --    13.6035                 1.7710                 1.8097
 Frc consts  --     0.0000                 0.0000                 0.0000
 IR Inten    --     1.2971                 0.4690                 0.0029
 Raman Activ --     0.0000                 0.0000                 0.0000
 Depolar     --     0.0000                 0.0000                 0.0000
 Atom AN      X      Y      Z        X      Y      Z        X      Y      Z
   1   8     0.75  -0.05  -0.16    -0.02   0.00   0.00     0.00  -0.00   0.00
   2   6    -0.41   0.03  -0.02    -0.11   0.01   0.15     0.10  -0.01  -0.16
   3   6    -0.37   0.03   0.19    -0.16   0.01  -0.09    -0.16   0.01  -0.10
   4   1    -0.18   0.01  -0.06     0.40  -0.03  -0.55    -0.38   0.03   0.56
   5   1    -0.13   0.01   0.13     0.59  -0.04   0.34     0.58  -0.03   0.35
