      -----------------------------------------------------------      
     |                   =====================                   |     
     |                           x T B                           |     
     |                   =====================                   |     
     |                         S. Grimme                         |     
     |          Mulliken Center for Theoretical Chemistry        |     
     |                    University of Bonn                     |     
      -----------------------------------------------------------      

   * xtb version 6.2.2 (9d81278992624c895f80dd42a50cac0aa55982e2) compiled by '@Darwin' on 04/03/2020

   xtb is free software: you can redistribute it and/or modify it under
   the terms of the GNU Lesser General Public License as published by
   the Free Software Foundation, either version 3 of the License, or
   (at your option) any later version.
   
   xtb is distributed in the hope that it will be useful,
   but WITHOUT ANY WARRANTY; without even the implied warranty of
   MERCHANTABILITY or FITNESS FOR A PARTICULAR PURPOSE.  See the
   GNU Lesser General Public License for more details.
   
   Cite this work as:
   * S. Grimme, C. Bannwarth, P. Shushkov, J. Chem. Theory Comput., 2017,
     13, 1989-2009. DOI: 10.1021/acs.jctc.7b00118
   * C. Bannwarth, S. Ehlert and S. Grimme., J. Chem. Theory Comput., 2019,
     15, 1652-1671. DOI: 10.1021/acs.jctc.8b01176
   * P. Pracht, E. Caldeweyher, S. Ehlert, S. Grimme, ChemRxiv, 2019, preprint.
     DOI: 10.26434/chemrxiv.8326202.v1
   
   for DFT-D4:
   * E. Caldeweyher, C. Bannwarth and S. Grimme, J. Chem. Phys., 2017,
     147, 034112. DOI: 10.1063/1.4993215
   * E. Caldeweyher, S. Ehlert, A. Hansen, H. Neugebauer, S. Spicher,
     C. Bannwarth and S. Grimme, J. Chem. Phys., 2019, 150, 154122.
     DOI: 10.1063/1.5090222
   
   for sTDA-xTB:
   * S. Grimme and C. Bannwarth, J. Chem. Phys., 2016, 145, 054103.
     DOI: 10.1063/1.4959605
   
   in the mass-spec context:
   * V. Asgeirsson, C. Bauer and S. Grimme, Chem. Sci., 2017, 8, 4879.
     DOI: 10.1039/c7sc00601b
   
   for metadynamics refer to:
   * S. Grimme, J. Chem. Theory Comput., 2019, 155, 2847-2862
     DOI: 10.1021/acs.jctc.9b00143
   
   with help from (in alphabetical order)
   C. Bannwarth, F. Bohle, G. Brandenburg, E. Caldeweyher, M. Checinski,
   S. Dohm, S. Ehlert, S. Ehrlich, F. März, H. Neugebauer, J. Pisarek,
   P. Pracht, P. Shushkov, and S. Spicher.
   
 * started run on 2020/05/12 at 11:45:20.587     

           -------------------------------------------------
          |                Calculation Setup                |
           -------------------------------------------------

          program call               : xtb --input H2C1N2_2_S_0.input H2C1N2_2_S_0.xyz --ohess --molden --namespace H2C1N2_2_S_0 output.out
          calculation namespace      : H2C1N2_2_S_0
          coordinate file            : H2C1N2_2_S_0.xyz
          number of atoms            :                     5
          number of electrons        :                    16
          charge                     :                     0
          spin                       :                   0.0
          first test random number   :      0.11451258147375

   ID    Z sym.   atoms
    1    7 N      1, 3
    2    6 C      2
    3    1 H      4, 5

           -------------------------------------------------
          |                 G F N 2 - x T B                 |
           -------------------------------------------------

        Reference                      10.1021/acs.jctc.8b01176
      * Hamiltonian:
        H0-scaling (s, p, d)           1.850000    2.230000    2.230000
        zeta-weighting                 0.500000
      * Dispersion:
        s8                             2.700000
        a1                             0.520000
        a2                             5.000000
        s9                             5.000000
      * Repulsion:
        kExp                           1.500000    1.000000
        rExp                           1.000000
      * Coulomb:
        alpha                          2.000000
        third order                    shell-resolved
        anisotropic                    true
        a3                             3.000000
        a5                             4.000000
        cn-shift                       1.200000
        cn-exp                         4.000000
        max-rad                        5.000000


          ...................................................
          :                      SETUP                      :
          :.................................................:
          :  # basis functions                  14          :
          :  # atomic orbitals                  14          :
          :  # shells                            8          :
          :  # electrons                        16          :
          :  max. iterations                   250          :
          :  Hamiltonian                  GFN2-xTB          :
          :  restarted?                      false          :
          :  GBSA solvation                  false          :
          :  PC potential                    false          :
          :  electronic temp.          300.0000000     K    :
          :  accuracy                    1.0000000          :
          :  -> integral cutoff          0.2500000E+02      :
          :  -> integral neglect         0.1000000E-07      :
          :  -> SCF convergence          0.1000000E-05 Eh   :
          :  -> wf. convergence          0.1000000E-03 e    :
          :  Broyden damping             0.4000000          :
          ...................................................

 iter      E             dE          RMSdq      gap      omega  full diag
   1     -8.7296390 -0.872964E+01  0.740E+00    0.74       0.0  T
   2     -8.7297282 -0.892021E-04  0.485E+00    0.70       1.0  T
   3     -8.5210447  0.208683E+00  0.693E+00    1.54       1.0  T
   4     -8.0221446  0.498900E+00  0.102E+01    0.77       1.0  T
   5     -8.6319278 -0.609783E+00  0.454E+00    1.13       1.0  T
   6     -8.7331506 -0.101223E+00  0.191E+00    0.80       1.0  T
   7     -8.7309199  0.223066E-02  0.188E+00    0.79       1.0  T
   8     -8.7398917 -0.897178E-02  0.150E+00    0.64       1.0  T
   9     -8.7436438 -0.375206E-02  0.120E+00    0.64       1.0  T
  10     -8.7501466 -0.650284E-02  0.137E-01    0.67       1.0  T
  11     -8.7501589 -0.122890E-04  0.103E-01    0.68       1.0  T
  12     -8.7502182 -0.593056E-04  0.137E-02    0.68       3.3  T
  13     -8.7502127  0.544244E-05  0.338E-02    0.68       1.3  T
  14     -8.7502184 -0.567593E-05  0.373E-03    0.68      12.0  T
  15     -8.7502185 -0.877683E-07  0.589E-04    0.68      75.9  T
  16     -8.7502185  0.147754E-08  0.624E-04    0.68      71.7  T

   *** convergence criteria satisfied after 16 iterations ***

         #    Occupation            Energy/Eh            Energy/eV
      -------------------------------------------------------------
         1        2.0000           -0.7037934             -19.1512
         2        2.0000           -0.6490135             -17.6606
         3        2.0000           -0.6105113             -16.6129
         4        2.0000           -0.5728008             -15.5867
         5        2.0000           -0.5064202             -13.7804
         6        2.0000           -0.5014048             -13.6439
         7        2.0000           -0.4190155             -11.4020
         8        2.0000           -0.3904341             -10.6243 (HOMO)
         9        0.0000           -0.3653839              -9.9426 (LUMO)
        10                         -0.3550127              -9.6604
        11                         -0.0182776              -0.4974
        12                          0.0092141               0.2507
        13                          0.0642820               1.7492
        14                          0.1298467               3.5333
      -------------------------------------------------------------
                  HL-Gap            0.0250502 Eh            0.6817 eV
             Fermi-level           -0.3779090 Eh          -10.2834 eV

 SCC (total)                   0 d,  0 h,  0 min,  0.003 sec
 SCC setup                      ...        0 min,  0.000 sec (  2.940%)
 Dispersion                     ...        0 min,  0.000 sec (  0.369%)
 integral evaluation            ...        0 min,  0.001 sec ( 23.725%)
 zeroth order Hamiltonian       ...        0 min,  0.000 sec (  0.456%)
 iterations                     ...        0 min,  0.001 sec ( 43.801%)
 molecular gradient             ...        0 min,  0.001 sec ( 25.188%)
 printout                       ...        0 min,  0.000 sec (  3.136%)

         :::::::::::::::::::::::::::::::::::::::::::::::::::::
         ::                     SUMMARY                     ::
         :::::::::::::::::::::::::::::::::::::::::::::::::::::
         :: total energy              -8.704907031568 Eh    ::
         :: gradient norm              0.169225193191 Eh/a0 ::
         :: HOMO-LUMO gap              0.681651964517 eV    ::
         ::.................................................::
         :: SCC energy                -8.750218509963 Eh    ::
         :: -> isotropic ES           -0.006854460101 Eh    ::
         :: -> anisotropic ES          0.002599618683 Eh    ::
         :: -> anisotropic XC          0.011720567968 Eh    ::
         :: -> dispersion             -0.001488322488 Eh    ::
         :: repulsion energy           0.045311440810 Eh    ::
         :: add. restraining           0.000000000000 Eh    ::
         :::::::::::::::::::::::::::::::::::::::::::::::::::::

      ----------------------------------------------------------- 
     |                   =====================                   |
     |                        A N C O P T                        |
     |                   =====================                   |
     |               Approximate Normal Coordinate               |
     |                Rational Function Optimizer                |
      ----------------------------------------------------------- 

          ...................................................
          :                      SETUP                      :
          :.................................................:
          :   optimization level            normal          :
          :   max. optcycles                   200          :
          :   ANC micro-cycles                  20          :
          :   degrees of freedom                 9          :
          :.................................................:
          :   RF solver                   davidson          :
          :   write xtbopt.log                true          :
          :   linear?                        false          :
          :   energy convergence         0.5000000E-05 Eh   :
          :   grad. convergence          0.1000000E-02 Eh/α :
          :   maximium RF displ.         1.0000000          :
          :   Hlow (freq-cutoff)         0.1000000E-01      :
          :   Hmax (freq-cutoff)         5.0000000          :
          :   S6 in model hess.         20.0000000          :
          ...................................................

generating ANC from model Hessian ...
Using Lindh-Hessian (1995)
 Shifting diagonal of input Hessian by    0.0000000000000000     
 Lowest  eigenvalues of input Hessian
   -0.000000   -0.000000    0.000000    0.000000    0.000000    0.000000
    0.021150    0.060081    0.129163    0.160159    0.249549    0.731996
    0.988809    1.185584    1.387454
 Highest eigenvalues
    0.160159    0.249549    0.731996    0.988809    1.185584    1.387454


........................................................................
.............................. CYCLE    1 ..............................
........................................................................
   1     -8.7502185 -0.875022E+01  0.178E-04    0.68       0.0  T
   2     -8.7502185  0.120664E-07  0.137E-03    0.68      32.6  T
   3     -8.7502185 -0.120831E-07  0.149E-04    0.68     300.9  T
   4     -8.7502185 -0.139403E-09  0.860E-06    0.68    5201.8  T
     SCC iter.                  ...        0 min,  0.001 sec
     gradient                   ...        0 min,  0.001 sec
 * total energy  :    -8.7049070 Eh     change       -0.2126241E-08 Eh
   gradient norm :     0.1692257 Eh/α   predicted     0.0000000E+00 (-100.00%)
   displ. norm   :     0.4197882 α      lambda       -0.5324822E-01
   maximum displ.:     0.3296961 α      in ANC's #3, #4, #6, ...

........................................................................
.............................. CYCLE    2 ..............................
........................................................................
   1     -8.8044277 -0.880443E+01  0.221E+00    1.94       0.0  T
   2     -8.7292035  0.752242E-01  0.357E+00    2.37       1.0  T
   3     -8.8067917 -0.775882E-01  0.148E+00    1.91       1.0  T
   4     -8.8149821 -0.819035E-02  0.229E-01    1.96       1.0  T
   5     -8.8150863 -0.104236E-03  0.889E-02    1.96       1.0  T
   6     -8.8150590  0.273349E-04  0.738E-02    1.96       1.0  T
   7     -8.8150890 -0.300675E-04  0.716E-03    1.96       6.2  T
   8     -8.8150889  0.808932E-07  0.444E-03    1.96      10.1  T
   9     -8.8150891 -0.112593E-06  0.688E-04    1.96      65.0  T
  10     -8.8150891 -0.102693E-08  0.172E-04    1.96     260.2  T
     SCC iter.                  ...        0 min,  0.001 sec
     gradient                   ...        0 min,  0.001 sec
 * total energy  :    -8.7535315 Eh     change       -0.4862450E-01 Eh
   gradient norm :     0.1341431 Eh/α   predicted    -0.3131587E-01 ( -35.60%)
   displ. norm   :     0.7589747 α      lambda       -0.8348847E-01
   maximum displ.:     0.5688685 α      in ANC's #3, #6, #4, ...

........................................................................
.............................. CYCLE    3 ..............................
........................................................................
   1     -8.9108870 -0.891089E+01  0.393E+00    3.26       0.0  T
   2     -8.9139284 -0.304142E-02  0.201E+00    3.57       1.0  T
   3     -8.9093730  0.455541E-02  0.130E+00    3.00       1.0  T
   4     -8.9160656 -0.669262E-02  0.253E-01    3.25       1.0  T
   5     -8.9160682 -0.256046E-05  0.136E-01    3.22       1.0  T
   6     -8.9160792 -0.110202E-04  0.206E-02    3.22       2.2  T
   7     -8.9160793 -0.103281E-06  0.282E-03    3.22      15.8  T
   8     -8.9160793 -0.532060E-08  0.106E-03    3.22      42.0  T
   9     -8.9160793 -0.681050E-09  0.263E-04    3.22     169.8  T
  10     -8.9160793 -0.149250E-10  0.426E-05    3.22    1050.7  T
     SCC iter.                  ...        0 min,  0.001 sec
     gradient                   ...        0 min,  0.001 sec
 * total energy  :    -8.8031864 Eh     change       -0.4965482E-01 Eh
   gradient norm :     0.1628505 Eh/α   predicted    -0.6579072E-01 (  32.50%)
   displ. norm   :     0.6467932 α      lambda       -0.4672735E-01
   maximum displ.:     0.4635007 α      in ANC's #3, #1, #4, ...

........................................................................
.............................. CYCLE    4 ..............................
........................................................................
   1     -8.8446633 -0.884466E+01  0.618E+00    2.62       0.0  T
   2     -8.8869621 -0.422989E-01  0.217E+00    2.37       1.0  T
   3     -8.8952084 -0.824628E-02  0.157E+00    2.77       1.0  T
   4     -8.8993264 -0.411795E-02  0.465E-01    2.38       1.0  T
   5     -8.8999352 -0.608854E-03  0.107E-01    2.49       1.0  T
   6     -8.8999384 -0.323944E-05  0.481E-02    2.50       1.0  T
   7     -8.8999455 -0.702328E-05  0.671E-03    2.49       6.7  T
   8     -8.8999455 -0.183941E-07  0.131E-03    2.49      34.2  T
   9     -8.8999455 -0.719904E-09  0.359E-04    2.49     124.7  T
  10     -8.8999455 -0.232649E-09  0.955E-05    2.49     468.1  T
     SCC iter.                  ...        0 min,  0.001 sec
     gradient                   ...        0 min,  0.001 sec
 * total energy  :    -8.8167188 Eh     change       -0.1353247E-01 Eh
   gradient norm :     0.0921331 Eh/α   predicted    -0.3313766E-01 ( 144.88%)
   displ. norm   :     0.2959113 α      lambda       -0.1834559E-01
   maximum displ.:     0.2563294 α      in ANC's #3, #2, #6, ...

........................................................................
.............................. CYCLE    5 ..............................
........................................................................
   1     -8.8892875 -0.888929E+01  0.280E+00    2.75       0.0  T
   2     -8.8955298 -0.624229E-02  0.130E+00    2.68       1.0  T
   3     -8.8987744 -0.324459E-02  0.833E-01    2.35       1.0  T
   4     -8.9003246 -0.155014E-02  0.302E-01    2.55       1.0  T
   5     -8.9005031 -0.178571E-03  0.665E-02    2.49       1.0  T
   6     -8.9005020  0.109725E-05  0.231E-02    2.50       1.9  T
   7     -8.9005038 -0.177942E-05  0.524E-03    2.49       8.5  T
   8     -8.9005038 -0.344316E-07  0.128E-03    2.49      34.9  T
   9     -8.9005038 -0.149233E-08  0.258E-04    2.49     173.2  T
  10     -8.9005038 -0.111202E-09  0.848E-05    2.49     527.3  T
     SCC iter.                  ...        0 min,  0.001 sec
     gradient                   ...        0 min,  0.001 sec
 * total energy  :    -8.8214131 Eh     change       -0.4694287E-02 Eh
   gradient norm :     0.0691209 Eh/α   predicted    -0.9976009E-02 ( 112.51%)
   displ. norm   :     0.1609689 α      lambda       -0.7825707E-02
   maximum displ.:     0.1339965 α      in ANC's #4, #6, #1, ...

........................................................................
.............................. CYCLE    6 ..............................
........................................................................
   1     -8.9212201 -0.892122E+01  0.938E-01    2.87       0.0  T
   2     -8.9217783 -0.558196E-03  0.471E-01    3.04       1.0  T
   3     -8.9218057 -0.273929E-04  0.223E-01    2.97       1.0  T
   4     -8.9218228 -0.170893E-04  0.802E-02    3.01       1.0  T
   5     -8.9218432 -0.203959E-04  0.405E-02    2.99       1.1  T
   6     -8.9218446 -0.136072E-05  0.547E-03    2.99       8.2  T
   7     -8.9218446 -0.670350E-08  0.163E-03    2.99      27.4  T
   8     -8.9218446 -0.442858E-08  0.382E-04    2.99     117.0  T
   9     -8.9218446 -0.125937E-09  0.625E-05    2.99     715.1  T
     SCC iter.                  ...        0 min,  0.001 sec
     gradient                   ...        0 min,  0.001 sec
 * total energy  :    -8.8249290 Eh     change       -0.3515883E-02 Eh
   gradient norm :     0.0245740 Eh/α   predicted    -0.4014240E-02 (  14.17%)
   displ. norm   :     0.1027763 α      lambda       -0.1496687E-02
   maximum displ.:     0.0739241 α      in ANC's #3, #1, #2, ...

........................................................................
.............................. CYCLE    7 ..............................
........................................................................
   1     -8.9137626 -0.891376E+01  0.679E-01    2.94       0.0  T
   2     -8.9142435 -0.480945E-03  0.310E-01    2.92       1.0  T
   3     -8.9144389 -0.195338E-03  0.179E-01    2.98       1.0  T
   4     -8.9144780 -0.391096E-04  0.560E-02    2.94       1.0  T
   5     -8.9144846 -0.661981E-05  0.123E-02    2.95       3.6  T
   6     -8.9144846 -0.154592E-07  0.194E-03    2.95      23.0  T
   7     -8.9144846 -0.627344E-08  0.474E-04    2.95      94.3  T
   8     -8.9144846 -0.285171E-09  0.127E-04    2.95     351.7  T
     SCC iter.                  ...        0 min,  0.001 sec
     gradient                   ...        0 min,  0.001 sec
 * total energy  :    -8.8253437 Eh     change       -0.4147060E-03 Eh
   gradient norm :     0.0138806 Eh/α   predicted    -0.7562492E-03 (  82.36%)
   displ. norm   :     0.1021675 α      lambda       -0.7074158E-03
   maximum displ.:     0.1008586 α      in ANC's #1, #2, #8, ...

........................................................................
.............................. CYCLE    8 ..............................
........................................................................
   1     -8.9137001 -0.891370E+01  0.281E-01    2.94       0.0  T
   2     -8.9137082 -0.811529E-05  0.161E-01    2.95       1.0  T
   3     -8.9137111 -0.286779E-05  0.188E-02    2.95       2.4  T
   4     -8.9137112 -0.981386E-07  0.107E-02    2.96       4.2  T
   5     -8.9137112 -0.132970E-07  0.154E-03    2.96      29.1  T
   6     -8.9137112 -0.466734E-08  0.722E-04    2.95      62.0  T
   7     -8.9137112 -0.546214E-09  0.133E-04    2.95     336.0  T
     SCC iter.                  ...        0 min,  0.001 sec
     gradient                   ...        0 min,  0.001 sec
 * total energy  :    -8.8253996 Eh     change       -0.5586651E-04 Eh
   gradient norm :     0.0110082 Eh/α   predicted    -0.3573992E-03 ( 539.74%)
   displ. norm   :     0.0640623 α      lambda       -0.4450709E-03
   maximum displ.:     0.0539659 α      in ANC's #1, #2, #3, ...

........................................................................
.............................. CYCLE    9 ..............................
........................................................................
   1     -8.9161022 -0.891610E+01  0.151E-01    2.97       0.0  T
   2     -8.9161158 -0.136182E-04  0.799E-02    2.95       1.0  T
   3     -8.9161166 -0.757526E-06  0.371E-02    2.95       1.2  T
   4     -8.9161169 -0.354160E-06  0.141E-02    2.96       3.2  T
   5     -8.9161176 -0.709721E-06  0.397E-03    2.95      11.3  T
   6     -8.9161176 -0.214261E-08  0.286E-04    2.95     156.4  T
   7     -8.9161176 -0.206359E-10  0.666E-05    2.95     671.8  T
     SCC iter.                  ...        0 min,  0.000 sec
     gradient                   ...        0 min,  0.001 sec
 * total energy  :    -8.8256194 Eh     change       -0.2198096E-03 Eh
   gradient norm :     0.0070249 Eh/α   predicted    -0.2234481E-03 (   1.66%)
   displ. norm   :     0.0164030 α      lambda       -0.7106931E-04
   maximum displ.:     0.0107824 α      in ANC's #1, #5, #8, ...

........................................................................
.............................. CYCLE   10 ..............................
........................................................................
   1     -8.9158848 -0.891588E+01  0.776E-02    2.96       0.0  T
   2     -8.9158865 -0.170259E-05  0.401E-02    2.96       1.1  T
   3     -8.9158863  0.221173E-06  0.187E-02    2.96       2.4  T
   4     -8.9158870 -0.740583E-06  0.514E-03    2.96       8.7  T
   5     -8.9158871 -0.674667E-07  0.200E-03    2.96      22.4  T
   6     -8.9158871 -0.938861E-09  0.322E-04    2.96     138.8  T
   7     -8.9158871 -0.250253E-10  0.431E-05    2.96    1036.8  T
     SCC iter.                  ...        0 min,  0.000 sec
     gradient                   ...        0 min,  0.001 sec
 * total energy  :    -8.8256714 Eh     change       -0.5203580E-04 Eh
   gradient norm :     0.0044467 Eh/α   predicted    -0.3554221E-04 ( -31.70%)
   displ. norm   :     0.0463897 α      lambda       -0.1343386E-03
   maximum displ.:     0.0263671 α      in ANC's #5, #2, #1, ...

........................................................................
.............................. CYCLE   11 ..............................
........................................................................
   1     -8.9151852 -0.891519E+01  0.283E-01    2.95       0.0  T
   2     -8.9152346 -0.493310E-04  0.135E-01    2.95       1.0  T
   3     -8.9152439 -0.931786E-05  0.797E-02    2.97       1.0  T
   4     -8.9152529 -0.903193E-05  0.211E-02    2.95       2.1  T
   5     -8.9152543 -0.135919E-05  0.656E-03    2.96       6.8  T
   6     -8.9152543 -0.987991E-08  0.875E-04    2.96      51.1  T
   7     -8.9152543 -0.137796E-09  0.194E-04    2.96     230.5  T
     SCC iter.                  ...        0 min,  0.000 sec
     gradient                   ...        0 min,  0.001 sec
 * total energy  :    -8.8257808 Eh     change       -0.1093848E-03 Eh
   gradient norm :     0.0056092 Eh/α   predicted    -0.6731213E-04 ( -38.46%)
   displ. norm   :     0.1331423 α      lambda       -0.3048090E-03
   maximum displ.:     0.0830272 α      in ANC's #2, #5, #6, ...

........................................................................
.............................. CYCLE   12 ..............................
........................................................................
   1     -8.9121715 -0.891217E+01  0.778E-01    2.90       0.0  T
   2     -8.9125431 -0.371555E-03  0.373E-01    2.91       1.0  T
   3     -8.9125944 -0.513271E-04  0.206E-01    2.95       1.0  T
   4     -8.9126419 -0.474733E-04  0.572E-02    2.91       1.0  T
   5     -8.9126521 -0.102424E-04  0.199E-02    2.93       2.2  T
   6     -8.9126522 -0.615588E-07  0.257E-03    2.93      17.4  T
   7     -8.9126522 -0.133093E-08  0.664E-04    2.93      67.3  T
   8     -8.9126522 -0.521201E-09  0.127E-04    2.93     353.4  T
     SCC iter.                  ...        0 min,  0.001 sec
     gradient                   ...        0 min,  0.001 sec
 * total energy  :    -8.8259335 Eh     change       -0.1527326E-03 Eh
   gradient norm :     0.0135911 Eh/α   predicted    -0.1551065E-03 (   1.55%)
   displ. norm   :     0.0200404 α      lambda       -0.1326656E-03
   maximum displ.:     0.0117581 α      in ANC's #2, #3, #4, ...

........................................................................
.............................. CYCLE   13 ..............................
........................................................................
   1     -8.9130883 -0.891309E+01  0.143E-01    2.91       0.0  T
   2     -8.9131061 -0.177991E-04  0.604E-02    2.92       1.0  T
   3     -8.9131083 -0.217596E-05  0.345E-02    2.92       1.3  T
   4     -8.9131088 -0.545786E-06  0.110E-02    2.92       4.1  T
   5     -8.9131092 -0.416924E-06  0.373E-03    2.92      12.0  T
   6     -8.9131092 -0.190784E-08  0.473E-04    2.92      94.6  T
   7     -8.9131092 -0.896563E-10  0.871E-05    2.92     513.3  T
     SCC iter.                  ...        0 min,  0.000 sec
     gradient                   ...        0 min,  0.001 sec
 * total energy  :    -8.8260510 Eh     change       -0.1174459E-03 Eh
   gradient norm :     0.0105049 Eh/α   predicted    -0.6636027E-04 ( -43.50%)
   displ. norm   :     0.1921444 α      lambda       -0.7141510E-03
   maximum displ.:     0.1113939 α      in ANC's #2, #3, #5, ...

........................................................................
.............................. CYCLE   14 ..............................
........................................................................
   1     -8.9093073 -0.890931E+01  0.130E+00    2.78       0.0  T
   2     -8.9105728 -0.126555E-02  0.593E-01    2.84       1.0  T
   3     -8.9107238 -0.150915E-03  0.310E-01    2.84       1.0  T
   4     -8.9107661 -0.423584E-04  0.683E-02    2.82       1.0  T
   5     -8.9107761 -0.997373E-05  0.336E-02    2.84       1.3  T
   6     -8.9107767 -0.641497E-06  0.517E-03    2.84       8.6  T
   7     -8.9107767 -0.213074E-07  0.169E-03    2.84      26.4  T
   8     -8.9107768 -0.521702E-08  0.203E-04    2.84     220.0  T
   9     -8.9107768 -0.201936E-10  0.457E-05    2.84     979.0  T
     SCC iter.                  ...        0 min,  0.001 sec
     gradient                   ...        0 min,  0.001 sec
 * total energy  :    -8.8264883 Eh     change       -0.4372975E-03 Eh
   gradient norm :     0.0113179 Eh/α   predicted    -0.3702591E-03 ( -15.33%)
   displ. norm   :     0.0688996 α      lambda       -0.4435094E-03
   maximum displ.:     0.0396276 α      in ANC's #4, #3, #9, ...

........................................................................
.............................. CYCLE   15 ..............................
........................................................................
   1     -8.9117892 -0.891179E+01  0.345E-01    2.75       0.0  T
   2     -8.9118507 -0.615140E-04  0.165E-01    2.78       1.0  T
   3     -8.9118561 -0.539380E-05  0.829E-02    2.77       1.0  T
   4     -8.9118591 -0.300621E-05  0.128E-02    2.78       3.5  T
   5     -8.9118591  0.134982E-07  0.674E-03    2.77       6.6  T
   6     -8.9118592 -0.123780E-06  0.111E-03    2.77      40.1  T
   7     -8.9118592 -0.483803E-09  0.188E-04    2.77     237.5  T
   8     -8.9118592 -0.223501E-10  0.647E-05    2.77     691.5  T
     SCC iter.                  ...        0 min,  0.001 sec
     gradient                   ...        0 min,  0.001 sec
 * total energy  :    -8.8267034 Eh     change       -0.2151082E-03 Eh
   gradient norm :     0.0122310 Eh/α   predicted    -0.2228079E-03 (   3.58%)
   displ. norm   :     0.1427258 α      lambda       -0.4260805E-03
   maximum displ.:     0.0849339 α      in ANC's #4, #5, #7, ...

........................................................................
.............................. CYCLE   16 ..............................
........................................................................
   1     -8.9076394 -0.890764E+01  0.126E+00    2.80       0.0  T
   2     -8.9091228 -0.148341E-02  0.536E-01    2.84       1.0  T
   3     -8.9092999 -0.177096E-03  0.289E-01    2.81       1.0  T
   4     -8.9093306 -0.307269E-04  0.429E-02    2.83       1.0  T
   5     -8.9093307 -0.540731E-07  0.224E-02    2.82       2.0  T
   6     -8.9093316 -0.955066E-06  0.426E-03    2.82      10.5  T
   7     -8.9093317 -0.281285E-07  0.167E-03    2.82      26.9  T
   8     -8.9093317 -0.625479E-08  0.173E-04    2.82     259.1  T
   9     -8.9093317 -0.489742E-11  0.204E-05    2.82    2195.9  T
     SCC iter.                  ...        0 min,  0.001 sec
     gradient                   ...        0 min,  0.001 sec
 * total energy  :    -8.8267959 Eh     change       -0.9254107E-04 Eh
   gradient norm :     0.0094077 Eh/α   predicted    -0.2173812E-03 ( 134.90%)
   displ. norm   :     0.0809694 α      lambda       -0.4037060E-03
   maximum displ.:     0.0581411 α      in ANC's #2, #3, #4, ...

........................................................................
.............................. CYCLE   17 ..............................
........................................................................
   1     -8.9110276 -0.891103E+01  0.543E-01    2.82       0.0  T
   2     -8.9112439 -0.216271E-03  0.250E-01    2.80       1.0  T
   3     -8.9112683 -0.243500E-04  0.131E-01    2.80       1.0  T
   4     -8.9112751 -0.679970E-05  0.248E-02    2.80       1.8  T
   5     -8.9112756 -0.503639E-06  0.127E-02    2.79       3.5  T
   6     -8.9112758 -0.229565E-06  0.183E-03    2.80      24.4  T
   7     -8.9112758 -0.308955E-09  0.479E-04    2.80      93.4  T
   8     -8.9112758 -0.652468E-09  0.841E-05    2.80     531.9  T
     SCC iter.                  ...        0 min,  0.001 sec
     gradient                   ...        0 min,  0.001 sec
 * total energy  :    -8.8269832 Eh     change       -0.1872576E-03 Eh
   gradient norm :     0.0071042 Eh/α   predicted    -0.2031753E-03 (   8.50%)
   displ. norm   :     0.0323740 α      lambda       -0.1025299E-03
   maximum displ.:     0.0169955 α      in ANC's #7, #5, #3, ...

........................................................................
.............................. CYCLE   18 ..............................
........................................................................
   1     -8.9102344 -0.891023E+01  0.195E-01    2.77       0.0  T
   2     -8.9102435 -0.910852E-05  0.103E-01    2.77       1.0  T
   3     -8.9102445 -0.103219E-05  0.303E-02    2.77       1.5  T
   4     -8.9102459 -0.133068E-05  0.889E-03    2.77       5.0  T
   5     -8.9102459 -0.198731E-07  0.472E-03    2.77       9.5  T
   6     -8.9102459 -0.481317E-07  0.833E-04    2.77      53.7  T
   7     -8.9102459 -0.144654E-09  0.100E-04    2.77     446.9  T
     SCC iter.                  ...        0 min,  0.000 sec
     gradient                   ...        0 min,  0.001 sec
 * total energy  :    -8.8270447 Eh     change       -0.6150698E-04 Eh
   gradient norm :     0.0040385 Eh/α   predicted    -0.5131931E-04 ( -16.56%)
   displ. norm   :     0.0413655 α      lambda       -0.7104873E-04
   maximum displ.:     0.0230968 α      in ANC's #4, #7, #5, ...

........................................................................
.............................. CYCLE   19 ..............................
........................................................................
   1     -8.9102071 -0.891021E+01  0.383E-01    2.77       0.0  T
   2     -8.9103382 -0.131083E-03  0.165E-01    2.78       1.0  T
   3     -8.9103543 -0.160988E-04  0.880E-02    2.78       1.0  T
   4     -8.9103574 -0.312232E-05  0.131E-02    2.78       3.4  T
   5     -8.9103575 -0.285862E-07  0.166E-03    2.78      27.0  T
   6     -8.9103575 -0.898986E-09  0.879E-04    2.78      50.9  T
   7     -8.9103575 -0.689797E-09  0.298E-04    2.78     150.3  T
     SCC iter.                  ...        0 min,  0.000 sec
     gradient                   ...        0 min,  0.001 sec
 * total energy  :    -8.8270889 Eh     change       -0.4418850E-04 Eh
   gradient norm :     0.0032518 Eh/α   predicted    -0.3558586E-04 ( -19.47%)
   displ. norm   :     0.0175877 α      lambda       -0.1768051E-04
   maximum displ.:     0.0106047 α      in ANC's #5, #7, #1, ...

........................................................................
.............................. CYCLE   20 ..............................
........................................................................
   1     -8.9106137 -0.891061E+01  0.171E-01    2.78       0.0  T
   2     -8.9106397 -0.259628E-04  0.729E-02    2.77       1.0  T
   3     -8.9106429 -0.321403E-05  0.392E-02    2.78       1.1  T
   4     -8.9106435 -0.641307E-06  0.604E-03    2.77       7.4  T
   5     -8.9106435 -0.878341E-09  0.325E-03    2.78      13.8  T
   6     -8.9106436 -0.265554E-07  0.470E-04    2.78      95.1  T
   7     -8.9106436 -0.331646E-10  0.934E-05    2.78     478.7  T
     SCC iter.                  ...        0 min,  0.001 sec
     gradient                   ...        0 min,  0.001 sec
 * total energy  :    -8.8271013 Eh     change       -0.1237940E-04 Eh
   gradient norm :     0.0020838 Eh/α   predicted    -0.8843390E-05 ( -28.56%)
   displ. norm   :     0.0137800 α      lambda       -0.8682887E-05
   maximum displ.:     0.0082502 α      in ANC's #5, #1, #7, ...
 * RMSD in coord.:     0.6811448 α      energy gain  -0.1221942E+00 Eh

generating ANC from model Hessian ...
Using Lindh-Hessian (1995)
 Shifting diagonal of input Hessian by    0.0000000000000000     
 Lowest  eigenvalues of input Hessian
   -0.000000   -0.000000   -0.000000    0.000000    0.000000    0.000000
    0.067300    0.193216    0.271270    0.318672    0.759111    0.937459
    1.191006    1.445497    1.988300
 Highest eigenvalues
    0.318672    0.759111    0.937459    1.191006    1.445497    1.988300


........................................................................
.............................. CYCLE   21 ..............................
........................................................................
   1     -8.9108737 -0.891087E+01  0.116E-01    2.77       0.0  T
   2     -8.9108848 -0.110565E-04  0.495E-02    2.77       1.0  T
   3     -8.9108862 -0.137407E-05  0.271E-02    2.77       1.7  T
   4     -8.9108865 -0.330779E-06  0.434E-03    2.77      10.3  T
   5     -8.9108865 -0.234991E-07  0.250E-03    2.77      17.9  T
   6     -8.9108865 -0.827149E-08  0.321E-04    2.77     139.2  T
   7     -8.9108865 -0.193943E-10  0.545E-05    2.77     820.2  T
     SCC iter.                  ...        0 min,  0.001 sec
     gradient                   ...        0 min,  0.001 sec
 * total energy  :    -8.8271064 Eh     change       -0.5119805E-05 Eh
   gradient norm :     0.0006136 Eh/α   predicted     0.0000000E+00 (-100.00%)
   displ. norm   :     0.0021325 α      lambda       -0.5356977E-06
   maximum displ.:     0.0016209 α      in ANC's #1, #4, #5, ...

........................................................................
.............................. CYCLE   22 ..............................
........................................................................
   1     -8.9110001 -0.891100E+01  0.450E-03    2.77       0.0  T
   2     -8.9110001 -0.264382E-07  0.227E-03    2.77      19.7  T
   3     -8.9110001 -0.598700E-08  0.126E-03    2.77      35.6  T
   4     -8.9110001 -0.501400E-09  0.338E-04    2.77     132.2  T
   5     -8.9110001 -0.474005E-09  0.163E-04    2.77     274.0  T
     SCC iter.                  ...        0 min,  0.001 sec
     gradient                   ...        0 min,  0.001 sec
 * total energy  :    -8.8271067 Eh     change       -0.3626000E-06 Eh
   gradient norm :     0.0001084 Eh/α   predicted    -0.2665002E-06 ( -26.50%)
   displ. norm   :     0.0002261 α      lambda       -0.1471030E-07
   maximum displ.:     0.0001604 α      in ANC's #2, #5, #6, ...

   *** GEOMETRY OPTIMIZATION CONVERGED AFTER 22 ITERATIONS ***

------------------------------------------------------------------------
 total energy gain   :        -0.1221997 Eh      -76.6815 kcal/mol
 total RMSD          :         0.6807105 a0        0.3602 Å
 total power (kW/mol):       -14.5834225 (step)-6271.6987 (real)
------------------------------------------------------------------------

 ANCopt (total)                0 d,  0 h,  0 min,  0.051 sec
 optimizer setup                ...        0 min,  0.000 sec (  0.157%)
 model hessian                  ...        0 min,  0.000 sec (  0.335%)
 ANC generation                 ...        0 min,  0.000 sec (  0.221%)
 coordinate transformation      ...        0 min,  0.000 sec (  0.112%)
 single point calculation       ...        0 min,  0.049 sec ( 95.370%)
 optimization log               ...        0 min,  0.001 sec (  1.232%)
 hessian update                 ...        0 min,  0.000 sec (  0.095%)
 rational function              ...        0 min,  0.001 sec (  1.123%)

================
 final structure:
================
5
 xtb: 6.2.2 (9d81278992624c895f80dd42a50cac0aa55982e2)
N        -0.59651934424197    0.39829439205829    0.37170114829188
C        -0.58787388407085   -0.90743323003909   -0.01628384461924
N         0.62545625799943   -0.39222376164659    0.32929587099340
H        -0.77440151405502    1.13330753996234   -0.30473890048423
H         1.33333848436841   -0.23194494033495   -0.37997327418181

 Bond Distances (Angstroems)
 ---------------------------
N1-C2=1.3622         N1-N3=1.4560         N1-H4=1.0146         C2-N1=1.3622         C2-N3=1.3627         N3-N1=1.4560         
N3-C2=1.3627         N3-H5=1.0148         H4-N1=1.0146         H5-N3=1.0148         
 N  H  Rav=1.0147 sigma=0.0001  Rmin=1.0146  Rmax=1.0148     2
 N  C  Rav=1.3625 sigma=0.0003  Rmin=1.3622  Rmax=1.3627     2
 N  N  Rav=1.4560 sigma=0.0000  Rmin=1.4560  Rmax=1.4560     1

 selected bond angles (degree)
 --------------------
N3-N1-C2= 57.72                H4-N1-C2=120.37                H4-N1-N3=121.40                N3-C2-N1= 64.60                
C2-N3-N1= 57.68                H5-N3-N1=121.33                H5-N3-C2=120.23                

 selected dihedral angles (degree)
 ---------------------------------
N3-C2-N1-H4=110.13            C2-N3-N1-H4=251.64            H5-N3-N1-C2=108.21            H5-N3-N1-H4=359.84            
H5-N3-C2-N1=249.91            
           -------------------------------------------------
          |                Final Singlepoint                |
           -------------------------------------------------

          ...................................................
          :                      SETUP                      :
          :.................................................:
          :  # basis functions                  14          :
          :  # atomic orbitals                  14          :
          :  # shells                            8          :
          :  # electrons                        16          :
          :  max. iterations                   250          :
          :  Hamiltonian                  GFN2-xTB          :
          :  restarted?                      false          :
          :  GBSA solvation                  false          :
          :  PC potential                    false          :
          :  electronic temp.          300.0000000     K    :
          :  accuracy                    1.0000000          :
          :  -> integral cutoff          0.2500000E+02      :
          :  -> integral neglect         0.1000000E-07      :
          :  -> SCF convergence          0.1000000E-05 Eh   :
          :  -> wf. convergence          0.1000000E-03 e    :
          :  Broyden damping             0.4000000          :
          ...................................................

 iter      E             dE          RMSdq      gap      omega  full diag
   1     -8.9110001 -0.891100E+01  0.389E-05    2.77       0.0  T
   2     -8.9110001 -0.284217E-12  0.202E-05    2.77    2217.2  T
   3     -8.9110001  0.888178E-13  0.761E-06    2.77    5876.7  T

   *** convergence criteria satisfied after 3 iterations ***

         #    Occupation            Energy/Eh            Energy/eV
      -------------------------------------------------------------
         1        2.0000           -0.7256915             -19.7471
         2        2.0000           -0.6152124             -16.7408
         3        2.0000           -0.6072211             -16.5233
         4        2.0000           -0.5696612             -15.5013
         5        2.0000           -0.5034242             -13.6989
         6        2.0000           -0.4973808             -13.5344
         7        2.0000           -0.4168306             -11.3425
         8        2.0000           -0.3973567             -10.8126 (HOMO)
         9                         -0.2955733              -8.0430 (LUMO)
        10                         -0.1277430              -3.4761
        11                          0.0184341               0.5016
        12                          0.0692699               1.8849
        13                          0.2283268               6.2131
        14                          0.3649183               9.9299
      -------------------------------------------------------------
                  HL-Gap            0.1017835 Eh            2.7697 eV
             Fermi-level           -0.3464650 Eh           -9.4278 eV

 SCC (total)                   0 d,  0 h,  0 min,  0.002 sec
 SCC setup                      ...        0 min,  0.000 sec (  3.946%)
 Dispersion                     ...        0 min,  0.000 sec (  0.564%)
 integral evaluation            ...        0 min,  0.001 sec ( 39.113%)
 zeroth order Hamiltonian       ...        0 min,  0.000 sec (  0.613%)
 iterations                     ...        0 min,  0.000 sec ( 13.368%)
 molecular gradient             ...        0 min,  0.001 sec ( 39.297%)
 printout                       ...        0 min,  0.000 sec (  2.622%)

         :::::::::::::::::::::::::::::::::::::::::::::::::::::
         ::                     SUMMARY                     ::
         :::::::::::::::::::::::::::::::::::::::::::::::::::::
         :: total energy              -8.827106742210 Eh    ::
         :: gradient norm              0.000108274606 Eh/a0 ::
         :: HOMO-LUMO gap              2.769669027076 eV    ::
         ::.................................................::
         :: SCC energy                -8.911000112258 Eh    ::
         :: -> isotropic ES            0.000001001938 Eh    ::
         :: -> anisotropic ES          0.004688189211 Eh    ::
         :: -> anisotropic XC          0.012614446399 Eh    ::
         :: -> dispersion             -0.001440384482 Eh    ::
         :: repulsion energy           0.083893348992 Eh    ::
         :: add. restraining           0.000000000000 Eh    ::
         :::::::::::::::::::::::::::::::::::::::::::::::::::::

           ------------------------------------------------- 
          |                Numerical Hessian                |
           ------------------------------------------------- 
step length          :   0.00500
SCC accuracy         :   0.30000
Hessian scale factor :   1.00000
frozen atoms in %    :   0.00000    0
RMS gradient         :   0.00011
estimated CPU  time      0.00 min
estimated wall time      0.00 min

writing file <hessian>.

 projected vibrational frequencies (cm-1)
eigval :       -0.00    -0.00    -0.00     0.00     0.00     0.00
eigval :      323.78   843.63   967.58   968.04  1032.75  1226.14
eigval :     1536.36  3318.19  3334.19
           -------------------------------------------------
          |                Property Printout                |
           -------------------------------------------------

    * Orbital Energies and Occupations

         #    Occupation            Energy/Eh            Energy/eV
      -------------------------------------------------------------
         1        2.0000           -0.7256915             -19.7471
         2        2.0000           -0.6152124             -16.7408
         3        2.0000           -0.6072211             -16.5233
         4        2.0000           -0.5696613             -15.5013
         5        2.0000           -0.5034242             -13.6989
         6        2.0000           -0.4973808             -13.5344
         7        2.0000           -0.4168306             -11.3425
         8        2.0000           -0.3973567             -10.8126 (HOMO)
         9                         -0.2955733              -8.0430 (LUMO)
        10                         -0.1277430              -3.4761
        11                          0.0184341               0.5016
        12                          0.0692699               1.8849
        13                          0.2283268               6.2131
        14                          0.3649182               9.9299
      -------------------------------------------------------------
                  HL-Gap            0.1017834 Eh            2.7697 eV
             Fermi-level           -0.3464650 Eh           -9.4278 eV

     #   Z        covCN         q      C6AA      α(0)
     1   7 N      2.744    -0.118    23.577     7.212
     2   6 C      1.820    -0.056    32.691     9.238
     3   7 N      2.744    -0.119    23.590     7.214
     4   1 H      0.860     0.147     1.423     1.869
     5   1 H      0.860     0.147     1.424     1.869

 Mol. C6AA /au·bohr⁶  :        316.480269
 Mol. C8AA /au·bohr⁸  :       7147.119344
 Mol. α(0) /au        :         27.401577


Wiberg/Mayer (AO) data.
largest (>0.10) Wiberg bond orders for each atom
          total WBO             WBO to atom ...
     1  N   3.225        C    2 1.286    N    3 0.977    H    4 0.932
     2  C   2.597        N    1 1.286    N    3 1.284
     3  N   3.222        C    2 1.284    N    1 0.977    H    5 0.932
     4  H   0.978        N    1 0.932
     5  H   0.979        N    3 0.932

MOs/occ written to file <molden.input>


molecular dipole:
                 x           y           z       tot (Debye)
 q only:        0.210       0.345      -0.345
   full:        0.553       0.902      -0.811       3.389
molecular quadrupole (traceless):
                xx          xy          yy          xz          yz          zz
 q only:        0.647      -0.785      -0.035      -0.206      -0.218      -0.612
  q+dip:        0.623      -1.647      -0.776      -0.629      -0.878       0.154
   full:        0.569      -1.973      -1.100      -0.835      -1.208       0.531

           -------------------------------------------------
          |                Geometry Summary                 |
           -------------------------------------------------

      molecular mass/u    :       42.0400238
   center of mass at/Å    :       -0.1449127      -0.2356170       0.2124872
  moments of inertia/u·Å² :        0.1317999E+02   0.1923763E+02   0.2999802E+02
rotational constants/cm⁻¹ :        0.1279032E+01   0.8762841E+00   0.5619582E+00

 * 4 selected distances

     #   Z        #   Z                                     value/Å
     1   7 N      2   6 C                                 1.3621790
     2   6 C      3   7 N                                 1.3627311 (max)
     1   7 N      4   1 H                                 1.0146219 (min)
     3   7 N      5   1 H                                 1.0148149

 * 2 distinct bonds (by element types)

   Z      Z             #   av. dist./Å        max./Å        min./Å
   1 H    7 N           2     1.0147184     1.0148149     1.0146219
   6 C    7 N           2     1.3624551     1.3627311     1.3621790

           -------------------------------------------------
          |               Frequency Printout                |
           -------------------------------------------------
 projected vibrational frequencies (cm-1)
eigval :       -0.00    -0.00    -0.00     0.00     0.00     0.00
eigval :      323.78   843.63   967.58   968.04  1032.75  1226.14
Molecule has the following symmetry elements: (sigma) 
It seems to be the Cs point group
eigval :     1536.36  3318.19  3334.19
 reduced masses (amu)
   1: 11.82   2: 11.05   3: 12.44   4: 12.97   5: 12.54   6: 11.28   7:  7.61   8:  4.66
   9:  4.96  10:  4.86  11:  8.74  12:  6.83  13: 12.67  14:  1.84  15:  1.86
 IR intensities (amu)
   1:  0.15   2:  0.23   3:  0.19   4:  0.20   5:  0.29   6:  0.18   7:  1.67   8:  0.46
   9:  0.83  10:  0.56  11:  0.36  12:  0.67  13:  0.46  14:  0.03  15:  0.01
 Raman intensities (amu)
   1:  0.00   2:  0.00   3:  0.00   4:  0.00   5:  0.00   6:  0.00   7:  0.00   8:  0.00
   9:  0.00  10:  0.00  11:  0.00  12:  0.00  13:  0.00  14:  0.00  15:  0.00
 output can be read by thermo (or use thermo option).
 writing <g98.out> molden fake output.
 recommended (thermochemical) frequency scaling factor: 1.0
           -------------------------------------------------
          |             Thermodynamic Functions             |
           -------------------------------------------------

cs  symmetry found (for desy threshold:  0.10E+00) used in thermo

          ...................................................
          :                      SETUP                      :
          :.................................................:
          :  # frequencies                           9      :
          :  # imaginary freq.                       0      :
          :  linear?                             false      :
          :  only rotor calc.                    false      :
          :  symmetry                               cs      :
          :  rotational number                       1      :
          :  scaling factor                  1.0000000      :
          :  rotor cutoff                   50.0000000 cm⁻¹ :
          :  imag. cutoff                  -20.0000000 cm⁻¹ :
          :.................................................:

    mode    ω/cm⁻¹     T·S(HO)/kcal·mol⁻¹    T·S(FR)/kcal·mol⁻¹   T·S(vib)
   ------------------------------------------------------------------------
   ------------------------------------------------------------------------

   temp. (K)  partition function   enthalpy   heat capacity  entropy
                                   cal/mol     cal/K/mol   cal/K/mol   J/K/mol
 298.15  VIB   1.33                  372.205      3.634      1.808
         ROT  0.666E+04              888.752      2.981     20.477
         INT  0.883E+04             1260.958      6.615     22.285
         TR   0.264E+27             1481.254      4.968     37.118
         TOT                        2742.2115    11.5833    59.4032   248.5431

   temp. (K)  partition function   enthalpy   heat capacity  entropy
                                   cal/mol     cal/K/mol   cal/K/mol   J/K/mol
 120.00  VIB   1.02                   19.641      0.658      0.205
         ROT  0.170E+04              357.707      2.981     17.764
         INT  0.174E+04              377.348      3.639     17.970
         TR   0.673E+26              596.178      4.968     32.599
         TOT                         973.5257     8.6070    50.5686   211.5788

   temp. (K)  partition function   enthalpy   heat capacity  entropy
                                   cal/mol     cal/K/mol   cal/K/mol   J/K/mol
 100.00  VIB   1.01                    8.880      0.419      0.108
         ROT  0.129E+04              298.089      2.981     17.221
         INT  0.131E+04              306.969      3.400     17.329
         TR   0.512E+26              496.815      4.968     31.693
         TOT                         803.7835     8.3682    49.0222   205.1090

   temp. (K)  partition function   enthalpy   heat capacity  entropy
                                   cal/mol     cal/K/mol   cal/K/mol   J/K/mol
  80.00  VIB   1.00                    2.748      0.201      0.040
         ROT   926.                  238.471      2.981     16.556
         INT   929.                  241.219      3.182     16.596
         TR   0.367E+26              397.452      4.968     30.585
         TOT                         638.6707     8.1497    47.1814   197.4069

   temp. (K)  partition function   enthalpy   heat capacity  entropy
                                   cal/mol     cal/K/mol   cal/K/mol   J/K/mol
  60.00  VIB   1.00                    0.393      0.051      0.007
         ROT   601.                  178.853      2.981     15.698
         INT   602.                  179.247      3.032     15.705
         TR   0.238E+26              298.089      4.968     29.157
         TOT                         477.3357     8.0000    44.8623   187.7039

   temp. (K)  partition function   enthalpy   heat capacity  entropy
                                   cal/mol     cal/K/mol   cal/K/mol   J/K/mol
  40.00  VIB   1.00                    0.008      0.002     -0.000
         ROT   327.                  119.236      2.981     14.489
         INT   327.                  119.244      2.983     14.489
         TR   0.130E+26              198.726      4.968     27.143
         TOT                         317.9697     7.9514    41.6328   174.1917

   temp. (K)  partition function   enthalpy   heat capacity  entropy
                                   cal/mol     cal/K/mol   cal/K/mol   J/K/mol
  20.00  VIB   1.00                    0.000      0.000     -0.001
         ROT   116.                   59.618      2.981     12.423
         INT   116.                   59.618      2.981     12.423
         TR   0.458E+25               99.363      4.968     23.701
         TOT                         158.9808     7.9490    36.1240   151.1428

   temp. (K)  partition function   enthalpy   heat capacity  entropy
                                   cal/mol     cal/K/mol   cal/K/mol   J/K/mol
  10.00  VIB   1.00                    0.000      0.000     -0.001
         ROT   40.9                   29.809      2.981     10.357
         INT   40.9                   29.809      2.981     10.356
         TR   0.162E+25               49.681      4.968     20.259
         TOT                          79.4904     7.9490    30.6154   128.0949

       T/K    H(0)-H(T)+PV         H(T)/Eh          T*S/Eh         G(T)/Eh
   ------------------------------------------------------------------------
    298.15    0.436999E-02    0.352407E-01    0.282244E-01    0.701631E-02
    120.00    0.155141E-02    0.324221E-01    0.967033E-02    0.227518E-01
    100.00    0.128091E-02    0.321516E-01    0.781219E-02    0.243394E-01
     80.00    0.101779E-02    0.318885E-01    0.601507E-02    0.258734E-01
     60.00    0.760683E-03    0.316314E-01    0.428956E-02    0.273418E-01
     40.00    0.506717E-03    0.313774E-01    0.265384E-02    0.287236E-01
     20.00    0.253352E-03    0.311241E-01    0.115135E-02    0.299727E-01
     10.00    0.126676E-03    0.309974E-01    0.487888E-03    0.305095E-01 (used)
   ------------------------------------------------------------------------

         :::::::::::::::::::::::::::::::::::::::::::::::::::::
         ::                  THERMODYNAMIC                  ::
         :::::::::::::::::::::::::::::::::::::::::::::::::::::
         :: total free energy          -8.796597243517 Eh   ::
         ::.................................................::
         :: total energy               -8.827106742256 Eh   ::
         :: zero point energy           0.030870710315 Eh   ::
         :: G(RRHO) w/o ZPVE           -0.000361211576 Eh   ::
         :: G(RRHO) contrib.            0.030509498739 Eh   ::
         :::::::::::::::::::::::::::::::::::::::::::::::::::::

optimized geometry written to: xtbopt.xyz


           -------------------------------------------------
          | TOTAL ENERGY               -8.827106742256 Eh   |
          | TOTAL ENTHALPY             -8.796109355926 Eh   |
          | TOTAL FREE ENERGY          -8.796597243517 Eh   |
          | GRADIENT NORM               0.000108265977 Eh/α |
          | HOMO-LUMO GAP               2.769667303326 eV   |
           -------------------------------------------------

------------------------------------------------------------------------
 * finished run on 2020/05/12 at 11:45:20.725     
------------------------------------------------------------------------
 total:
 * wall-time:     0 d,  0 h,  0 min,  0.137 sec
 *  cpu-time:     0 d,  0 h,  0 min,  0.137 sec
 * ratio c/w:     0.998 speedup
 SCF:
 * wall-time:     0 d,  0 h,  0 min,  0.003 sec
 *  cpu-time:     0 d,  0 h,  0 min,  0.003 sec
 * ratio c/w:     0.996 speedup
 ANC optimizer:
 * wall-time:     0 d,  0 h,  0 min,  0.054 sec
 *  cpu-time:     0 d,  0 h,  0 min,  0.054 sec
 * ratio c/w:     0.999 speedup
 numerical hessian:
 * wall-time:     0 d,  0 h,  0 min,  0.061 sec
 *  cpu-time:     0 d,  0 h,  0 min,  0.061 sec
 * ratio c/w:     0.998 speedup

