$hessian                                                                        
        0.2702432067  -0.1417453135  -0.0001363877  -0.0017288753  -0.0160119212
        0.0000430267  -0.2080225339   0.0939376610   0.0144893409  -0.0399781634
        0.0415444111  -0.0294303714  -0.0205136341   0.0222751626   0.0150343916
       -0.1417453135   0.6123141090  -0.1341252982  -0.0658609798  -0.3489426818
       -0.1201037434   0.1999359906  -0.0802646078   0.0702136816   0.0205610237
       -0.1924547900   0.2026010045  -0.0128907209   0.0093479706  -0.0185856446
       -0.0001363877  -0.1341252982   0.2002800031  -0.0523907187  -0.0536498843
       -0.0402598771   0.0759285310   0.0342107229   0.0250926263  -0.0279184901
        0.1673269474  -0.1705728641   0.0045170655  -0.0137624878  -0.0145398883
       -0.0017288753  -0.0658609798  -0.0523907187   0.3078340914   0.1925660518
        0.0879584700  -0.2659475783  -0.1329853482  -0.0205811989  -0.0086173896
        0.0139696010   0.0120066929  -0.0315402482  -0.0076893247  -0.0269932454
       -0.0160119212  -0.3489426818  -0.0536498843   0.1925660518   0.4709013040
        0.1417758178  -0.1811796278  -0.0868392808  -0.0623181477   0.0008590400
       -0.0284042367  -0.0257578061   0.0037664572  -0.0067151048  -0.0000499797
        0.0000430267  -0.1201037434  -0.0402598771   0.0879584700   0.1417758178
        0.0750722799  -0.1042123491  -0.0442036849  -0.0374404142   0.0055531052
        0.0122380234   0.0006848386   0.0106577472   0.0102935871   0.0019431727
       -0.2080225339   0.1999359906   0.0759285310  -0.2659475783  -0.1811796278
       -0.1042123491   0.6462840480   0.0343291576  -0.1429433072  -0.0010098981
       -0.0026743857  -0.0238901533  -0.1713040377  -0.0504111348   0.1951172785
        0.0939376610  -0.0802646078   0.0342107229  -0.1329853482  -0.0868392808
       -0.0442036849   0.0343291576   0.2248731770  -0.0561975424   0.0325615570
       -0.0120668065   0.0045741181  -0.0278430274  -0.0457024820   0.0616163864
        0.0144893409   0.0702136816   0.0250926263  -0.0205811989  -0.0623181477
       -0.0374404142  -0.1429433072  -0.0561975424   0.2106106307  -0.0139773693
       -0.0013548497  -0.0125964090   0.1630125345   0.0496568582  -0.1856664338
       -0.0399781634   0.0205610237  -0.0279184901  -0.0086173896   0.0008590400
        0.0055531052  -0.0010098981   0.0325615570  -0.0139773693   0.0472509598
       -0.0520352012   0.0395924150   0.0023544914  -0.0019464195  -0.0032496608
        0.0415444111  -0.1924547900   0.1673269474   0.0139696010  -0.0284042367
        0.0122380234  -0.0026743857  -0.0120668065  -0.0013548497  -0.0520352012
        0.2317123292  -0.1783745618  -0.0008044252   0.0012135040   0.0001644406
       -0.0294303714   0.2026010045  -0.1705728641   0.0120066929  -0.0257578061
        0.0006848386  -0.0238901533   0.0045741181  -0.0125964090   0.0395924150
       -0.1783745618   0.1748336237   0.0017214167  -0.0030427547   0.0076508107
       -0.0205136341  -0.0128907209   0.0045170655  -0.0315402482   0.0037664572
        0.0106577472  -0.1713040377  -0.0278430274   0.1630125345   0.0023544914
       -0.0008044252   0.0017214167   0.2210034287   0.0377717164  -0.1799087639
        0.0222751626   0.0093479706  -0.0137624878  -0.0076893247  -0.0067151048
        0.0102935871  -0.0504111348  -0.0457024820   0.0496568582  -0.0019464195
        0.0012135040  -0.0030427547   0.0377717164   0.0418561122  -0.0431452027
        0.0150343916  -0.0185856446  -0.0145398883  -0.0269932454  -0.0000499797
        0.0019431727   0.1951172785   0.0616163864  -0.1856664338  -0.0032496608
        0.0001644406   0.0076508107  -0.1799087639  -0.0431452027   0.1906123389
