 Entering Gaussian System
 *********************************************
 Gaussian 98:
 frequency output generated by the xtb code
 *********************************************
                         Standard orientation:
 --------------------------------------------------------------------
  Center     Atomic     Atomic              Coordinates (Angstroms)
  Number     Number      Type              X           Y           Z
 --------------------------------------------------------------------
    1          8             0       -1.035964   -0.026831    0.164939
    2          6             0       -0.036048    0.840662   -0.157722
    3          6             0        1.064455    0.027613    0.150263
    4          6             0        0.007557   -0.841444   -0.157480
 --------------------------------------------------------------------
     1 basis functions        1 primitive gaussians
     1 alpha electrons        1 beta electrons

 Harmonic frequencies (cm**-1), IR intensities (KM/Mole),
 Raman scattering activities (A**4/amu), Raman depolarization ratios,
 reduced masses (AMU), force constants (mDyne/A) and normal coordinates:
                      1                      2                      3
                        a                      a                      a 
 Frequencies --   585.1781               692.1826               812.3790
 Red. masses --    12.7558                13.3387                12.1479
 Frc consts  --     0.0000                 0.0000                 0.0000
 IR Inten    --     0.4530                 0.8901                 1.7087
 Raman Activ --     0.0000                 0.0000                 0.0000
 Depolar     --     0.0000                 0.0000                 0.0000
 Atom AN      X      Y      Z        X      Y      Z        X      Y      Z
   1   8    -0.07  -0.00  -0.43     0.01  -0.58  -0.00     0.00  -0.19  -0.00
   2   6     0.03   0.22   0.49     0.49   0.28  -0.10    -0.29   0.42  -0.16
   3   6     0.02   0.00  -0.49    -0.00   0.14  -0.00     0.02  -0.63  -0.00
   4   6     0.04  -0.22   0.49    -0.50   0.25   0.10     0.27   0.43   0.16
                      4                      5                      6
                        a                      a                      a 
 Frequencies --   836.6214              1219.7700              1421.5933
 Red. masses --    13.0149                13.6769                12.2340
 Frc consts  --     0.0000                 0.0000                 0.0000
 IR Inten    --     0.1777                 1.7133                 0.4119
 Raman Activ --     0.0000                 0.0000                 0.0000
 Depolar     --     0.0000                 0.0000                 0.0000
 Atom AN      X      Y      Z        X      Y      Z        X      Y      Z
   1   8    -0.50  -0.01  -0.07     0.61   0.02  -0.20     0.23   0.01  -0.06
   2   6     0.02  -0.45   0.08    -0.47  -0.18   0.09     0.19  -0.46   0.12
   3   6     0.56   0.02  -0.09     0.24   0.01   0.06    -0.62  -0.02  -0.16
   4   6    -0.01   0.45   0.08    -0.48   0.15   0.09     0.17   0.47   0.12
