4
 energy: -10.080293997353 gnorm: 0.147129668186 xtb: 6.2.2 (9d81278992624c895f80dd42a50cac0aa55982e2)
O        -1.15614000000000   -0.02994500000000    0.21153700000000
C        -0.05233300000000    0.73620100000000   -0.20767500000000
C         1.22258700000000    0.03173000000000    0.20360600000000
C        -0.01411400000000   -0.73798600000000   -0.20746800000000
4
 energy: -10.105871370678 gnorm: 0.090215604730 xtb: 6.2.2 (9d81278992624c895f80dd42a50cac0aa55982e2)
O        -1.08674552360952   -0.02814547750263    0.21362601621245
C        -0.04675679516197    0.77068160639212   -0.20776043739760
C         1.14026046356153    0.02959477620182    0.20167798762096
C        -0.00675814479004   -0.77213090509132   -0.20754356643581
4
 energy: -10.117378336085 gnorm: 0.059900066584 xtb: 6.2.2 (9d81278992624c895f80dd42a50cac0aa55982e2)
O        -1.02061815098601   -0.02643990250302    0.15037922119664
C        -0.03483473345979    0.83245445489065   -0.14365248932851
C         1.04710283527964    0.02716899171140    0.13669155222026
C         0.00835004916616   -0.83318354409902   -0.14341828408839
4
 energy: -10.119028468676 gnorm: 0.015909505755 xtb: 6.2.2 (9d81278992624c895f80dd42a50cac0aa55982e2)
O        -1.03828889715165   -0.02689690084039    0.16052408906499
C        -0.03772502727322    0.83080365100204   -0.15416443417044
C         1.07063563572282    0.02778040111195    0.14757060589238
C         0.00537828870204   -0.83168715127360   -0.15393026078693
4
 energy: -10.119191564409 gnorm: 0.006020837974 xtb: 6.2.2 (9d81278992624c895f80dd42a50cac0aa55982e2)
O        -1.03367622685563   -0.02677299417948    0.17070672514453
C        -0.03741134289648    0.83565474557928   -0.16367825074725
C         1.06514335469482    0.02764116062259    0.15641685057807
C         0.00594421505730   -0.83652291202239   -0.16344532497534
4
 energy: -10.119250313996 gnorm: 0.001538603048 xtb: 6.2.2 (9d81278992624c895f80dd42a50cac0aa55982e2)
O        -1.03573759225990   -0.02682744395487    0.16583883034631
C        -0.03661632446217    0.83933290425812   -0.15877074898211
C         1.06542455100046    0.02764707021705    0.15146820324556
C         0.00692936572162   -0.84015253052030   -0.15853628460977
4
 energy: -10.119252423449 gnorm: 0.000445036553 xtb: 6.2.2 (9d81278992624c895f80dd42a50cac0aa55982e2)
O        -1.03596435179596   -0.02683689444530    0.16493521089568
C        -0.03605197759424    0.84066222908897   -0.15772031220204
C         1.06445467542563    0.02761867352254    0.15026691765214
C         0.00756165396456   -0.84144400816621   -0.15748181634578
