[Molden Format]
[Title]
[Atoms] AU
O      1     8  0.91064505517812E+00 -0.47681263590027E-05 -0.31787509060292E-05
H      2     1 -0.91064505517812E+00  0.47681263590027E-05  0.31787509060292E-05
[GTO]
           1 0
 s           4   1.0000000000000000     
   69.137961906196551      -0.20478756370077797     
   11.906129132707308      -0.24997023136827334     
  0.95670827744340703       0.40025880240639616     
  0.36462520496073686       0.15952206667693555     
 p           4   1.0000000000000000     
   8.2124193257781641        1.1321556799186829     
   2.1293576997098116        1.0476840782254817     
  0.75066448202360914       0.54956508217158984     
  0.29885246543283073        8.2908486592766617E-002

           2 0
 s           3   1.0000000000000000     
   3.3702276975336001       0.27359110588908298     
  0.61389118221497996       0.26460540653860526     
  0.16614291148415999        8.2465947534082318E-002

[MO]
Sym=     1a
Ene=  -0.70664163909424815     
Spin= Alpha
Occup=     2.00000000
           1  0.85880881925461694     
           2 -0.11853074309402918     
           3   6.4478547881904867E-007
           4   4.2985698606197066E-007
           5  0.22910544179270989     
Sym=     2a
Ene=  -0.58422485019282799     
Spin= Alpha
Occup=     2.00000000
           1  0.42271464636252787     
           2  0.76734341718750965     
           3  -3.9972950063277125E-006
           4  -2.6648633376127720E-006
           5 -0.36860887631065564     
Sym=     3a
Ene=  -0.49925811769901568     
Spin= Alpha
Occup=     1.50000000
           1   3.1316421662486589E-008
           2  -5.8616305954310314E-006
           3 -0.97523851556709784     
           4 -0.22115568683394904     
           5   9.5251696337537153E-010
Sym=     4a
Ene=  -0.49925811766703104     
Spin= Alpha
Occup=     1.50000000
           1  -1.1966812521444565E-008
           2   2.2398802618861559E-006
           3 -0.22115568684999823     
           4  0.97523851557850205     
           5  -3.6398130493966926E-010
Sym=     5a
Ene=   0.11986996189946846     
Spin= Alpha
Occup=     0.00000000
           1 -0.62438327026819640     
           2  0.81650678484026995     
           3  -4.2727812706842341E-006
           4  -2.8485208472414936E-006
           5   1.1778292353848268     
