$hessian                                                                        
        0.4572740622  -0.0000017938  -0.0000011959  -0.4572740622   0.0000017938
        0.0000011959
       -0.0000017938   0.0002228930   0.0000000000   0.0000017938  -0.0002228930
       -0.0000000000
       -0.0000011959   0.0000000000   0.0002229479   0.0000011959  -0.0000000000
       -0.0002229479
       -0.4572740622   0.0000017938   0.0000011959   0.4572740622  -0.0000017938
       -0.0000011959
        0.0000017938  -0.0002228930  -0.0000000000  -0.0000017938   0.0002228930
        0.0000000000
        0.0000011959  -0.0000000000  -0.0002229479  -0.0000011959   0.0000000000
        0.0002229479
