2
 energy: -4.427820476877 gnorm: 0.029773202672 xtb: 6.2.2 (9d81278992624c895f80dd42a50cac0aa55982e2)
O         0.49512700000000    0.00000000000000    0.00000000000000
H        -0.49512700000000    0.00000000000000    0.00000000000000
2
 energy: -4.428327945163 gnorm: 0.009109762380 xtb: 6.2.2 (9d81278992624c895f80dd42a50cac0aa55982e2)
O         0.48548897086929    0.00000000000000    0.00000000000000
H        -0.48548897086929    0.00000000000000    0.00000000000000
2
 energy: -4.428374404138 gnorm: 0.001038593528 xtb: 6.2.2 (9d81278992624c895f80dd42a50cac0aa55982e2)
O         0.48124046052387    0.00000000000000    0.00000000000000
H        -0.48124046052387    0.00000000000000    0.00000000000000
2
 energy: -4.428374815809 gnorm: 0.000563487292 xtb: 6.2.2 (9d81278992624c895f80dd42a50cac0aa55982e2)
O         0.48189265514125    0.00000000000000    0.00000000000000
H        -0.48189265514125    0.00000000000000    0.00000000000000
