 Entering Gaussian System
 *********************************************
 Gaussian 98:
 frequency output generated by the xtb code
 *********************************************
                         Standard orientation:
 --------------------------------------------------------------------
  Center     Atomic     Atomic              Coordinates (Angstroms)
  Number     Number      Type              X           Y           Z
 --------------------------------------------------------------------
    1          7             0       -2.484965   -0.024208   -0.119577
    2          6             0       -1.313297   -0.010588   -0.064434
    3          6             0        1.285525    0.011268    0.060429
    4          6             0       -0.010453    0.003861    0.000992
    5          6             0        2.523189    0.019665    0.122589
 --------------------------------------------------------------------
     1 basis functions        1 primitive gaussians
     1 alpha electrons        1 beta electrons

 Harmonic frequencies (cm**-1), IR intensities (KM/Mole),
 Raman scattering activities (A**4/amu), Raman depolarization ratios,
 reduced masses (AMU), force constants (mDyne/A) and normal coordinates:
                      1                      2                      3
                        a                      a                      a 
 Frequencies --   116.2307               277.6713               303.5874
 Red. masses --    12.4303                12.1458                12.0567
 Frc consts  --     0.0000                 0.0000                 0.0000
 IR Inten    --     0.1994                 0.2714                 0.2688
 Raman Activ --     0.0000                 0.0000                 0.0000
 Depolar     --     0.0000                 0.0000                 0.0000
 Atom AN      X      Y      Z        X      Y      Z        X      Y      Z
   1   7    -0.01   0.46   0.03     0.01   0.16  -0.20    -0.01   0.01   0.15
   2   6     0.00  -0.13  -0.01     0.00  -0.28   0.06     0.02  -0.02  -0.28
   3   6     0.00  -0.07  -0.00    -0.00  -0.65   0.09     0.03  -0.06  -0.73
   4   6     0.01  -0.75  -0.05    -0.02   0.39   0.29    -0.02   0.04   0.46
   5   6    -0.00   0.45   0.03     0.01   0.36  -0.23    -0.02   0.03   0.39
                      4                      5                      6
                        a                      a                      a 
 Frequencies --   409.9080               411.1580               796.1585
 Red. masses --    12.2566                12.2779                12.6557
 Frc consts  --     0.0000                 0.0000                 0.0000
 IR Inten    --     0.3411                 0.3610                 0.0607
 Raman Activ --     0.0000                 0.0000                 0.0000
 Depolar     --     0.0000                 0.0000                 0.0000
 Atom AN      X      Y      Z        X      Y      Z        X      Y      Z
   1   7    -0.01   0.33   0.13     0.01   0.17  -0.33     0.57   0.01   0.03
   2   6     0.02  -0.68  -0.33    -0.03  -0.35   0.70     0.41   0.00   0.02
   3   6    -0.01   0.40   0.17     0.02   0.16  -0.35    -0.43  -0.00  -0.02
   4   6    -0.01   0.14   0.15     0.01   0.10  -0.20    -0.02  -0.00  -0.00
   5   6     0.01  -0.21  -0.12    -0.01  -0.09   0.20    -0.57  -0.00  -0.03
                      7                      8                      9
                        a                      a                      a 
 Frequencies --  1626.3373              1905.2423              2114.7920
 Red. masses --    12.2901                12.0591                12.5834
 Frc consts  --     0.0000                 0.0000                 0.0000
 IR Inten    --     0.8113                 0.7605                 0.5085
 Raman Activ --     0.0000                 0.0000                 0.0000
 Depolar     --     0.0000                 0.0000                 0.0000
 Atom AN      X      Y      Z        X      Y      Z        X      Y      Z
   1   7     0.37   0.00   0.02     0.16   0.00   0.01    -0.54  -0.01  -0.03
   2   6     0.00  -0.00   0.00    -0.31  -0.00  -0.02     0.73   0.01   0.04
   3   6    -0.07  -0.00  -0.01    -0.71  -0.00  -0.03    -0.33  -0.00  -0.02
   4   6    -0.80  -0.01  -0.04     0.40   0.00   0.02    -0.08  -0.00  -0.00
   5   6     0.46   0.00   0.02     0.46   0.00   0.02     0.25   0.00   0.01
