$hessian                                                                        
        1.0291774858   0.0119377878   0.0481010545  -0.8762198074  -0.0101200038
       -0.0400875984   0.0735258564   0.0002106671   0.0031078186  -0.1896657990
       -0.0019564945  -0.0095049976  -0.0368177358  -0.0000719566  -0.0016162770
        0.0119377878   0.0147015123  -0.0016967663  -0.0100228263  -0.0255091193
        0.0004412343   0.0007783330   0.0088383030  -0.0000582757  -0.0023728146
        0.0053238165   0.0030206665  -0.0003204799  -0.0033545125  -0.0017068588
        0.0481010545  -0.0016967663   0.0160743549  -0.0402811145   0.0036435277
       -0.0269151605   0.0031227551   0.0044321136   0.0058844980  -0.0093467490
       -0.0040242169   0.0073594744  -0.0015959461  -0.0023546582  -0.0024031668
       -0.8762198074  -0.0100228263  -0.0402811145   1.3057219684   0.0143344456
        0.0606039484  -0.1694817783  -0.0009897875  -0.0073411763  -0.3260154385
       -0.0035873531  -0.0157299383   0.0659950558   0.0002655213   0.0027482807
       -0.0101200038  -0.0255091193   0.0036435277   0.0143344456   0.0482545029
       -0.0010962770  -0.0016006885  -0.0190269452   0.0002014232  -0.0031751748
       -0.0133795964  -0.0057412341   0.0005614215   0.0096611580   0.0029925602
       -0.0400875984   0.0004412343  -0.0269151605   0.0606039484  -0.0010962770
        0.0529930964  -0.0073775195  -0.0022601972  -0.0151800338  -0.0159011961
        0.0017977576  -0.0199277719   0.0027623656   0.0011174823   0.0090298698
        0.0735258564   0.0007783330   0.0031227551  -0.1694817783  -0.0016006885
       -0.0073775195   1.1121360317   0.0069178485   0.0523361403  -0.3491480870
       -0.0017362744  -0.0155217993  -0.6670320228  -0.0043592186  -0.0325595765
        0.0002106671   0.0088383030   0.0044321136  -0.0009897875  -0.0190269452
       -0.0022601972   0.0069178485   0.0295280333   0.0008881483  -0.0015313745
       -0.0030784011  -0.0057289155  -0.0046073536  -0.0162609899   0.0026688507
        0.0031078186  -0.0000582757   0.0058844980  -0.0073411763   0.0002014232
       -0.0151800338   0.0523361403   0.0008881483   0.0370658614  -0.0152573165
       -0.0005792065  -0.0064452515  -0.0328454660  -0.0004520894  -0.0213250741
       -0.1896657990  -0.0023728146  -0.0093467490  -0.3260154385  -0.0031751748
       -0.0159011961  -0.3491480870  -0.0015313745  -0.0152573165   1.0436952580
        0.0084221893   0.0493368217  -0.1788659335  -0.0013428254  -0.0088315601
       -0.0019564945   0.0053238165  -0.0040242169  -0.0035873531  -0.0133795964
        0.0017977576  -0.0017362744  -0.0030784011  -0.0005792065   0.0084221893
        0.0112100779   0.0054250603  -0.0011420673  -0.0000758969  -0.0026193946
       -0.0095049976   0.0030206665   0.0073594744  -0.0157299383  -0.0057412341
       -0.0199277719  -0.0155217993  -0.0057289155  -0.0064452515   0.0493368217
        0.0054250603   0.0186936408  -0.0085800865   0.0030244228   0.0003199082
       -0.0368177358  -0.0003204799  -0.0015959461   0.0659950558   0.0005614215
        0.0027623656  -0.6670320228  -0.0046073536  -0.0328454660  -0.1788659335
       -0.0011420673  -0.0085800865   0.8167206364   0.0055084793   0.0402591329
       -0.0000719566  -0.0033545125  -0.0023546582   0.0002655213   0.0096611580
        0.0011174823  -0.0043592186  -0.0162609899  -0.0004520894  -0.0013428254
       -0.0000758969   0.0030244228   0.0055084793   0.0100302413  -0.0013351575
       -0.0016162770  -0.0017068588  -0.0024031668   0.0027482807   0.0029925602
        0.0090298698  -0.0325595765   0.0026688507  -0.0213250741  -0.0088315601
       -0.0026193946   0.0003199082   0.0402591329  -0.0013351575   0.0143784628
