      -----------------------------------------------------------      
     |                   =====================                   |     
     |                           x T B                           |     
     |                   =====================                   |     
     |                         S. Grimme                         |     
     |          Mulliken Center for Theoretical Chemistry        |     
     |                    University of Bonn                     |     
      -----------------------------------------------------------      

   * xtb version 6.2.2 (9d81278992624c895f80dd42a50cac0aa55982e2) compiled by '@Darwin' on 04/03/2020

   xtb is free software: you can redistribute it and/or modify it under
   the terms of the GNU Lesser General Public License as published by
   the Free Software Foundation, either version 3 of the License, or
   (at your option) any later version.
   
   xtb is distributed in the hope that it will be useful,
   but WITHOUT ANY WARRANTY; without even the implied warranty of
   MERCHANTABILITY or FITNESS FOR A PARTICULAR PURPOSE.  See the
   GNU Lesser General Public License for more details.
   
   Cite this work as:
   * S. Grimme, C. Bannwarth, P. Shushkov, J. Chem. Theory Comput., 2017,
     13, 1989-2009. DOI: 10.1021/acs.jctc.7b00118
   * C. Bannwarth, S. Ehlert and S. Grimme., J. Chem. Theory Comput., 2019,
     15, 1652-1671. DOI: 10.1021/acs.jctc.8b01176
   * P. Pracht, E. Caldeweyher, S. Ehlert, S. Grimme, ChemRxiv, 2019, preprint.
     DOI: 10.26434/chemrxiv.8326202.v1
   
   for DFT-D4:
   * E. Caldeweyher, C. Bannwarth and S. Grimme, J. Chem. Phys., 2017,
     147, 034112. DOI: 10.1063/1.4993215
   * E. Caldeweyher, S. Ehlert, A. Hansen, H. Neugebauer, S. Spicher,
     C. Bannwarth and S. Grimme, J. Chem. Phys., 2019, 150, 154122.
     DOI: 10.1063/1.5090222
   
   for sTDA-xTB:
   * S. Grimme and C. Bannwarth, J. Chem. Phys., 2016, 145, 054103.
     DOI: 10.1063/1.4959605
   
   in the mass-spec context:
   * V. Asgeirsson, C. Bauer and S. Grimme, Chem. Sci., 2017, 8, 4879.
     DOI: 10.1039/c7sc00601b
   
   for metadynamics refer to:
   * S. Grimme, J. Chem. Theory Comput., 2019, 155, 2847-2862
     DOI: 10.1021/acs.jctc.9b00143
   
   with help from (in alphabetical order)
   C. Bannwarth, F. Bohle, G. Brandenburg, E. Caldeweyher, M. Checinski,
   S. Dohm, S. Ehlert, S. Ehrlich, F. März, H. Neugebauer, J. Pisarek,
   P. Pracht, P. Shushkov, and S. Spicher.
   
 * started run on 2020/05/12 at 11:44:03.022     

           -------------------------------------------------
          |                Calculation Setup                |
           -------------------------------------------------

          program call               : xtb --input C4N1_12_S_3.input C4N1_12_S_3.xyz --ohess --molden --namespace C4N1_12_S_3 output.out
          calculation namespace      : C4N1_12_S_3
          coordinate file            : C4N1_12_S_3.xyz
          number of atoms            :                     5
          number of electrons        :                    21
          charge                     :                     0
          spin                       :                   1.5
          first test random number   :      0.11197267571946

   ID    Z sym.   atoms
    1    7 N      1
    2    6 C      2-5

           -------------------------------------------------
          |                 G F N 2 - x T B                 |
           -------------------------------------------------

        Reference                      10.1021/acs.jctc.8b01176
      * Hamiltonian:
        H0-scaling (s, p, d)           1.850000    2.230000    2.230000
        zeta-weighting                 0.500000
      * Dispersion:
        s8                             2.700000
        a1                             0.520000
        a2                             5.000000
        s9                             5.000000
      * Repulsion:
        kExp                           1.500000    1.000000
        rExp                           1.000000
      * Coulomb:
        alpha                          2.000000
        third order                    shell-resolved
        anisotropic                    true
        a3                             3.000000
        a5                             4.000000
        cn-shift                       1.200000
        cn-exp                         4.000000
        max-rad                        5.000000


          ...................................................
          :                      SETUP                      :
          :.................................................:
          :  # basis functions                  20          :
          :  # atomic orbitals                  20          :
          :  # shells                           10          :
          :  # electrons                        21          :
          :  max. iterations                   250          :
          :  Hamiltonian                  GFN2-xTB          :
          :  restarted?                      false          :
          :  GBSA solvation                  false          :
          :  PC potential                    false          :
          :  electronic temp.          300.0000000     K    :
          :  accuracy                    1.0000000          :
          :  -> integral cutoff          0.2500000E+02      :
          :  -> integral neglect         0.1000000E-07      :
          :  -> SCF convergence          0.1000000E-05 Eh   :
          :  -> wf. convergence          0.1000000E-03 e    :
          :  Broyden damping             0.4000000          :
          ...................................................

 iter      E             dE          RMSdq      gap      omega  full diag
   1    -10.5589086 -0.105589E+02  0.112E+01    0.16       0.0  T
   2     -8.8586043  0.170030E+01  0.150E+01    0.39       1.0  T
   3    -10.4767158 -0.161811E+01  0.834E+00    0.30       1.0  T
   4    -10.1346493  0.342066E+00  0.985E+00    0.54       1.0  T
   5    -10.5332241 -0.398575E+00  0.678E+00    1.00       1.0  T
   6    -10.9203597 -0.387136E+00  0.261E+00    0.34       1.0  T
   7    -10.9215731 -0.121337E-02  0.179E+00    0.25       1.0  T
   8    -10.9139408  0.763225E-02  0.152E+00    0.33       1.0  T
   9    -10.9226008 -0.866001E-02  0.799E-01    0.23       1.0  T
  10    -10.9272723 -0.467153E-02  0.181E-01    0.16       1.0  T
  11    -10.9272724 -0.128010E-07  0.139E-01    0.15       1.0  T
  12    -10.9272956 -0.232222E-04  0.504E-02    0.15       1.0  T
  13    -10.9273064 -0.108574E-04  0.265E-02    0.16       1.7  T
  14    -10.9273093 -0.286908E-05  0.826E-03    0.16       5.4  T
  15    -10.9273092  0.938824E-07  0.659E-03    0.16       6.8  T
  16    -10.9273094 -0.233829E-06  0.127E-03    0.16      35.2  T
  17    -10.9273095 -0.935726E-08  0.581E-04    0.16      77.0  T
  18    -10.9273095 -0.949695E-09  0.168E-04    0.16     265.8  T

   *** convergence criteria satisfied after 18 iterations ***

         #    Occupation            Energy/Eh            Energy/eV
      -------------------------------------------------------------
         1        2.0000           -0.7425040             -20.2046
       ...           ...                  ...                  ...
         6        2.0000           -0.5309610             -14.4482
         7        2.0000           -0.5205195             -14.1641
         8        2.0000           -0.5075160             -13.8102
         9        2.0000           -0.4887320             -13.2991
        10        1.0000           -0.4605382             -12.5319
        11        1.0000           -0.4424067             -12.0385
        12        0.9555           -0.3989696             -10.8565 (HOMO)
        13        0.0445           -0.3931428             -10.6980 (LUMO)
        14                         -0.3791250             -10.3165
        15                         -0.3710625             -10.0971
        16                         -0.1338209              -3.6415
        17                          0.0198329               0.5397
       ...                                ...                  ...
        20                          0.1184979               3.2245
      -------------------------------------------------------------
                  HL-Gap            0.0058269 Eh            0.1586 eV
             Fermi-level           -0.4353456 Eh          -11.8464 eV

 SCC (total)                   0 d,  0 h,  0 min,  0.005 sec
 SCC setup                      ...        0 min,  0.000 sec (  1.531%)
 Dispersion                     ...        0 min,  0.000 sec (  0.366%)
 integral evaluation            ...        0 min,  0.001 sec ( 27.495%)
 zeroth order Hamiltonian       ...        0 min,  0.000 sec (  0.387%)
 iterations                     ...        0 min,  0.002 sec ( 43.475%)
 molecular gradient             ...        0 min,  0.001 sec ( 25.003%)
 printout                       ...        0 min,  0.000 sec (  1.602%)

         :::::::::::::::::::::::::::::::::::::::::::::::::::::
         ::                     SUMMARY                     ::
         :::::::::::::::::::::::::::::::::::::::::::::::::::::
         :: total energy             -10.856312417151 Eh    ::
         :: gradient norm              0.294229154715 Eh/a0 ::
         :: HOMO-LUMO gap              0.158556913495 eV    ::
         ::.................................................::
         :: SCC energy               -10.927309455063 Eh    ::
         :: -> isotropic ES           -0.015078994874 Eh    ::
         :: -> anisotropic ES         -0.000769299128 Eh    ::
         :: -> anisotropic XC          0.011037925351 Eh    ::
         :: -> dispersion             -0.002859800744 Eh    ::
         :: repulsion energy           0.070996985774 Eh    ::
         :: add. restraining           0.000000000000 Eh    ::
         :::::::::::::::::::::::::::::::::::::::::::::::::::::

      ----------------------------------------------------------- 
     |                   =====================                   |
     |                        A N C O P T                        |
     |                   =====================                   |
     |               Approximate Normal Coordinate               |
     |                Rational Function Optimizer                |
      ----------------------------------------------------------- 

          ...................................................
          :                      SETUP                      :
          :.................................................:
          :   optimization level            normal          :
          :   max. optcycles                   200          :
          :   ANC micro-cycles                  20          :
          :   degrees of freedom                 9          :
          :.................................................:
          :   RF solver                   davidson          :
          :   write xtbopt.log                true          :
          :   linear?                        false          :
          :   energy convergence         0.5000000E-05 Eh   :
          :   grad. convergence          0.1000000E-02 Eh/α :
          :   maximium RF displ.         1.0000000          :
          :   Hlow (freq-cutoff)         0.1000000E-01      :
          :   Hmax (freq-cutoff)         5.0000000          :
          :   S6 in model hess.         20.0000000          :
          ...................................................

generating ANC from model Hessian ...
Using Lindh-Hessian (1995)
 Shifting diagonal of input Hessian by    0.0000000000000000     
 Lowest  eigenvalues of input Hessian
   -0.000000   -0.000000   -0.000000    0.000000    0.000000    0.000000
    0.029615    0.055284    0.104294    0.124410    0.632505    0.688360
    0.853546    1.015445    1.349992
 Highest eigenvalues
    0.124410    0.632505    0.688360    0.853546    1.015445    1.349992


........................................................................
.............................. CYCLE    1 ..............................
........................................................................
   1    -10.9273095 -0.109273E+02  0.794E-05    0.16       0.0  T
   2    -10.9273095  0.113889E-08  0.332E-04    0.16     134.7  T
   3    -10.9273095 -0.103168E-08  0.125E-04    0.16     357.1  T
     SCC iter.                  ...        0 min,  0.000 sec
     gradient                   ...        0 min,  0.001 sec
 * total energy  :   -10.8563124 Eh     change       -0.2051269E-08 Eh
   gradient norm :     0.2942278 Eh/α   predicted     0.0000000E+00 (-100.00%)
   displ. norm   :     0.3635351 α      lambda       -0.9548683E-01
   maximum displ.:     0.2644571 α      in ANC's #7, #4, #8, ...

........................................................................
.............................. CYCLE    2 ..............................
........................................................................
   1    -11.0327061 -0.110327E+02  0.280E+00    0.57       0.0  T
   2    -10.7253826  0.307323E+00  0.579E+00    1.18       1.0  T
   3    -11.0441991 -0.318816E+00  0.167E+00    0.51       1.0  T
   4    -11.0424775  0.172161E-02  0.152E+00    0.76       1.0  T
   5    -11.0525161 -0.100386E-01  0.847E-01    0.55       1.0  T
   6    -11.0587506 -0.623446E-02  0.302E-01    0.61       1.0  T
   7    -11.0591691 -0.418479E-03  0.119E-01    0.61       1.0  T
   8    -11.0591833 -0.142419E-04  0.718E-02    0.59       1.0  T
   9    -11.0592195 -0.362522E-04  0.252E-02    0.60       1.8  T
  10    -11.0592217 -0.213777E-05  0.249E-03    0.60      17.9  T
  11    -11.0592217 -0.237467E-07  0.102E-03    0.60      43.8  T
  12    -11.0592217 -0.456465E-08  0.341E-04    0.60     131.1  T
  13    -11.0592217 -0.225182E-09  0.993E-05    0.60     450.4  T
     SCC iter.                  ...        0 min,  0.001 sec
     gradient                   ...        0 min,  0.001 sec
 * total energy  :   -10.9423866 Eh     change       -0.8607417E-01 Eh
   gradient norm :     0.2281979 Eh/α   predicted    -0.5405307E-01 ( -37.20%)
   displ. norm   :     0.6926062 α      lambda       -0.1483112E+00
   maximum displ.:     0.5259235 α      in ANC's #7, #4, #8, ...

........................................................................
.............................. CYCLE    3 ..............................
........................................................................
   1    -11.3251116 -0.113251E+02  0.453E+00    2.70       0.0  T
   2    -11.2235339  0.101578E+00  0.405E+00    2.81       1.0  T
   3    -11.1721144  0.514195E-01  0.459E+00    2.33       1.0  T
   4    -11.3239581 -0.151844E+00  0.173E+00    2.86       1.0  T
   5    -11.3448567 -0.208986E-01  0.777E-01    2.64       1.0  T
   6    -11.3479680 -0.311132E-02  0.340E-01    2.67       1.0  T
   7    -11.3479803 -0.122748E-04  0.235E-01    2.68       1.0  T
   8    -11.3480131 -0.327539E-04  0.342E-02    2.67       1.3  T
   9    -11.3480206 -0.753513E-05  0.155E-02    2.67       2.9  T
  10    -11.3480210 -0.350378E-06  0.551E-03    2.67       8.1  T
  11    -11.3480210 -0.241207E-07  0.134E-03    2.67      33.5  T
  12    -11.3480210 -0.138927E-09  0.324E-04    2.67     138.2  T
  13    -11.3480210 -0.584075E-09  0.667E-05    2.67     670.1  T
     SCC iter.                  ...        0 min,  0.001 sec
     gradient                   ...        0 min,  0.001 sec
 * total energy  :   -10.9762248 Eh     change       -0.3383818E-01 Eh
   gradient norm :     0.4807208 Eh/α   predicted    -0.1097283E+00 ( 224.27%)
   displ. norm   :     0.4789437 α      lambda       -0.1488272E+00
   maximum displ.:     0.3123394 α      in ANC's #4, #1, #3, ...

........................................................................
.............................. CYCLE    4 ..............................
........................................................................
   1    -11.2055076 -0.112055E+02  0.223E+00    2.12       0.0  T
   2    -11.0599983  0.145509E+00  0.405E+00    2.39       1.0  T
   3    -11.1880243 -0.128026E+00  0.190E+00    2.28       1.0  T
   4    -11.1348547  0.531696E-01  0.275E+00    2.04       1.0  T
   5    -11.2088212 -0.739665E-01  0.104E+00    2.23       1.0  T
   6    -11.2183280 -0.950681E-02  0.322E-01    2.23       1.0  T
   7    -11.2187192 -0.391218E-03  0.173E-01    2.23       1.0  T
   8    -11.2187609 -0.416316E-04  0.576E-02    2.24       1.0  T
   9    -11.2187805 -0.196546E-04  0.399E-02    2.24       1.1  T
  10    -11.2187945 -0.140176E-04  0.350E-03    2.24      12.8  T
  11    -11.2187946 -0.355916E-07  0.225E-03    2.24      19.9  T
  12    -11.2187946 -0.217649E-07  0.415E-04    2.24     107.9  T
  13    -11.2187946  0.955946E-10  0.199E-04    2.24     225.3  T
     SCC iter.                  ...        0 min,  0.001 sec
     gradient                   ...        0 min,  0.001 sec
 * total energy  :   -11.0350840 Eh     change       -0.5885925E-01 Eh
   gradient norm :     0.1322138 Eh/α   predicted    -0.9148308E-01 (  55.43%)
   displ. norm   :     0.3636700 α      lambda       -0.2394350E-01
   maximum displ.:     0.2010290 α      in ANC's #3, #4, #7, ...

........................................................................
.............................. CYCLE    5 ..............................
........................................................................
   1    -11.2447880 -0.112448E+02  0.163E+00    2.73       0.0  T
   2    -11.2374303  0.735776E-02  0.127E+00    2.80       1.0  T
   3    -11.1342145  0.103216E+00  0.300E+00    2.62       1.0  T
   4    -11.2415008 -0.107286E+00  0.717E-01    2.69       1.0  T
   5    -11.2452011 -0.370029E-02  0.188E-01    2.75       1.0  T
   6    -11.2452872 -0.861091E-04  0.136E-01    2.75       1.0  T
   7    -11.2453037 -0.164913E-04  0.119E-01    2.75       1.0  T
   8    -11.2453473 -0.436578E-04  0.110E-02    2.76       4.1  T
   9    -11.2453473 -0.297476E-07  0.442E-03    2.76      10.1  T
  10    -11.2453473  0.543022E-08  0.293E-03    2.76      15.3  T
  11    -11.2453474 -0.655772E-07  0.113E-03    2.76      39.6  T
  12    -11.2453474 -0.402990E-08  0.161E-04    2.76     277.8  T
  13    -11.2453474 -0.154840E-09  0.524E-05    2.76     854.0  T
     SCC iter.                  ...        0 min,  0.001 sec
     gradient                   ...        0 min,  0.001 sec
 * total energy  :   -11.0531840 Eh     change       -0.1809997E-01 Eh
   gradient norm :     0.1234002 Eh/α   predicted    -0.1355509E-01 ( -25.11%)
   displ. norm   :     0.5692030 α      lambda       -0.4133629E-01
   maximum displ.:     0.3406559 α      in ANC's #4, #7, #1, ...

........................................................................
.............................. CYCLE    6 ..............................
........................................................................
   1    -11.3344444 -0.113344E+02  0.280E+00    3.72       0.0  T
   2    -11.3201063  0.143381E-01  0.190E+00    3.65       1.0  T
   3    -11.1731966  0.146910E+00  0.377E+00    3.64       1.0  T
   4    -11.3353146 -0.162118E+00  0.497E-01    3.73       1.0  T
   5    -11.3364419 -0.112736E-02  0.227E-01    3.69       1.0  T
   6    -11.3366403 -0.198361E-03  0.150E-01    3.69       1.0  T
   7    -11.3366522 -0.119525E-04  0.592E-02    3.70       1.0  T
   8    -11.3366718 -0.195254E-04  0.115E-02    3.70       3.9  T
   9    -11.3366715  0.220509E-06  0.809E-03    3.70       5.5  T
  10    -11.3366717 -0.153047E-06  0.467E-03    3.70       9.6  T
  11    -11.3366719 -0.219299E-06  0.932E-04    3.70      48.0  T
  12    -11.3366719 -0.315984E-08  0.112E-04    3.70     398.5  T
     SCC iter.                  ...        0 min,  0.001 sec
     gradient                   ...        0 min,  0.002 sec
 * total energy  :   -11.0796789 Eh     change       -0.2649487E-01 Eh
   gradient norm :     0.0935754 Eh/α   predicted    -0.2736445E-01 (   3.28%)
   displ. norm   :     0.4924001 α      lambda       -0.2238020E-01
   maximum displ.:     0.2787090 α      in ANC's #7, #3, #4, ...

........................................................................
.............................. CYCLE    7 ..............................
........................................................................
   1    -11.3430677 -0.113431E+02  0.204E+00    3.86       0.0  T
   2    -11.3350334  0.803423E-02  0.153E+00    3.90       1.0  T
   3    -11.2944915  0.405420E-01  0.213E+00    3.83       1.0  T
   4    -11.3286040 -0.341126E-01  0.125E+00    3.88       1.0  T
   5    -11.3438031 -0.151990E-01  0.404E-01    3.84       1.0  T
   6    -11.3448268 -0.102371E-02  0.204E-01    3.88       1.0  T
   7    -11.3448886 -0.617753E-04  0.184E-01    3.88       1.0  T
   8    -11.3450429 -0.154325E-03  0.452E-02    3.89       1.0  T
   9    -11.3450549 -0.119822E-04  0.194E-02    3.89       2.3  T
  10    -11.3450578 -0.289294E-05  0.574E-03    3.89       7.8  T
  11    -11.3450580 -0.246038E-06  0.101E-03    3.89      44.4  T
  12    -11.3450580 -0.503114E-08  0.896E-05    3.89     499.2  T
  13    -11.3450580 -0.807354E-11  0.541E-05    3.89     827.1  T
     SCC iter.                  ...        0 min,  0.001 sec
     gradient                   ...        0 min,  0.001 sec
 * total energy  :   -11.0938990 Eh     change       -0.1422013E-01 Eh
   gradient norm :     0.0639393 Eh/α   predicted    -0.1390323E-01 (  -2.23%)
   displ. norm   :     0.5770503 α      lambda       -0.2258164E-01
   maximum displ.:     0.4072016 α      in ANC's #1, #3, #7, ...

........................................................................
.............................. CYCLE    8 ..............................
........................................................................
   1    -11.4207235 -0.114207E+02  0.200E+00    4.33       0.0  T
   2    -11.4160305  0.469308E-02  0.150E+00    4.43       1.0  T
   3    -11.3130558  0.102975E+00  0.304E+00    4.19       1.0  T
   4    -11.4079032 -0.948474E-01  0.126E+00    4.42       1.0  T
   5    -11.4223978 -0.144946E-01  0.420E-01    4.36       1.0  T
   6    -11.4226029 -0.205075E-03  0.315E-01    4.40       1.0  T
   7    -11.4230236 -0.420745E-03  0.253E-01    4.38       1.0  T
   8    -11.4234843 -0.460719E-03  0.394E-02    4.37       1.1  T
   9    -11.4234764  0.793694E-05  0.435E-02    4.37       1.0  T
  10    -11.4234893 -0.128708E-04  0.197E-03    4.37      22.7  T
  11    -11.4234892  0.906570E-08  0.129E-03    4.37      34.6  T
  12    -11.4234893 -0.112534E-07  0.254E-04    4.37     176.2  T
  13    -11.4234893 -0.184482E-09  0.171E-04    4.37     261.1  T
     SCC iter.                  ...        0 min,  0.002 sec
     gradient                   ...        0 min,  0.001 sec
 * total energy  :   -11.0713760 Eh     change        0.2252303E-01 Eh
   gradient norm :     0.3502528 Eh/α   predicted    -0.1505052E-01 (-166.82%)
   displ. norm   :     0.2339301 α      lambda       -0.6331467E-01
   maximum displ.:     0.1848613 α      in ANC's #4, #3, #5, ...

........................................................................
.............................. CYCLE    9 ..............................
........................................................................
   1    -11.3850676 -0.113851E+02  0.711E-01    3.88       0.0  T
   2    -11.3684041  0.166635E-01  0.140E+00    3.99       1.0  T
   3    -11.3857760 -0.173719E-01  0.578E-01    3.97       1.0  T
   4    -11.3852491  0.526873E-03  0.474E-01    3.94       1.0  T
   5    -11.3866660 -0.141684E-02  0.157E-01    3.96       1.0  T
   6    -11.3867703 -0.104319E-03  0.851E-02    3.95       1.0  T
   7    -11.3868426 -0.723145E-04  0.231E-02    3.95       1.9  T
   8    -11.3868439 -0.127327E-05  0.151E-02    3.95       3.0  T
   9    -11.3868457 -0.181884E-05  0.240E-03    3.95      18.6  T
  10    -11.3868457 -0.312586E-07  0.827E-04    3.95      54.1  T
  11    -11.3868457 -0.399803E-08  0.320E-04    3.95     139.7  T
     SCC iter.                  ...        0 min,  0.001 sec
     gradient                   ...        0 min,  0.001 sec
 * total energy  :   -11.1019471 Eh     change       -0.3057110E-01 Eh
   gradient norm :     0.0824696 Eh/α   predicted    -0.3338973E-01 (   9.22%)
   displ. norm   :     0.1223101 α      lambda       -0.5527142E-02
   maximum displ.:     0.0826893 α      in ANC's #2, #7, #9, ...

........................................................................
.............................. CYCLE   10 ..............................
........................................................................
   1    -11.3821959 -0.113822E+02  0.525E-01    3.94       0.0  T
   2    -11.3814761  0.719821E-03  0.395E-01    3.94       1.0  T
   3    -11.3783905  0.308564E-02  0.613E-01    3.91       1.0  T
   4    -11.3818854 -0.349496E-02  0.238E-01    3.93       1.0  T
   5    -11.3822597 -0.374294E-03  0.894E-02    3.94       1.0  T
   6    -11.3823375 -0.778108E-04  0.357E-02    3.94       1.3  T
   7    -11.3823455 -0.792398E-05  0.120E-02    3.94       3.7  T
   8    -11.3823462 -0.749770E-06  0.396E-03    3.94      11.3  T
   9    -11.3823463 -0.728419E-07  0.137E-03    3.94      32.6  T
  10    -11.3823463 -0.931107E-08  0.289E-04    3.94     154.6  T
  11    -11.3823463 -0.724576E-11  0.156E-04    3.94     286.9  T
     SCC iter.                  ...        0 min,  0.001 sec
     gradient                   ...        0 min,  0.001 sec
 * total energy  :   -11.1051346 Eh     change       -0.3187566E-02 Eh
   gradient norm :     0.0386421 Eh/α   predicted    -0.2804913E-02 ( -12.00%)
   displ. norm   :     0.2745974 α      lambda       -0.6338939E-02
   maximum displ.:     0.2334455 α      in ANC's #1, #6, #9, ...

........................................................................
.............................. CYCLE   11 ..............................
........................................................................
   1    -11.3932363 -0.113932E+02  0.982E-01    4.02       0.0  T
   2    -11.3921436  0.109273E-02  0.677E-01    4.05       1.0  T
   3    -11.3799564  0.121873E-01  0.111E+00    3.99       1.0  T
   4    -11.3919098 -0.119534E-01  0.414E-01    4.02       1.0  T
   5    -11.3931314 -0.122164E-02  0.175E-01    4.03       1.0  T
   6    -11.3934487 -0.317244E-03  0.749E-02    4.04       1.0  T
   7    -11.3934806 -0.318942E-04  0.391E-02    4.04       1.1  T
   8    -11.3934927 -0.120920E-04  0.763E-03    4.04       5.9  T
   9    -11.3934932 -0.501078E-06  0.373E-03    4.04      12.0  T
  10    -11.3934933 -0.120503E-06  0.270E-04    4.04     165.9  T
  11    -11.3934933  0.225504E-08  0.508E-04    4.04      88.0  T
     SCC iter.                  ...        0 min,  0.001 sec
     gradient                   ...        0 min,  0.001 sec
 * total energy  :   -11.1101995 Eh     change       -0.5064817E-02 Eh
   gradient norm :     0.0452295 Eh/α   predicted    -0.3408457E-02 ( -32.70%)
   displ. norm   :     0.7492511 α      lambda       -0.1230821E-01
   maximum displ.:     0.6365637 α      in ANC's #1, #6, #4, ...

........................................................................
.............................. CYCLE   12 ..............................
........................................................................
   1    -11.3598160 -0.113598E+02  0.201E+00    3.64       0.0  T
   2    -11.3452663  0.145496E-01  0.155E+00    3.68       1.0  T
   3    -11.2636698  0.815966E-01  0.284E+00    3.54       1.0  T
   4    -11.3467946 -0.831248E-01  0.105E+00    3.59       1.0  T
   5    -11.3576532 -0.108586E-01  0.542E-01    3.66       1.0  T
   6    -11.3588580 -0.120477E-02  0.422E-01    3.65       1.0  T
   7    -11.3590131 -0.155148E-03  0.402E-01    3.65       1.0  T
   8    -11.3605229 -0.150979E-02  0.123E-02    3.66       3.6  T
   9    -11.3605231 -0.223128E-06  0.555E-03    3.66       8.1  T
  10    -11.3605231  0.647262E-08  0.263E-03    3.66      17.0  T
  11    -11.3605231  0.898516E-08  0.258E-03    3.66      17.3  T
  12    -11.3605232 -0.607425E-07  0.394E-04    3.66     113.4  T
  13    -11.3605232 -0.102345E-08  0.147E-04    3.66     305.2  T
     SCC iter.                  ...        0 min,  0.001 sec
     gradient                   ...        0 min,  0.001 sec
 * total energy  :   -11.1157580 Eh     change       -0.5558576E-02 Eh
   gradient norm :     0.1164173 Eh/α   predicted    -0.9608902E-02 (  72.87%)
   displ. norm   :     0.1499296 α      lambda       -0.8812256E-02
   maximum displ.:     0.1098389 α      in ANC's #6, #2, #7, ...

........................................................................
.............................. CYCLE   13 ..............................
........................................................................
   1    -11.3947624 -0.113948E+02  0.540E-01    3.99       0.0  T
   2    -11.3946987  0.637741E-04  0.335E-01    3.99       1.0  T
   3    -11.3866029  0.809576E-02  0.795E-01    3.99       1.0  T
   4    -11.3945527 -0.794983E-02  0.161E-01    3.98       1.0  T
   5    -11.3947828 -0.230106E-03  0.291E-02    3.99       1.5  T
   6    -11.3947823  0.485031E-06  0.221E-02    3.99       2.0  T
   7    -11.3947838 -0.145628E-05  0.653E-03    3.99       6.8  T
   8    -11.3947838 -0.497447E-08  0.310E-03    3.99      14.4  T
   9    -11.3947839 -0.839857E-07  0.122E-03    3.99      36.7  T
  10    -11.3947839 -0.442529E-08  0.295E-04    3.99     151.4  T
  11    -11.3947839 -0.622451E-09  0.238E-05    3.99    1876.4  T
     SCC iter.                  ...        0 min,  0.001 sec
     gradient                   ...        0 min,  0.001 sec
 * total energy  :   -11.1214499 Eh     change       -0.5691874E-02 Eh
   gradient norm :     0.0571052 Eh/α   predicted    -0.4505173E-02 ( -20.85%)
   displ. norm   :     0.3186679 α      lambda       -0.4716949E-02
   maximum displ.:     0.2595170 α      in ANC's #1, #6, #8, ...

........................................................................
.............................. CYCLE   14 ..............................
........................................................................
   1    -11.4017960 -0.114018E+02  0.944E-01    4.07       0.0  T
   2    -11.4018013 -0.526036E-05  0.545E-01    4.08       1.0  T
   3    -11.3999222  0.187911E-02  0.382E-01    4.07       1.0  T
   4    -11.4018232 -0.190099E-02  0.444E-02    4.07       1.0  T
   5    -11.4018292 -0.600611E-05  0.284E-02    4.08       1.6  T
   6    -11.4018287  0.468057E-06  0.181E-02    4.08       2.5  T
   7    -11.4018330 -0.426260E-05  0.215E-03    4.08      20.8  T
   8    -11.4018330 -0.257991E-07  0.735E-04    4.08      60.8  T
   9    -11.4018330 -0.335811E-09  0.239E-04    4.08     187.2  T
     SCC iter.                  ...        0 min,  0.001 sec
     gradient                   ...        0 min,  0.001 sec
 * total energy  :   -11.1249553 Eh     change       -0.3505423E-02 Eh
   gradient norm :     0.0517111 Eh/α   predicted    -0.2597972E-02 ( -25.89%)
   displ. norm   :     0.2814332 α      lambda       -0.4436522E-02
   maximum displ.:     0.2245108 α      in ANC's #1, #6, #4, ...

........................................................................
.............................. CYCLE   15 ..............................
........................................................................
   1    -11.4078512 -0.114079E+02  0.867E-01    4.14       0.0  T
   2    -11.4072055  0.645651E-03  0.559E-01    4.13       1.0  T
   3    -11.2962238  0.110982E+00  0.300E+00    4.14       1.0  T
   4    -11.4078909 -0.111667E+00  0.903E-02    4.13       1.0  T
   5    -11.4078236  0.673173E-04  0.108E-01    4.14       1.0  T
   6    -11.4078870 -0.634320E-04  0.760E-02    4.14       1.0  T
   7    -11.4079275 -0.405087E-04  0.394E-02    4.14       1.1  T
   8    -11.4079351 -0.757124E-05  0.238E-02    4.14       1.9  T
   9    -11.4079375 -0.237185E-05  0.172E-02    4.14       2.6  T
  10    -11.4079400 -0.253512E-05  0.258E-03    4.14      17.4  T
  11    -11.4079399  0.689752E-07  0.375E-03    4.14      11.9  T
  12    -11.4079400 -0.120749E-06  0.879E-05    4.14     508.5  T
  13    -11.4079400 -0.354827E-10  0.227E-05    4.14    1974.3  T
     SCC iter.                  ...        0 min,  0.002 sec
     gradient                   ...        0 min,  0.001 sec
 * total energy  :   -11.1278571 Eh     change       -0.2901796E-02 Eh
   gradient norm :     0.0213790 Eh/α   predicted    -0.2393960E-02 ( -17.50%)
   displ. norm   :     0.1977528 α      lambda       -0.1332811E-02
   maximum displ.:     0.1652037 α      in ANC's #1, #6, #2, ...

........................................................................
.............................. CYCLE   16 ..............................
........................................................................
   1    -11.4069218 -0.114069E+02  0.598E-01    4.10       0.0  T
   2    -11.4068394  0.824522E-04  0.357E-01    4.09       1.0  T
   3    -11.3883125  0.185268E-01  0.121E+00    4.11       1.0  T
   4    -11.4069250 -0.186125E-01  0.490E-02    4.10       1.0  T
   5    -11.4069415 -0.165069E-04  0.274E-02    4.09       1.6  T
   6    -11.4069406  0.890449E-06  0.229E-02    4.09       2.0  T
   7    -11.4069444 -0.380269E-05  0.104E-02    4.09       4.3  T
   8    -11.4069454 -0.945093E-06  0.241E-03    4.09      18.5  T
   9    -11.4069454 -0.123454E-07  0.176E-03    4.09      25.4  T
  10    -11.4069454 -0.271933E-07  0.548E-04    4.09      81.7  T
  11    -11.4069454 -0.176526E-08  0.276E-04    4.09     162.0  T
     SCC iter.                  ...        0 min,  0.001 sec
     gradient                   ...        0 min,  0.001 sec
 * total energy  :   -11.1287630 Eh     change       -0.9058602E-03 Eh
   gradient norm :     0.0180132 Eh/α   predicted    -0.6924655E-03 ( -23.56%)
   displ. norm   :     0.1635854 α      lambda       -0.1249188E-02
   maximum displ.:     0.1067505 α      in ANC's #1, #2, #6, ...

........................................................................
.............................. CYCLE   17 ..............................
........................................................................
   1    -11.4170441 -0.114170E+02  0.528E-01    4.17       0.0  T
   2    -11.4168407  0.203387E-03  0.331E-01    4.17       1.0  T
   3    -11.3887825  0.280582E-01  0.149E+00    4.17       1.0  T
   4    -11.4170090 -0.282265E-01  0.945E-02    4.16       1.0  T
   5    -11.4170688 -0.598783E-04  0.292E-02    4.17       1.5  T
   6    -11.4170690 -0.166464E-06  0.243E-02    4.17       1.8  T
   7    -11.4170732 -0.424903E-05  0.645E-03    4.17       6.9  T
   8    -11.4170736 -0.305746E-06  0.331E-03    4.17      13.5  T
   9    -11.4170736 -0.367325E-07  0.221E-03    4.17      20.2  T
  10    -11.4170736 -0.357865E-07  0.671E-04    4.17      66.6  T
  11    -11.4170736 -0.244493E-08  0.311E-04    4.17     143.7  T
     SCC iter.                  ...        0 min,  0.001 sec
     gradient                   ...        0 min,  0.001 sec
 * total energy  :   -11.1294716 Eh     change       -0.7086311E-03 Eh
   gradient norm :     0.0195505 Eh/α   predicted    -0.6413095E-03 (  -9.50%)
   displ. norm   :     0.2837780 α      lambda       -0.1151758E-02
   maximum displ.:     0.2323127 α      in ANC's #1, #2, #6, ...

........................................................................
.............................. CYCLE   18 ..............................
........................................................................
   1    -11.3957096 -0.113957E+02  0.876E-01    3.98       0.0  T
   2    -11.3922263  0.348324E-02  0.743E-01    4.00       1.0  T
   3    -11.3741006  0.181257E-01  0.130E+00    3.99       1.0  T
   4    -11.3943670 -0.202664E-01  0.394E-01    3.97       1.0  T
   5    -11.3954126 -0.104564E-02  0.228E-01    3.99       1.0  T
   6    -11.3956601 -0.247520E-03  0.171E-01    3.99       1.0  T
   7    -11.3957303 -0.701397E-04  0.144E-01    3.99       1.0  T
   8    -11.3959079 -0.177602E-03  0.219E-02    4.00       2.0  T
   9    -11.3959126 -0.473098E-05  0.606E-03    4.00       7.4  T
  10    -11.3959129 -0.259333E-06  0.154E-03    4.00      29.0  T
  11    -11.3959129 -0.639352E-08  0.135E-03    4.00      33.2  T
  12    -11.3959129 -0.158124E-07  0.479E-05    4.00     934.6  T
  13    -11.3959129  0.123510E-10  0.582E-05    4.00     768.9  T
     SCC iter.                  ...        0 min,  0.001 sec
     gradient                   ...        0 min,  0.001 sec
 * total energy  :   -11.1287943 Eh     change        0.6773436E-03 Eh
   gradient norm :     0.0563423 Eh/α   predicted    -0.6222538E-03 (-191.87%)
   displ. norm   :     0.1053225 α      lambda       -0.3099591E-02
   maximum displ.:     0.0674222 α      in ANC's #1, #2, #6, ...

........................................................................
.............................. CYCLE   19 ..............................
........................................................................
   1    -11.4168092 -0.114168E+02  0.419E-01    4.13       0.0  T
   2    -11.4154581  0.135112E-02  0.418E-01    4.09       1.0  T
   3    -11.4108125  0.464563E-02  0.689E-01    4.11       1.0  T
   4    -11.4168463 -0.603385E-02  0.132E-01    4.12       1.0  T
   5    -11.4169579 -0.111545E-03  0.193E-02    4.10       2.3  T
   6    -11.4169577  0.180587E-06  0.146E-02    4.11       3.1  T
   7    -11.4169590 -0.132763E-05  0.925E-03    4.10       4.8  T
   8    -11.4169594 -0.331723E-06  0.164E-03    4.11      27.2  T
   9    -11.4169594 -0.292793E-07  0.478E-04    4.11      93.5  T
  10    -11.4169594 -0.418249E-09  0.120E-04    4.11     371.9  T
     SCC iter.                  ...        0 min,  0.001 sec
     gradient                   ...        0 min,  0.001 sec
 * total energy  :   -11.1300471 Eh     change       -0.1252845E-02 Eh
   gradient norm :     0.0243934 Eh/α   predicted    -0.1566987E-02 (  25.07%)
   displ. norm   :     0.0457147 α      lambda       -0.5302094E-03
   maximum displ.:     0.0317311 α      in ANC's #3, #7, #4, ...

........................................................................
.............................. CYCLE   20 ..............................
........................................................................
   1    -11.4166053 -0.114166E+02  0.173E-01    4.16       0.0  T
   2    -11.4165980  0.728413E-05  0.107E-01    4.17       1.0  T
   3    -11.4160018  0.596177E-03  0.219E-01    4.16       1.0  T
   4    -11.4165330 -0.531205E-03  0.805E-02    4.17       1.0  T
   5    -11.4166096 -0.765751E-04  0.145E-02    4.17       3.1  T
   6    -11.4166113 -0.171389E-05  0.650E-03    4.17       6.9  T
   7    -11.4166112  0.128123E-06  0.454E-03    4.17       9.9  T
   8    -11.4166114 -0.236745E-06  0.874E-04    4.17      51.2  T
   9    -11.4166114  0.116925E-08  0.708E-04    4.17      63.1  T
     SCC iter.                  ...        0 min,  0.001 sec
     gradient                   ...        0 min,  0.001 sec
 * total energy  :   -11.1302303 Eh     change       -0.1831706E-03 Eh
   gradient norm :     0.0170539 Eh/α   predicted    -0.2656592E-03 (  45.03%)
   displ. norm   :     0.0465797 α      lambda       -0.3601207E-03
   maximum displ.:     0.0270480 α      in ANC's #1, #4, #2, ...
 * RMSD in coord.:     1.6417321 α      energy gain  -0.2739179E+00 Eh

generating ANC from model Hessian ...
Using Lindh-Hessian (1995)
 Shifting diagonal of input Hessian by    8.4565750905684460E-003
 Lowest  eigenvalues of input Hessian
   -0.000000   -0.000000   -0.000000    0.000000    0.000000    0.000000
    0.010000    0.012247    0.247485    0.330717    0.517802    0.908025
    1.211101    2.316036    2.909142
 Highest eigenvalues
    0.330717    0.517802    0.908025    1.211101    2.316036    2.909142


........................................................................
.............................. CYCLE   21 ..............................
........................................................................
   1    -11.4184277 -0.114184E+02  0.158E-01    4.13       0.0  T
   2    -11.4183349  0.928124E-04  0.130E-01    4.14       1.0  T
   3    -11.4176003  0.734626E-03  0.258E-01    4.14       1.0  T
   4    -11.4183816 -0.781286E-03  0.776E-02    4.13       1.0  T
   5    -11.4184333 -0.516924E-04  0.220E-02    4.14       2.0  T
   6    -11.4184378 -0.452996E-05  0.960E-03    4.14       4.7  T
   7    -11.4184385 -0.724324E-06  0.158E-03    4.14      28.4  T
   8    -11.4184385  0.322949E-08  0.158E-03    4.14      28.3  T
   9    -11.4184386 -0.154093E-07  0.964E-04    4.14      46.4  T
  10    -11.4184386 -0.723491E-08  0.608E-05    4.14     735.1  T
     SCC iter.                  ...        0 min,  0.001 sec
     gradient                   ...        0 min,  0.001 sec
 * total energy  :   -11.1304035 Eh     change       -0.1731880E-03 Eh
   gradient norm :     0.0094360 Eh/α   predicted     0.0000000E+00 (-100.00%)
   displ. norm   :     0.2357031 α      lambda       -0.6971308E-03
   maximum displ.:     0.1830522 α      in ANC's #1, #2, #5, ...

........................................................................
.............................. CYCLE   22 ..............................
........................................................................
   1    -11.4132793 -0.114133E+02  0.695E-01    4.06       0.0  T
   2    -11.4132356  0.437100E-04  0.422E-01    4.05       1.0  T
   3    -11.4013499  0.118857E-01  0.978E-01    4.06       1.0  T
   4    -11.4131226 -0.117728E-01  0.124E-01    4.06       1.0  T
   5    -11.4132925 -0.169829E-03  0.218E-02    4.05       2.1  T
   6    -11.4132926 -0.900056E-07  0.164E-02    4.05       2.7  T
   7    -11.4132939 -0.138244E-05  0.790E-03    4.05       5.7  T
   8    -11.4132945 -0.561289E-06  0.121E-03    4.05      37.0  T
   9    -11.4132945  0.662642E-08  0.891E-04    4.05      50.2  T
  10    -11.4132945 -0.824187E-08  0.128E-04    4.05     348.6  T
     SCC iter.                  ...        0 min,  0.001 sec
     gradient                   ...        0 min,  0.001 sec
 * total energy  :   -11.1300537 Eh     change        0.3497327E-03 Eh
   gradient norm :     0.0200203 Eh/α   predicted    -0.3679325E-03 (-205.20%)
   displ. norm   :     0.1475070 α      lambda       -0.1389344E-02
   maximum displ.:     0.1467612 α      in ANC's #2, #1, #4, ...

........................................................................
.............................. CYCLE   23 ..............................
........................................................................
   1    -11.4177734 -0.114178E+02  0.509E-01    4.11       0.0  T
   2    -11.4177805 -0.709949E-05  0.294E-01    4.11       1.0  T
   3    -11.4171483  0.632162E-03  0.229E-01    4.10       1.0  T
   4    -11.4177048 -0.556439E-03  0.874E-02    4.11       1.0  T
   5    -11.4177911 -0.863779E-04  0.203E-02    4.11       2.2  T
   6    -11.4177925 -0.141444E-05  0.117E-02    4.11       3.8  T
   7    -11.4177936 -0.107371E-05  0.177E-03    4.11      25.2  T
   8    -11.4177936 -0.134624E-07  0.103E-03    4.11      43.5  T
   9    -11.4177936 -0.622252E-08  0.469E-04    4.11      95.5  T
  10    -11.4177936 -0.335413E-09  0.112E-04    4.11     397.7  T
     SCC iter.                  ...        0 min,  0.001 sec
     gradient                   ...        0 min,  0.001 sec
 * total energy  :   -11.1304768 Eh     change       -0.4230469E-03 Eh
   gradient norm :     0.0106367 Eh/α   predicted    -0.7097859E-03 (  67.78%)
   displ. norm   :     0.2122003 α      lambda       -0.7418166E-03
   maximum displ.:     0.2081337 α      in ANC's #1, #2, #3, ...

........................................................................
.............................. CYCLE   24 ..............................
........................................................................
   1    -11.4235728 -0.114236E+02  0.735E-01    4.19       0.0  T
   2    -11.4235788 -0.605264E-05  0.418E-01    4.18       1.0  T
   3    -11.4192820  0.429687E-02  0.580E-01    4.19       1.0  T
   4    -11.4236115 -0.432953E-02  0.347E-02    4.18       1.3  T
   5    -11.4236133 -0.182032E-05  0.241E-02    4.18       1.9  T
   6    -11.4236126  0.694514E-06  0.176E-02    4.18       2.5  T
   7    -11.4236152 -0.257991E-05  0.247E-03    4.18      18.1  T
   8    -11.4236152 -0.281986E-07  0.105E-03    4.18      42.5  T
   9    -11.4236152 -0.542064E-08  0.367E-04    4.18     121.8  T
  10    -11.4236152 -0.464606E-09  0.167E-04    4.18     268.5  T
     SCC iter.                  ...        0 min,  0.001 sec
     gradient                   ...        0 min,  0.002 sec
 * total energy  :   -11.1304156 Eh     change        0.6115486E-04 Eh
   gradient norm :     0.0126289 Eh/α   predicted    -0.3876093E-03 (-733.82%)
   displ. norm   :     0.1208919 α      lambda       -0.4237343E-03
   maximum displ.:     0.1206440 α      in ANC's #1, #4, #5, ...

........................................................................
.............................. CYCLE   25 ..............................
........................................................................
   1    -11.4212682 -0.114213E+02  0.393E-01    4.16       0.0  T
   2    -11.4212726 -0.440699E-05  0.225E-01    4.15       1.0  T
   3    -11.4208760  0.396558E-03  0.179E-01    4.16       1.0  T
   4    -11.4212613 -0.385209E-03  0.407E-02    4.16       1.1  T
   5    -11.4212782 -0.169584E-04  0.132E-02    4.15       3.4  T
   6    -11.4212784 -0.211956E-06  0.447E-03    4.15      10.0  T
   7    -11.4212787 -0.228932E-06  0.888E-04    4.15      50.4  T
   8    -11.4212787 -0.294983E-08  0.392E-04    4.15     114.0  T
     SCC iter.                  ...        0 min,  0.001 sec
     gradient                   ...        0 min,  0.001 sec
 * total energy  :   -11.1306924 Eh     change       -0.2767806E-03 Eh
   gradient norm :     0.0061797 Eh/α   predicted    -0.2149638E-03 ( -22.33%)
   displ. norm   :     0.0579745 α      lambda       -0.9797954E-04
   maximum displ.:     0.0558982 α      in ANC's #1, #3, #5, ...

........................................................................
.............................. CYCLE   26 ..............................
........................................................................
   1    -11.4186426 -0.114186E+02  0.179E-01    4.13       0.0  T
   2    -11.4186356  0.700633E-05  0.106E-01    4.13       1.0  T
   3    -11.4177619  0.873692E-03  0.256E-01    4.13       1.0  T
   4    -11.4186431 -0.881213E-03  0.145E-02    4.13       3.1  T
   5    -11.4186446 -0.154075E-05  0.663E-03    4.13       6.7  T
   6    -11.4186447 -0.675244E-07  0.422E-03    4.13      10.6  T
   7    -11.4186448 -0.114188E-06  0.500E-04    4.13      89.4  T
   8    -11.4186448  0.200318E-08  0.561E-04    4.13      79.8  T
     SCC iter.                  ...        0 min,  0.001 sec
     gradient                   ...        0 min,  0.001 sec
 * total energy  :   -11.1307517 Eh     change       -0.5930110E-04 Eh
   gradient norm :     0.0054620 Eh/α   predicted    -0.4915496E-04 ( -17.11%)
   displ. norm   :     0.0335206 α      lambda       -0.7545720E-04
   maximum displ.:     0.0249264 α      in ANC's #1, #3, #5, ...

........................................................................
.............................. CYCLE   27 ..............................
........................................................................
   1    -11.4184710 -0.114185E+02  0.100E-01    4.13       0.0  T
   2    -11.4184713 -0.296275E-06  0.582E-02    4.13       1.0  T
   3    -11.4184698  0.151440E-05  0.119E-02    4.13       3.8  T
   4    -11.4184708 -0.100548E-05  0.779E-03    4.13       5.7  T
   5    -11.4184714 -0.543219E-06  0.428E-03    4.13      10.5  T
   6    -11.4184715 -0.113086E-06  0.383E-04    4.13     116.7  T
   7    -11.4184715 -0.107628E-08  0.168E-04    4.13     267.0  T
     SCC iter.                  ...        0 min,  0.001 sec
     gradient                   ...        0 min,  0.001 sec
 * total energy  :   -11.1308193 Eh     change       -0.6754853E-04 Eh
   gradient norm :     0.0059318 Eh/α   predicted    -0.3777187E-04 ( -44.08%)
   displ. norm   :     0.1233484 α      lambda       -0.3275865E-03
   maximum displ.:     0.0753771 α      in ANC's #3, #1, #5, ...

........................................................................
.............................. CYCLE   28 ..............................
........................................................................
   1    -11.4188848 -0.114189E+02  0.366E-01    4.14       0.0  T
   2    -11.4188876 -0.279976E-05  0.216E-01    4.14       1.0  T
   3    -11.4188705  0.171745E-04  0.420E-02    4.14       1.1  T
   4    -11.4188722 -0.179175E-05  0.378E-02    4.14       1.2  T
   5    -11.4188871 -0.148639E-04  0.162E-02    4.14       2.8  T
   6    -11.4188891 -0.194340E-05  0.294E-03    4.14      15.2  T
   7    -11.4188892 -0.973565E-07  0.765E-04    4.14      58.5  T
   8    -11.4188892 -0.354150E-08  0.302E-04    4.14     148.1  T
     SCC iter.                  ...        0 min,  0.001 sec
     gradient                   ...        0 min,  0.001 sec
 * total energy  :   -11.1310037 Eh     change       -0.1843909E-03 Eh
   gradient norm :     0.0042031 Eh/α   predicted    -0.1662830E-03 (  -9.82%)
   displ. norm   :     0.0207618 α      lambda       -0.3480321E-04
   maximum displ.:     0.0112010 α      in ANC's #6, #3, #4, ...

........................................................................
.............................. CYCLE   29 ..............................
........................................................................
   1    -11.4206049 -0.114206E+02  0.604E-02    4.15       0.0  T
   2    -11.4206048  0.118053E-06  0.368E-02    4.15       1.2  T
   3    -11.4205902  0.145906E-04  0.377E-02    4.15       1.2  T
   4    -11.4205960 -0.581295E-05  0.263E-02    4.15       1.7  T
   5    -11.4206051 -0.904597E-05  0.169E-03    4.15      26.5  T
   6    -11.4206051  0.607251E-08  0.132E-03    4.15      33.8  T
   7    -11.4206051 -0.129974E-07  0.222E-04    4.15     201.0  T
   8    -11.4206051 -0.205542E-09  0.100E-04    4.15     447.0  T
     SCC iter.                  ...        0 min,  0.001 sec
     gradient                   ...        0 min,  0.002 sec
 * total energy  :   -11.1310293 Eh     change       -0.2560688E-04 Eh
   gradient norm :     0.0029085 Eh/α   predicted    -0.1740805E-04 ( -32.02%)
   displ. norm   :     0.0317546 α      lambda       -0.3344422E-04
   maximum displ.:     0.0196990 α      in ANC's #1, #6, #3, ...

........................................................................
.............................. CYCLE   30 ..............................
........................................................................
   1    -11.4218088 -0.114218E+02  0.909E-02    4.16       0.0  T
   2    -11.4218075  0.125923E-05  0.552E-02    4.16       1.0  T
   3    -11.4216390  0.168553E-03  0.115E-01    4.16       1.0  T
   4    -11.4218067 -0.167681E-03  0.156E-02    4.16       2.9  T
   5    -11.4218091 -0.240642E-05  0.244E-03    4.16      18.3  T
   6    -11.4218090  0.832080E-08  0.161E-03    4.16      27.8  T
   7    -11.4218091 -0.264569E-07  0.299E-04    4.16     149.4  T
   8    -11.4218091 -0.599005E-09  0.932E-05    4.16     480.0  T
     SCC iter.                  ...        0 min,  0.001 sec
     gradient                   ...        0 min,  0.001 sec
 * total energy  :   -11.1310539 Eh     change       -0.2466957E-04 Eh
   gradient norm :     0.0027782 Eh/α   predicted    -0.1674007E-04 ( -32.14%)
   displ. norm   :     0.0335565 α      lambda       -0.3381218E-04
   maximum displ.:     0.0209181 α      in ANC's #1, #6, #3, ...

........................................................................
.............................. CYCLE   31 ..............................
........................................................................
   1    -11.4223618 -0.114224E+02  0.969E-02    4.17       0.0  T
   2    -11.4223613  0.471688E-06  0.581E-02    4.17       1.0  T
   3    -11.4222677  0.936656E-04  0.849E-02    4.17       1.0  T
   4    -11.4223617 -0.939726E-04  0.730E-03    4.17       6.1  T
   5    -11.4223620 -0.390815E-06  0.273E-03    4.17      16.4  T
   6    -11.4223620 -0.469130E-08  0.131E-03    4.17      34.2  T
   7    -11.4223621 -0.203999E-07  0.250E-04    4.17     179.1  T
   8    -11.4223621 -0.361307E-09  0.940E-05    4.17     475.8  T
     SCC iter.                  ...        0 min,  0.001 sec
     gradient                   ...        0 min,  0.001 sec
 * total energy  :   -11.1310785 Eh     change       -0.2458525E-04 Eh
   gradient norm :     0.0026599 Eh/α   predicted    -0.1692458E-04 ( -31.16%)
   displ. norm   :     0.0237716 α      lambda       -0.2579110E-04
   maximum displ.:     0.0152918 α      in ANC's #6, #1, #5, ...

........................................................................
.............................. CYCLE   32 ..............................
........................................................................
   1    -11.4221215 -0.114221E+02  0.717E-02    4.17       0.0  T
   2    -11.4221216 -0.100315E-06  0.425E-02    4.17       1.1  T
   3    -11.4221194  0.219042E-05  0.133E-02    4.17       3.4  T
   4    -11.4221213 -0.194146E-05  0.558E-03    4.17       8.0  T
   5    -11.4221216 -0.283010E-06  0.261E-03    4.17      17.1  T
   6    -11.4221216 -0.319763E-07  0.503E-04    4.17      89.0  T
   7    -11.4221216 -0.135016E-08  0.135E-04    4.17     330.9  T
     SCC iter.                  ...        0 min,  0.001 sec
     gradient                   ...        0 min,  0.001 sec
 * total energy  :   -11.1310953 Eh     change       -0.1682157E-04 Eh
   gradient norm :     0.0018263 Eh/α   predicted    -0.1290251E-04 ( -23.30%)
   displ. norm   :     0.0144186 α      lambda       -0.8233708E-05
   maximum displ.:     0.0120974 α      in ANC's #5, #1, #4, ...

........................................................................
.............................. CYCLE   33 ..............................
........................................................................
   1    -11.4213843 -0.114214E+02  0.475E-02    4.16       0.0  T
   2    -11.4213842  0.641145E-07  0.279E-02    4.16       1.6  T
   3    -11.4213649  0.193599E-04  0.397E-02    4.16       1.1  T
   4    -11.4213828 -0.179239E-04  0.118E-02    4.16       3.8  T
   5    -11.4213844 -0.165290E-05  0.156E-03    4.16      28.7  T
   6    -11.4213844  0.966895E-08  0.101E-03    4.16      44.2  T
   7    -11.4213844 -0.118232E-07  0.128E-04    4.16     348.5  T
   8    -11.4213844 -0.574421E-10  0.484E-05    4.16     923.8  T
     SCC iter.                  ...        0 min,  0.001 sec
     gradient                   ...        0 min,  0.001 sec
 * total energy  :   -11.1311011 Eh     change       -0.5737963E-05 Eh
   gradient norm :     0.0005719 Eh/α   predicted    -0.4117470E-05 ( -28.24%)
   displ. norm   :     0.0086015 α      lambda       -0.1229019E-05
   maximum displ.:     0.0059372 α      in ANC's #1, #6, #4, ...

........................................................................
.............................. CYCLE   34 ..............................
........................................................................
   1    -11.4211121 -0.114211E+02  0.252E-02    4.16       0.0  T
   2    -11.4211121  0.489749E-08  0.149E-02    4.16       3.0  T
   3    -11.4211097  0.241229E-05  0.143E-02    4.16       3.1  T
   4    -11.4211117 -0.203787E-05  0.567E-03    4.16       7.9  T
   5    -11.4211121 -0.403891E-06  0.705E-04    4.16      63.5  T
   6    -11.4211121  0.568392E-09  0.332E-04    4.16     134.9  T
     SCC iter.                  ...        0 min,  0.001 sec
     gradient                   ...        0 min,  0.001 sec
 * total energy  :   -11.1311021 Eh     change       -0.9858447E-06 Eh
   gradient norm :     0.0002715 Eh/α   predicted    -0.6132795E-06 ( -37.79%)
   displ. norm   :     0.0010133 α      lambda       -0.1661072E-06
   maximum displ.:     0.0006717 α      in ANC's #6, #4, #3, ...

   *** GEOMETRY OPTIMIZATION CONVERGED AFTER 34 ITERATIONS ***

------------------------------------------------------------------------
 total energy gain   :        -0.2747896 Eh     -172.4331 kcal/mol
 total RMSD          :         1.7553228 a0        0.9289 Å
 total power (kW/mol):       -21.2194151 (step)-5851.3676 (real)
------------------------------------------------------------------------

 ANCopt (total)                0 d,  0 h,  0 min,  0.123 sec
 optimizer setup                ...        0 min,  0.000 sec (  0.136%)
 model hessian                  ...        0 min,  0.000 sec (  0.101%)
 ANC generation                 ...        0 min,  0.000 sec (  0.065%)
 coordinate transformation      ...        0 min,  0.000 sec (  0.049%)
 single point calculation       ...        0 min,  0.120 sec ( 97.484%)
 optimization log               ...        0 min,  0.001 sec (  0.639%)
 hessian update                 ...        0 min,  0.000 sec (  0.047%)
 rational function              ...        0 min,  0.001 sec (  0.634%)

================
 final structure:
================
5
 xtb: 6.2.2 (9d81278992624c895f80dd42a50cac0aa55982e2)
N        -2.48496494393427   -0.02422030568387   -0.11958598635388
C        -1.31329653291181   -0.01059430339394   -0.06443889801648
C         1.28552494790604    0.01127421978081    0.06043371442040
C        -0.01045278736309    0.00386114409359    0.00099232721682
C         2.52318831630313    0.01967824520341    0.12259784273316

 Bond Distances (Angstroems)
 ---------------------------
N1-C2=1.1730         C2-N1=1.1730         C2-C4=1.3046         C3-C4=1.2974         C3-C5=1.2393         C4-C2=1.3046         
C4-C3=1.2974         C5-C3=1.2393         
 C  C  Rav=1.2804 sigma=0.0292  Rmin=1.2393  Rmax=1.3046     3
 N  C  Rav=1.1730 sigma=0.0000  Rmin=1.1730  Rmax=1.1730     1

 selected bond angles (degree)
 --------------------
C4-C2-N1=179.82                C5-C3-C4=179.74                C3-C4-C2=179.60                

 selected dihedral angles (degree)
 ---------------------------------
C3-C4-C2-N1=119.34            C2-C4-C3-C5=217.22            
           -------------------------------------------------
          |                Final Singlepoint                |
           -------------------------------------------------

          ...................................................
          :                      SETUP                      :
          :.................................................:
          :  # basis functions                  20          :
          :  # atomic orbitals                  20          :
          :  # shells                           10          :
          :  # electrons                        21          :
          :  max. iterations                   250          :
          :  Hamiltonian                  GFN2-xTB          :
          :  restarted?                      false          :
          :  GBSA solvation                  false          :
          :  PC potential                    false          :
          :  electronic temp.          300.0000000     K    :
          :  accuracy                    1.0000000          :
          :  -> integral cutoff          0.2500000E+02      :
          :  -> integral neglect         0.1000000E-07      :
          :  -> SCF convergence          0.1000000E-05 Eh   :
          :  -> wf. convergence          0.1000000E-03 e    :
          :  Broyden damping             0.4000000          :
          ...................................................

 iter      E             dE          RMSdq      gap      omega  full diag
   1    -11.4211121 -0.114211E+02  0.240E-04    4.16       0.0  T
   2    -11.4211121  0.130829E-08  0.291E-04    4.16     153.4  T
   3    -11.4211121  0.173800E-08  0.524E-04    4.16      85.4  T

   *** convergence criteria satisfied after 3 iterations ***

         #    Occupation            Energy/Eh            Energy/eV
      -------------------------------------------------------------
         1        2.0000           -0.6759697             -18.3941
       ...           ...                  ...                  ...
         6        2.0000           -0.5322413             -14.4830
         7        2.0000           -0.4893750             -13.3166
         8        2.0000           -0.4893746             -13.3166
         9        2.0000           -0.4640216             -12.6267
        10        1.0000           -0.4417585             -12.0209
        11        1.0000           -0.3900842             -10.6147
        12        1.0000           -0.3900831             -10.6147 (HOMO)
        13                         -0.2372408              -6.4556 (LUMO)
        14                         -0.2372390              -6.4556
        15                         -0.1015718              -2.7639
        16                         -0.1015683              -2.7638
        17                          0.0919761               2.5028
       ...                                ...                  ...
        20                          1.4583201              39.6829
      -------------------------------------------------------------
                  HL-Gap            0.1528424 Eh            4.1591 eV
             Fermi-level           -0.3832760 Eh          -10.4295 eV

 SCC (total)                   0 d,  0 h,  0 min,  0.003 sec
 SCC setup                      ...        0 min,  0.000 sec (  1.608%)
 Dispersion                     ...        0 min,  0.000 sec (  0.333%)
 integral evaluation            ...        0 min,  0.001 sec ( 43.303%)
 zeroth order Hamiltonian       ...        0 min,  0.000 sec (  0.512%)
 iterations                     ...        0 min,  0.000 sec ( 13.395%)
 molecular gradient             ...        0 min,  0.001 sec ( 39.111%)
 printout                       ...        0 min,  0.000 sec (  1.495%)

         :::::::::::::::::::::::::::::::::::::::::::::::::::::
         ::                     SUMMARY                     ::
         :::::::::::::::::::::::::::::::::::::::::::::::::::::
         :: total energy             -11.131102059979 Eh    ::
         :: gradient norm              0.000273716001 Eh/a0 ::
         :: HOMO-LUMO gap              4.159052671614 eV    ::
         ::.................................................::
         :: SCC energy               -11.421112126062 Eh    ::
         :: -> isotropic ES            0.004597137158 Eh    ::
         :: -> anisotropic ES          0.001191479014 Eh    ::
         :: -> anisotropic XC          0.020623577624 Eh    ::
         :: -> dispersion             -0.002586655488 Eh    ::
         :: repulsion energy           0.290011203613 Eh    ::
         :: add. restraining           0.000000000000 Eh    ::
         :::::::::::::::::::::::::::::::::::::::::::::::::::::

           ------------------------------------------------- 
          |                Numerical Hessian                |
           ------------------------------------------------- 
step length          :   0.00500
SCC accuracy         :   0.30000
Hessian scale factor :   1.00000
frozen atoms in %    :   0.00000    0
RMS gradient         :   0.00027
estimated CPU  time      0.00 min
estimated wall time      0.00 min

writing file <hessian>.

 projected vibrational frequencies (cm-1)
eigval :       -0.00    -0.00    -0.00     0.00     0.00     0.00
eigval :      116.23   277.67   303.59   409.91   411.16   796.16
eigval :     1626.34  1905.24  2114.79
           -------------------------------------------------
          |                Property Printout                |
           -------------------------------------------------

    * Orbital Energies and Occupations

         #    Occupation            Energy/Eh            Energy/eV
      -------------------------------------------------------------
         1        2.0000           -0.6759695             -18.3941
         2        2.0000           -0.6715889             -18.2749
         3        2.0000           -0.6486623             -17.6510
         4        2.0000           -0.5979990             -16.2724
         5        2.0000           -0.5322419             -14.4830
         6        2.0000           -0.5322418             -14.4830
         7        2.0000           -0.4893745             -13.3166
         8        2.0000           -0.4893742             -13.3165
         9        2.0000           -0.4640231             -12.6267
        10        1.0000           -0.4417570             -12.0208
        11        1.0000           -0.3900839             -10.6147
        12        1.0000           -0.3900828             -10.6147 (HOMO)
        13                         -0.2372406              -6.4556 (LUMO)
        14                         -0.2372388              -6.4556
        15                         -0.1015718              -2.7639
        16                         -0.1015682              -2.7638
        17                          0.0919761               2.5028
        18                          0.5195723              14.1383
        19                          1.0729259              29.1958
        20                          1.4583201              39.6829
      -------------------------------------------------------------
                  HL-Gap            0.1528423 Eh            4.1590 eV
             Fermi-level           -0.3832759 Eh          -10.4295 eV

     #   Z        covCN         q      C6AA      α(0)
     1   7 N      0.912    -0.172    24.715     7.189
     2   6 C      1.892     0.134    27.848     8.523
Molecule has the following symmetry elements: (Cinf) (sigma) 
It seems to be the Cinfv point group
     3   6 C      1.962     0.048    29.848     8.823
     4   6 C      1.965     0.022    30.509     8.920
     5   6 C      0.983    -0.031    36.887    10.202

 Mol. C6AA /au·bohr⁶  :        744.191552
 Mol. C8AA /au·bohr⁸  :      20545.893078
 Mol. α(0) /au        :         43.657146


Wiberg/Mayer (AO) data.
largest (>0.10) Wiberg bond orders for each atom
          total WBO             WBO to atom ...
     1  N   2.544        C    2 2.354
     2  C   3.923        N    1 2.354    C    4 1.492
     3  C   3.894        C    5 2.202    C    4 1.600
     4  C   3.140        C    3 1.600    C    2 1.492
     5  C   2.364        C    3 2.202

MOs/occ written to file <molden.input>


molecular dipole:
                 x           y           z       tot (Debye)
 q only:        0.442       0.005       0.021
   full:        0.820       0.009       0.038       2.086
molecular quadrupole (traceless):
                xx          xy          yy          xz          yz          zz
 q only:       -3.396      -0.050       1.703      -0.245      -0.002       1.692
  q+dip:       -1.205      -0.033       0.604      -0.085      -0.002       0.601
   full:       -5.538      -0.090       2.778      -0.400      -0.004       2.760

           -------------------------------------------------
          |                Geometry Summary                 |
           -------------------------------------------------

      molecular mass/u    :       62.0496468
   center of mass at/Å    :       -0.0799347      -0.0007789      -0.0038467
  moments of inertia/u·Å² :        0.4328398E-03   0.2036164E+03   0.2036166E+03
rotational constants/cm⁻¹ :        0.3894658E+05   0.8279115E-01   0.8279103E-01

 * 4 selected distances

     #   Z        #   Z                                     value/Å
     1   7 N      2   6 C                                 1.1730446 (min)
     2   6 C      4   6 C                                 1.3045658 (max)
     3   6 C      4   6 C                                 1.2973614
     3   6 C      5   6 C                                 1.2392520

 * 2 distinct bonds (by element types)

   Z      Z             #   av. dist./Å        max./Å        min./Å
   6 C    6 C           3     1.2803931     1.3045658     1.2392520
   6 C    7 N           1     1.1730446     1.1730446     1.1730446

           -------------------------------------------------
          |               Frequency Printout                |
           -------------------------------------------------
 projected vibrational frequencies (cm-1)
eigval :       -0.00    -0.00    -0.00     0.00     0.00     0.00
eigval :      116.23   277.67   303.59   409.91   411.16   796.16
eigval :     1626.34  1905.24  2114.79
 reduced masses (amu)
   1: 12.46   2: 12.07   3: 13.17   4: 13.61   5: 12.06   6: 12.03   7: 12.43   8: 12.15
   9: 12.06  10: 12.26  11: 12.28  12: 12.66  13: 12.29  14: 12.06  15: 12.58
 IR intensities (amu)
   1:  0.04   2:  0.08   3:  0.08   4:  0.18   5:  0.20   6:  0.08   7:  0.20   8:  0.27
   9:  0.27  10:  0.34  11:  0.36  12:  0.06  13:  0.81  14:  0.76  15:  0.51
 Raman intensities (amu)
   1:  0.00   2:  0.00   3:  0.00   4:  0.00   5:  0.00   6:  0.00   7:  0.00   8:  0.00
   9:  0.00  10:  0.00  11:  0.00  12:  0.00  13:  0.00  14:  0.00  15:  0.00
 output can be read by thermo (or use thermo option).
 writing <g98.out> molden fake output.
 recommended (thermochemical) frequency scaling factor: 1.0
           -------------------------------------------------
          |             Thermodynamic Functions             |
           -------------------------------------------------

cin symmetry found (for desy threshold:  0.10E+00) used in thermo

          ...................................................
          :                      SETUP                      :
          :.................................................:
          :  # frequencies                           9      :
          :  # imaginary freq.                       0      :
          :  linear?                             false      :
          :  only rotor calc.                    false      :
          :  symmetry                              cin      :
          :  rotational number                       1      :
          :  scaling factor                  1.0000000      :
          :  rotor cutoff                   50.0000000 cm⁻¹ :
          :  imag. cutoff                  -20.0000000 cm⁻¹ :
          :.................................................:

    mode    ω/cm⁻¹     T·S(HO)/kcal·mol⁻¹    T·S(FR)/kcal·mol⁻¹   T·S(vib)
   ------------------------------------------------------------------------
       1    116.23    -0.00000 ( 96.69%)     0.00669 (  3.31%)     0.00022
       2    277.67    -0.00000 ( 99.89%)     0.01533 (  0.11%)     0.00002
   ------------------------------------------------------------------------

   temp. (K)  partition function   enthalpy   heat capacity  entropy
                                   cal/mol     cal/K/mol   cal/K/mol   J/K/mol
 298.15  VIB   5.65                 1412.359      8.942      8.163
         ROT   324.                  888.752      2.981     14.466
         INT  0.183E+04             2301.111     11.923     22.629
         TR   0.473E+27             1481.254      4.968     38.278
         TOT                        3782.3650    16.8913    60.9071   254.8352

   temp. (K)  partition function   enthalpy   heat capacity  entropy
                                   cal/mol     cal/K/mol   cal/K/mol   J/K/mol
 120.00  VIB   1.44                  179.991      3.997      2.233
         ROT   82.6                  357.707      2.981     11.753
         INT   119.                  537.698      6.978     13.987
         TR   0.121E+27              596.178      4.968     33.759
         TOT                        1133.8758    11.9460    47.7454   199.7667

   temp. (K)  partition function   enthalpy   heat capacity  entropy
                                   cal/mol     cal/K/mol   cal/K/mol   J/K/mol
 100.00  VIB   1.28                  109.312      3.064      1.595
         ROT   62.9                  298.089      2.981     11.210
         INT   80.3                  407.401      6.044     12.805
         TR   0.919E+26              496.815      4.968     32.853
         TOT                         904.2164    11.0125    45.6586   191.0355

   temp. (K)  partition function   enthalpy   heat capacity  entropy
                                   cal/mol     cal/K/mol   cal/K/mol   J/K/mol
  80.00  VIB   1.16                   57.475      2.128      1.024
         ROT   45.0                  238.471      2.981     10.545
         INT   52.0                  295.947      5.109     11.569
         TR   0.657E+26              397.452      4.968     31.745
         TOT                         693.3985    10.0769    43.3143   181.2268

   temp. (K)  partition function   enthalpy   heat capacity  entropy
                                   cal/mol     cal/K/mol   cal/K/mol   J/K/mol
  60.00  VIB   1.07                   23.557      1.286      0.544
         ROT   29.2                  178.853      2.981      9.687
         INT   31.2                  202.410      4.267     10.231
         TR   0.427E+26              298.089      4.968     30.317
         TOT                         500.4992     9.2353    40.5479   169.6525

   temp. (K)  partition function   enthalpy   heat capacity  entropy
                                   cal/mol     cal/K/mol   cal/K/mol   J/K/mol
  40.00  VIB   1.02                    5.212      0.561      0.179
         ROT   15.9                  119.236      2.981      8.479
         INT   16.2                  124.448      3.542      8.657
         TR   0.232E+26              198.726      4.968     28.303
         TOT                         323.1739     8.5104    36.9605   154.6429

   temp. (K)  partition function   enthalpy   heat capacity  entropy
                                   cal/mol     cal/K/mol   cal/K/mol   J/K/mol
  20.00  VIB   1.00                    0.078      0.032      0.003
         ROT   5.62                   59.618      2.981      6.412
         INT   5.62                   59.695      3.013      6.415
         TR   0.822E+25               99.363      4.968     24.861
         TOT                         159.0585     7.9815    31.2765   130.8607

   temp. (K)  partition function   enthalpy   heat capacity  entropy
                                   cal/mol     cal/K/mol   cal/K/mol   J/K/mol
  10.00  VIB   1.00                    0.000      0.000     -0.026
         ROT   1.99                   29.809      2.981      4.346
         INT   1.99                   29.809      2.981      4.320
         TR   0.290E+25               49.681      4.968     21.419
         TOT                          79.4904     7.9491    25.7397   107.6950

       T/K    H(0)-H(T)+PV         H(T)/Eh          T*S/Eh         G(T)/Eh
   ------------------------------------------------------------------------
    298.15    0.602758E-02    0.241643E-01    0.289389E-01   -0.477465E-02
    120.00    0.180695E-02    0.199436E-01    0.913045E-02    0.108132E-01
    100.00    0.144096E-02    0.195776E-01    0.727616E-02    0.123015E-01
     80.00    0.110500E-02    0.192417E-01    0.552205E-02    0.137196E-01
     60.00    0.797596E-03    0.189343E-01    0.387703E-02    0.150573E-01
     40.00    0.515010E-03    0.186517E-01    0.235601E-02    0.162957E-01
     20.00    0.253476E-03    0.183902E-01    0.996844E-03    0.173933E-01
     10.00    0.126676E-03    0.182634E-01    0.410189E-03    0.178532E-01 (used)
   ------------------------------------------------------------------------

         :::::::::::::::::::::::::::::::::::::::::::::::::::::
         ::                  THERMODYNAMIC                  ::
         :::::::::::::::::::::::::::::::::::::::::::::::::::::
         :: total free energy         -11.113248888585 Eh   ::
         ::.................................................::
         :: total energy              -11.131102063396 Eh   ::
         :: zero point energy           0.018136687473 Eh   ::
         :: G(RRHO) w/o ZPVE           -0.000283512661 Eh   ::
         :: G(RRHO) contrib.            0.017853174811 Eh   ::
         :::::::::::::::::::::::::::::::::::::::::::::::::::::

optimized geometry written to: xtbopt.xyz


           -------------------------------------------------
          | TOTAL ENERGY              -11.131102063396 Eh   |
          | TOTAL ENTHALPY            -11.112838699879 Eh   |
          | TOTAL FREE ENERGY         -11.113248888585 Eh   |
          | GRADIENT NORM               0.000272690821 Eh/α |
          | HOMO-LUMO GAP               4.159049479452 eV   |
           -------------------------------------------------

------------------------------------------------------------------------
 * finished run on 2020/05/12 at 11:44:03.263     
------------------------------------------------------------------------
 total:
 * wall-time:     0 d,  0 h,  0 min,  0.241 sec
 *  cpu-time:     0 d,  0 h,  0 min,  0.240 sec
 * ratio c/w:     0.997 speedup
 SCF:
 * wall-time:     0 d,  0 h,  0 min,  0.005 sec
 *  cpu-time:     0 d,  0 h,  0 min,  0.005 sec
 * ratio c/w:     0.997 speedup
 ANC optimizer:
 * wall-time:     0 d,  0 h,  0 min,  0.127 sec
 *  cpu-time:     0 d,  0 h,  0 min,  0.127 sec
 * ratio c/w:     0.998 speedup
 numerical hessian:
 * wall-time:     0 d,  0 h,  0 min,  0.091 sec
 *  cpu-time:     0 d,  0 h,  0 min,  0.091 sec
 * ratio c/w:     0.997 speedup

