5
 energy: -10.856312419202 gnorm: 0.294227849693 xtb: 6.2.2 (9d81278992624c895f80dd42a50cac0aa55982e2)
N        -1.82082900000000   -0.44593700000000    0.16753000000000
C        -0.56480000000000   -0.16740700000000   -0.50363100000000
C         0.54743700000000   -0.12717100000000    0.52430200000000
C        -0.02479400000000    1.16245900000000   -0.02348200000000
C         1.86298500000000   -0.42194500000000   -0.16472000000000
5
 energy: -10.942386593637 gnorm: 0.228226630725 xtb: 6.2.2 (9d81278992624c895f80dd42a50cac0aa55982e2)
N        -1.79903107172711   -0.47517624002966    0.13529661946956
C        -0.64531178875013   -0.12391143632742   -0.42801219660719
C         0.61501864012310   -0.11736243356407    0.42046516941250
C        -0.01559275100182    1.14960097172379   -0.02911591089560
C         1.84491597135595   -0.43315186180264   -0.09863468137926
5
 energy: -10.976224775115 gnorm: 0.482830620419 xtb: 6.2.2 (9d81278992624c895f80dd42a50cac0aa55982e2)
N        -1.73591475698694   -0.52296799069037    0.01850709969354
C        -0.77417481439594   -0.05717437426660   -0.23909586604620
C         0.77179543497415   -0.07265620048286    0.28956370412702
C        -0.03066834889433    1.13222945978226   -0.04328447121820
C         1.76896148530307   -0.47943189434243   -0.02569146655616
5
 energy: -11.035084024679 gnorm: 0.133062681907 xtb: 6.2.2 (9d81278992624c895f80dd42a50cac0aa55982e2)
N        -1.80497276002231   -0.64062015077077    0.00973325437164
C        -0.80257809108243    0.03078109515676   -0.20619082867512
C         0.77775888917069    0.01566251583351    0.26040110207455
C        -0.03526195459773    1.19302965097192   -0.04293599820840
C         1.86505291653179   -0.59885411119142   -0.02100852956267
5
 energy: -11.053183998062 gnorm: 0.124042940506 xtb: 6.2.2 (9d81278992624c895f80dd42a50cac0aa55982e2)
N        -1.80758279908064   -0.67771856637318   -0.02479035910357
C        -0.88745190043561    0.07932718995045   -0.14302572358853
C         0.83729458793177    0.07019318297249    0.17633941331087
C        -0.05080048025338    1.18014529729297   -0.03356508961274
C         1.90853959183786   -0.65194810384273    0.02504075899397
5
 energy: -11.079678868035 gnorm: 0.098622699541 xtb: 6.2.2 (9d81278992624c895f80dd42a50cac0aa55982e2)
N        -1.87749243030845   -0.67089434419696   -0.08942517135734
C        -1.03334017078699    0.10589630311246   -0.03182606114455
C         0.91898647130852    0.10858723921771    0.08216994644394
C         0.01853401808112    1.05373741451719   -0.03371215544104
C         1.97331111170580   -0.59732761265040    0.07279244149899
5
 energy: -11.093898996675 gnorm: 0.065546266752 xtb: 6.2.2 (9d81278992624c895f80dd42a50cac0aa55982e2)
N        -1.95392758367431   -0.65261604010373   -0.16206706287699
C        -1.10976920993324    0.13558730711913    0.07059370849940
C         1.05683395486440    0.16132027943526    0.01862627875123
C        -0.01975760912415    0.96308364810180   -0.02711074546899
C         2.02661944786730   -0.60737619455246    0.09995682109535
5
 energy: -11.071375971463 gnorm: 0.361061931143 xtb: 6.2.2 (9d81278992624c895f80dd42a50cac0aa55982e2)
N        -2.00974418022988   -0.52216956263846   -0.16363492313622
C        -1.17855210282679    0.12273385039581    0.07016092969207
C         1.15296662544817    0.14628572970343   -0.05331409513633
C        -0.11104895230199    0.80571205269198   -0.00414328930716
C         2.14637760991048   -0.55256307015277    0.15093037788764
5
 energy: -11.101947071728 gnorm: 0.084216586680 xtb: 6.2.2 (9d81278992624c895f80dd42a50cac0aa55982e2)
N        -2.05940009959557   -0.57181263917152   -0.17853009054359
C        -1.19473941403450    0.13808385697313    0.10331698226046
C         1.14586756813301    0.14482648474834   -0.03857880844787
C        -0.02810307396974    0.81690553906409   -0.02576727161840
C         2.13637401946680   -0.52800424161405    0.13955818834940
5
 energy: -11.105134637768 gnorm: 0.040958060652 xtb: 6.2.2 (9d81278992624c895f80dd42a50cac0aa55982e2)
N        -2.05717683322822   -0.58071553045866   -0.14689325172164
C        -1.18492992540948    0.15113778971416    0.06549864781267
C         1.11318059043727    0.13682009440414   -0.03682140734302
C        -0.01663949500366    0.81725834945931   -0.02764915135682
C         2.14556466320409   -0.52450170311896    0.14586416260880
5
 energy: -11.110199454584 gnorm: 0.047437675390 xtb: 6.2.2 (9d81278992624c895f80dd42a50cac0aa55982e2)
N        -2.13155585622248   -0.52947648069099   -0.13198150411164
C        -1.18250399490697    0.13697699982133    0.04259815848275
C         1.12790906216540    0.11757337846044   -0.02584553807528
C        -0.01767032191620    0.74618746977259   -0.02671788089505
C         2.20382011088025   -0.47126236736337    0.14194576459922
5
 energy: -11.115758030990 gnorm: 0.121615865302 xtb: 6.2.2 (9d81278992624c895f80dd42a50cac0aa55982e2)
N        -2.32827786094561   -0.41365437299871   -0.10390568682918
C        -1.25736707305696    0.12224681428466    0.01115664154070
C         1.19982146715816    0.06704507515960   -0.05464848060110
C        -0.00641639683575    0.56124744378647   -0.02690378068340
C         2.39223886368016   -0.33688596023202    0.17430030657297
5
 energy: -11.121449904740 gnorm: 0.058773063226 xtb: 6.2.2 (9d81278992624c895f80dd42a50cac0aa55982e2)
N        -2.33748541198003   -0.39305177546851   -0.11394634509395
C        -1.26667444833422    0.11919344285962   -0.00239830726521
C         1.23062979955940    0.08461009605539   -0.02382553660380
C        -0.00729572535822    0.50979494505361   -0.02258718996772
C         2.38082478611306   -0.32054770850011    0.16275637893068
5
 energy: -11.124955327876 gnorm: 0.052830351976 xtb: 6.2.2 (9d81278992624c895f80dd42a50cac0aa55982e2)
N        -2.39500979523665   -0.33031653087418   -0.09740233573816
C        -1.28816922229398    0.10528099971778   -0.04723791901565
C         1.25421483069301    0.06502884408628    0.00789889592603
C        -0.00310411374238    0.41387756113401   -0.02196958027761
C         2.43206730058001   -0.25387187406390    0.15870993910538
5
 energy: -11.127857123406 gnorm: 0.022131933312 xtb: 6.2.2 (9d81278992624c895f80dd42a50cac0aa55982e2)
N        -2.42588572761600   -0.26150678339986   -0.08646738779852
C        -1.29785743553260    0.08110673615324   -0.08698429536688
C         1.26279862605052    0.04317043305570    0.05012865568135
C        -0.01297738568364    0.33378429132643   -0.02032044134359
C         2.47392092278172   -0.19655567713552    0.14364246882764
5
 energy: -11.128762983630 gnorm: 0.018309052672 xtb: 6.2.2 (9d81278992624c895f80dd42a50cac0aa55982e2)
N        -2.44986638244084   -0.21335147664973   -0.08816320632386
C        -1.30703989184559    0.06070552863349   -0.09960512998350
C         1.26913938623104    0.03165615167325    0.07688730981263
C        -0.01187827100446    0.27309580476147   -0.01925207679264
C         2.49964415905984   -0.15210700841848    0.13013210328737
5
 energy: -11.129471614699 gnorm: 0.020698507466 xtb: 6.2.2 (9d81278992624c895f80dd42a50cac0aa55982e2)
N        -2.45624088827671   -0.17037881008837   -0.10585008591885
C        -1.30599749658409    0.03275384537458   -0.09184295278665
C         1.27456771677264    0.03457119260310    0.10363471933106
C        -0.01603619879826    0.22557537506687   -0.01372123699144
C         2.50370586688642   -0.12252260295617    0.10777855636588
5
 energy: -11.128794271059 gnorm: 0.057171892010 xtb: 6.2.2 (9d81278992624c895f80dd42a50cac0aa55982e2)
N        -2.49858136355088   -0.09902288786850   -0.12760709404865
C        -1.30763010706886   -0.01097601507223   -0.07781878872747
C         1.28911431855173    0.03024274214804    0.13060847136486
C        -0.01516312566173    0.14226451425623   -0.00631363050316
C         2.53225927772973   -0.06250935346355    0.08113004191442
5
 energy: -11.130047116355 gnorm: 0.025490937421 xtb: 6.2.2 (9d81278992624c895f80dd42a50cac0aa55982e2)
N        -2.47402369189027   -0.12256642896113   -0.12450053851619
C        -1.31345982517668    0.00582414665479   -0.06992908670917
C         1.27621576364186    0.02955940269528    0.11238195096706
C        -0.00349036326986    0.16039305109507   -0.01135495262663
C         2.51475711669495   -0.07321117148401    0.09340162688494
5
 energy: -11.130230286931 gnorm: 0.017758927168 xtb: 6.2.2 (9d81278992624c895f80dd42a50cac0aa55982e2)
N        -2.47584882549844   -0.12442977849512   -0.12939059824615
C        -1.31428715095246    0.00918506050458   -0.06030208448179
C         1.28595890046531    0.03683455586624    0.10060799644318
C        -0.01158493961116    0.15999771701617   -0.00876618656575
C         2.51576101559674   -0.08158855489187    0.09784987285050
5
 energy: -11.130403474901 gnorm: 0.009435967858 xtb: 6.2.2 (9d81278992624c895f80dd42a50cac0aa55982e2)
N        -2.47322188447121   -0.11232639021720   -0.13132033434201
C        -1.30583941458427   -0.00023620785065   -0.05553323027757
C         1.27834030396800    0.03177196846699    0.10181125836494
C        -0.01214555524335    0.15257789774683   -0.00809509223858
C         2.51286555033084   -0.07178826814597    0.09313639849322
5
 energy: -11.130053742172 gnorm: 0.020091616585 xtb: 6.2.2 (9d81278992624c895f80dd42a50cac0aa55982e2)
N        -2.47792498795782   -0.08464781372879   -0.12535503511432
C        -1.31158607853796    0.01452935917416   -0.04698622589992
C         1.27574200245950   -0.04763994938762    0.08749710341076
C        -0.00940010548863    0.11436677719511   -0.02643969974113
C         2.52316816952492    0.00339062674715    0.11128285734462
5
 energy: -11.130476789047 gnorm: 0.010672262470 xtb: 6.2.2 (9d81278992624c895f80dd42a50cac0aa55982e2)
N        -2.48062834769373   -0.06070353581940   -0.11195481782115
C        -1.30584587573404   -0.03031465671990   -0.07717848884127
C         1.27839059255171   -0.00750263027958    0.09469595514408
C        -0.01008960326332    0.11502711807417   -0.01069824160650
C         2.51817223413939   -0.01650729525529    0.10513459312485
5
 energy: -11.130415634191 gnorm: 0.012630079064 xtb: 6.2.2 (9d81278992624c895f80dd42a50cac0aa55982e2)
N        -2.46849963976529   -0.11819055165438   -0.13936614980356
C        -1.30926135284780    0.01395822359176   -0.04086318357113
C         1.27899235147002    0.02953919374004    0.09349601857806
C        -0.01044573428456    0.14377740645937   -0.01004377557094
C         2.50921337542763   -0.06908527213679    0.09677609036757
5
 energy: -11.130692414820 gnorm: 0.006192767910 xtb: 6.2.2 (9d81278992624c895f80dd42a50cac0aa55982e2)
N        -2.47572547181168   -0.08643954580355   -0.12652255721400
C        -1.30927307429847   -0.00570143778011   -0.05612687427359
C         1.27907211867712    0.00557288094182    0.09033317377342
C        -0.01049818411827    0.12241496484257   -0.01142070544337
C         2.51642361155130   -0.03584786220073    0.10373596315755
5
 energy: -11.130751715924 gnorm: 0.005496189304 xtb: 6.2.2 (9d81278992624c895f80dd42a50cac0aa55982e2)
N        -2.48028966980512   -0.07148733599425   -0.12257624340913
C        -1.30988737974624   -0.01261823419836   -0.05995070630700
C         1.27990828689235   -0.00422402682420    0.08614051514068
C        -0.00996644387937    0.10800225272932   -0.01180401254611
C         2.52023420653839   -0.01967365571251    0.10818944712157
5
 energy: -11.130819264456 gnorm: 0.005959063616 xtb: 6.2.2 (9d81278992624c895f80dd42a50cac0aa55982e2)
N        -2.48188579966452   -0.06305185093162   -0.12224868476699
C        -1.31066654456336   -0.01565494485558   -0.05979034393655
C         1.28096541412802   -0.00418944902989    0.08117867144462
C        -0.01001373713496    0.09587784277908   -0.01046071133890
C         2.52159966723483   -0.01298259796199    0.11132006859781
5
 energy: -11.131003655309 gnorm: 0.004205165972 xtb: 6.2.2 (9d81278992624c895f80dd42a50cac0aa55982e2)
N        -2.48552368140517   -0.03681855898572   -0.12530611394780
C        -1.31409774501583   -0.02095606367817   -0.05397454407082
C         1.28572320750774    0.00583933333487    0.05970077437943
C        -0.01073095286408    0.04709681919369   -0.00328836616818
C         2.52462817177735    0.00483747013534    0.12286724980738
5
 energy: -11.131029262188 gnorm: 0.002908943672 xtb: 6.2.2 (9d81278992624c895f80dd42a50cac0aa55982e2)
N        -2.48420838452153   -0.03381950016489   -0.12568032262569
C        -1.31359502870278   -0.01953158239160   -0.05324689522129
C         1.28542284910736    0.00768585224073    0.05662099971645
C        -0.01063704621563    0.03812837052771   -0.00199280820188
C         2.52301661033259    0.00753585978805    0.12429802633241
5
 energy: -11.131053931757 gnorm: 0.002778252589 xtb: 6.2.2 (9d81278992624c895f80dd42a50cac0aa55982e2)
N        -2.48358813062904   -0.02812311225877   -0.12460882030390
C        -1.31305961570649   -0.01799692247970   -0.05467219037542
C         1.28528155542040    0.00826167485956    0.05380009352642
C        -0.01047339124416    0.02426339334943   -0.00048023272346
C         2.52183858215929    0.01359396652948    0.12596014987636
5
 energy: -11.131078517004 gnorm: 0.002660071502 xtb: 6.2.2 (9d81278992624c895f80dd42a50cac0aa55982e2)
N        -2.48354992304960   -0.02272330423217   -0.12238923712165
C        -1.31272725783298   -0.01548334797181   -0.05833012798188
C         1.28531820922899    0.00887814338925    0.05311701280331
C        -0.01038538761451    0.00947956399242    0.00102922888457
C         2.52134335926812    0.01984794482231    0.12657212341566
5
 energy: -11.131095338577 gnorm: 0.001826445477 xtb: 6.2.2 (9d81278992624c895f80dd42a50cac0aa55982e2)
N        -2.48403647671762   -0.02030749321986   -0.11992345416579
C        -1.31270292221604   -0.01243844171796   -0.06288125981987
C         1.28538682951134    0.00969030231614    0.05543787809057
C        -0.01038743220734   -0.00030407103323    0.00186615946651
C         2.52173900162967    0.02335870365492    0.12549967642859
5
 energy: -11.131101076541 gnorm: 0.000572094872 xtb: 6.2.2 (9d81278992624c895f80dd42a50cac0aa55982e2)
N        -2.48473047949754   -0.02284820084644   -0.11872987771309
C        -1.31300751243720   -0.01000194201433   -0.06576381414772
C         1.28538972197164    0.01097584862195    0.06009240227236
C        -0.01047817795283    0.00040507385047    0.00150970639167
C         2.52282544791595    0.02146822038835    0.12289058319679
5
 energy: -11.131102062385 gnorm: 0.000271655572 xtb: 6.2.2 (9d81278992624c895f80dd42a50cac0aa55982e2)
N        -2.48496494393427   -0.02422030568387   -0.11958598635388
C        -1.31329653291181   -0.01059430339394   -0.06443889801648
C         1.28552494790604    0.01127421978081    0.06043371442040
C        -0.01045278736309    0.00386114409359    0.00099232721682
C         2.52318831630313    0.01967824520341    0.12259784273316
