      -----------------------------------------------------------      
     |                   =====================                   |     
     |                           x T B                           |     
     |                   =====================                   |     
     |                         S. Grimme                         |     
     |          Mulliken Center for Theoretical Chemistry        |     
     |                    University of Bonn                     |     
      -----------------------------------------------------------      

   * xtb version 6.2.2 (9d81278992624c895f80dd42a50cac0aa55982e2) compiled by '@Darwin' on 04/03/2020

   xtb is free software: you can redistribute it and/or modify it under
   the terms of the GNU Lesser General Public License as published by
   the Free Software Foundation, either version 3 of the License, or
   (at your option) any later version.
   
   xtb is distributed in the hope that it will be useful,
   but WITHOUT ANY WARRANTY; without even the implied warranty of
   MERCHANTABILITY or FITNESS FOR A PARTICULAR PURPOSE.  See the
   GNU Lesser General Public License for more details.
   
   Cite this work as:
   * S. Grimme, C. Bannwarth, P. Shushkov, J. Chem. Theory Comput., 2017,
     13, 1989-2009. DOI: 10.1021/acs.jctc.7b00118
   * C. Bannwarth, S. Ehlert and S. Grimme., J. Chem. Theory Comput., 2019,
     15, 1652-1671. DOI: 10.1021/acs.jctc.8b01176
   * P. Pracht, E. Caldeweyher, S. Ehlert, S. Grimme, ChemRxiv, 2019, preprint.
     DOI: 10.26434/chemrxiv.8326202.v1
   
   for DFT-D4:
   * E. Caldeweyher, C. Bannwarth and S. Grimme, J. Chem. Phys., 2017,
     147, 034112. DOI: 10.1063/1.4993215
   * E. Caldeweyher, S. Ehlert, A. Hansen, H. Neugebauer, S. Spicher,
     C. Bannwarth and S. Grimme, J. Chem. Phys., 2019, 150, 154122.
     DOI: 10.1063/1.5090222
   
   for sTDA-xTB:
   * S. Grimme and C. Bannwarth, J. Chem. Phys., 2016, 145, 054103.
     DOI: 10.1063/1.4959605
   
   in the mass-spec context:
   * V. Asgeirsson, C. Bauer and S. Grimme, Chem. Sci., 2017, 8, 4879.
     DOI: 10.1039/c7sc00601b
   
   for metadynamics refer to:
   * S. Grimme, J. Chem. Theory Comput., 2019, 155, 2847-2862
     DOI: 10.1021/acs.jctc.9b00143
   
   with help from (in alphabetical order)
   C. Bannwarth, F. Bohle, G. Brandenburg, E. Caldeweyher, M. Checinski,
   S. Dohm, S. Ehlert, S. Ehrlich, F. März, H. Neugebauer, J. Pisarek,
   P. Pracht, P. Shushkov, and S. Spicher.
   
 * started run on 2020/05/12 at 11:43:54.223     

           -------------------------------------------------
          |                Calculation Setup                |
           -------------------------------------------------

          program call               : xtb --input C1N1_0_S_1.input C1N1_0_S_1.xyz --ohess --molden --namespace C1N1_0_S_1 output.out
          calculation namespace      : C1N1_0_S_1
          coordinate file            : C1N1_0_S_1.xyz
          number of atoms            :                     2
          number of electrons        :                     9
          charge                     :                     0
          spin                       :                   0.5
          first test random number   :      0.70260632361726

   ID    Z sym.   atoms
    1    6 C      1
    2    7 N      2

           -------------------------------------------------
          |                 G F N 2 - x T B                 |
           -------------------------------------------------

        Reference                      10.1021/acs.jctc.8b01176
      * Hamiltonian:
        H0-scaling (s, p, d)           1.850000    2.230000    2.230000
        zeta-weighting                 0.500000
      * Dispersion:
        s8                             2.700000
        a1                             0.520000
        a2                             5.000000
        s9                             5.000000
      * Repulsion:
        kExp                           1.500000    1.000000
        rExp                           1.000000
      * Coulomb:
        alpha                          2.000000
        third order                    shell-resolved
        anisotropic                    true
        a3                             3.000000
        a5                             4.000000
        cn-shift                       1.200000
        cn-exp                         4.000000
        max-rad                        5.000000


          ...................................................
          :                      SETUP                      :
          :.................................................:
          :  # basis functions                   8          :
          :  # atomic orbitals                   8          :
          :  # shells                            4          :
          :  # electrons                         9          :
          :  max. iterations                   250          :
          :  Hamiltonian                  GFN2-xTB          :
          :  restarted?                      false          :
          :  GBSA solvation                  false          :
          :  PC potential                    false          :
          :  electronic temp.          300.0000000     K    :
          :  accuracy                    1.0000000          :
          :  -> integral cutoff          0.2500000E+02      :
          :  -> integral neglect         0.1000000E-07      :
          :  -> SCF convergence          0.1000000E-05 Eh   :
          :  -> wf. convergence          0.1000000E-03 e    :
          :  Broyden damping             0.4000000          :
          ...................................................

 iter      E             dE          RMSdq      gap      omega  full diag
   1     -4.6118139 -0.461181E+01  0.130E+01    3.35       0.0  T
   2     -3.7573483  0.854466E+00  0.191E+01    3.35       1.0  T
   3     -4.7808348 -0.102349E+01  0.631E+00    3.15       1.0  T
   4     -4.5104226  0.270412E+00  0.959E+00    2.90       1.0  T
   5     -4.6475860 -0.137163E+00  0.694E+00    3.19       1.0  T
   6     -4.5363782  0.111208E+00  0.945E+00    3.17       1.0  T
   7     -4.7821292 -0.245751E+00  0.783E-01    3.16       1.0  T
   8     -4.7835121 -0.138289E-02  0.411E-01    3.17       1.0  T
   9     -4.7837545 -0.242350E-03  0.279E-01    3.17       1.0  T
  10     -4.7839496 -0.195093E-03  0.764E-02    3.18       1.0  T
  11     -4.7839660 -0.164773E-04  0.137E-02    3.18       5.2  T
  12     -4.7839666 -0.515056E-06  0.316E-03    3.18      22.4  T
  13     -4.7839666 -0.283400E-07  0.709E-04    3.18      99.8  T
  14     -4.7839666 -0.112251E-08  0.216E-04    3.18     328.0  T

   *** convergence criteria satisfied after 14 iterations ***

         #    Occupation            Energy/Eh            Energy/eV
      -------------------------------------------------------------
         1        2.0000           -0.6686249             -18.1942
         2        2.0000           -0.5778036             -15.7228
         3        2.0000           -0.5013642             -13.6428
         4        2.0000           -0.5013642             -13.6428
         5        1.0001           -0.4829265             -13.1411 (HOMO)
         6                         -0.3662404              -9.9659 (LUMO)
         7                         -0.3662404              -9.9659
         8                          0.0185633               0.5051
      -------------------------------------------------------------
                  HL-Gap            0.1166861 Eh            3.1752 eV
             Fermi-level           -0.4581997 Eh          -12.4682 eV

 SCC (total)                   0 d,  0 h,  0 min,  0.001 sec
 SCC setup                      ...        0 min,  0.000 sec ( 11.891%)
 Dispersion                     ...        0 min,  0.000 sec (  0.612%)
 integral evaluation            ...        0 min,  0.000 sec ( 21.048%)
 zeroth order Hamiltonian       ...        0 min,  0.000 sec (  0.693%)
 iterations                     ...        0 min,  0.001 sec ( 47.828%)
 molecular gradient             ...        0 min,  0.000 sec ( 14.012%)
 printout                       ...        0 min,  0.000 sec (  3.243%)

         :::::::::::::::::::::::::::::::::::::::::::::::::::::
         ::                     SUMMARY                     ::
         :::::::::::::::::::::::::::::::::::::::::::::::::::::
         :: total energy              -4.772732232742 Eh    ::
         :: gradient norm              0.401002037743 Eh/a0 ::
         :: HOMO-LUMO gap              3.175189143534 eV    ::
         ::.................................................::
         :: SCC energy                -4.783966580866 Eh    ::
         :: -> isotropic ES           -0.008196233775 Eh    ::
         :: -> anisotropic ES          0.001413819053 Eh    ::
         :: -> anisotropic XC          0.008236828089 Eh    ::
         :: -> dispersion             -0.000303894652 Eh    ::
         :: repulsion energy           0.011234348045 Eh    ::
         :: add. restraining           0.000000000000 Eh    ::
         :::::::::::::::::::::::::::::::::::::::::::::::::::::

      ----------------------------------------------------------- 
     |                   =====================                   |
     |                        A N C O P T                        |
     |                   =====================                   |
     |               Approximate Normal Coordinate               |
     |                Rational Function Optimizer                |
      ----------------------------------------------------------- 

          ...................................................
          :                      SETUP                      :
          :.................................................:
          :   optimization level            normal          :
          :   max. optcycles                   200          :
          :   ANC micro-cycles                  20          :
          :   degrees of freedom                 1          :
          :.................................................:
          :   RF solver                   davidson          :
          :   write xtbopt.log                true          :
          :   linear (good luck)              true          :
          :   energy convergence         0.5000000E-05 Eh   :
          :   grad. convergence          0.1000000E-02 Eh/α :
          :   maximium RF displ.         1.0000000          :
          :   Hlow (freq-cutoff)         0.1000000E-01      :
          :   Hmax (freq-cutoff)         5.0000000          :
          :   S6 in model hess.         20.0000000          :
          ...................................................

generating ANC from model Hessian ...
Using Lindh-Hessian (1995)
 Shifting diagonal of input Hessian by    9.9855282858993082E-003
 Lowest  eigenvalues of input Hessian
   -0.000000    0.000000    0.000000    0.010000    0.010000    0.988116
 Highest eigenvalues
   -0.000000    0.000000    0.000000    0.010000    0.010000    0.988116


........................................................................
.............................. CYCLE    1 ..............................
........................................................................
   1     -4.7839666 -0.478397E+01  0.114E-05    3.18       0.0  T
   2     -4.7839666  0.530509E-11  0.444E-05    3.18    1593.8  T
   3     -4.7839666 -0.559819E-11  0.723E-06    3.18    9786.9  T
     SCC iter.                  ...        0 min,  0.000 sec
     gradient                   ...        0 min,  0.000 sec
 * total energy  :    -4.7727322 Eh     change       -0.2254836E-09 Eh
   gradient norm :     0.4010030 Eh/α   predicted     0.0000000E+00 (-100.00%)
   displ. norm   :     0.3547529 α      lambda       -0.1422570E+00
   maximum displ.:     0.3547529 α      in ANC's #1, #1, #1, ...

........................................................................
.............................. CYCLE    2 ..............................
........................................................................
   1     -4.9586326 -0.495863E+01  0.406E+00    4.65       0.0  T
   2     -4.9403730  0.182596E-01  0.394E+00    4.55       1.0  T
   3     -4.9628165 -0.224435E-01  0.219E+00    4.47       1.0  T
   4     -4.9672962 -0.447977E-02  0.261E-01    4.34       1.0  T
   5     -4.9673161 -0.198971E-04  0.116E-01    4.34       1.0  T
   6     -4.9673506 -0.344960E-04  0.177E-02    4.34       4.0  T
   7     -4.9673506  0.725499E-07  0.628E-03    4.34      11.3  T
   8     -4.9673506 -0.825755E-07  0.665E-04    4.34     106.4  T
   9     -4.9673506 -0.764393E-09  0.152E-04    4.34     464.2  T
     SCC iter.                  ...        0 min,  0.000 sec
     gradient                   ...        0 min,  0.000 sec
 * total energy  :    -4.8905387 Eh     change       -0.1178065E+00 Eh
   gradient norm :     0.1538554 Eh/α   predicted    -0.8008000E-01 ( -32.02%)
   displ. norm   :     0.2110094 α      lambda       -0.3246495E-01
   maximum displ.:     0.2110094 α      in ANC's #1, #1, #1, ...

........................................................................
.............................. CYCLE    3 ..............................
........................................................................
   1     -5.0829235 -0.508292E+01  0.251E+00    5.80       0.0  T
   2     -5.0829028  0.206956E-04  0.173E+00    5.74       1.0  T
   3     -5.0840307 -0.112793E-02  0.114E+00    5.70       1.0  T
   4     -5.0850378 -0.100708E-02  0.106E-01    5.64       1.0  T
   5     -5.0850367  0.110378E-05  0.404E-02    5.64       1.8  T
   6     -5.0850402 -0.350194E-05  0.495E-03    5.64      14.3  T
   7     -5.0850402 -0.550865E-08  0.612E-04    5.64     115.5  T
   8     -5.0850402 -0.105155E-09  0.203E-05    5.64    3491.7  T
     SCC iter.                  ...        0 min,  0.000 sec
     gradient                   ...        0 min,  0.000 sec
 * total energy  :    -4.8587081 Eh     change        0.3183065E-01 Eh
   gradient norm :     0.5857874 Eh/α   predicted    -0.1695522E-01 (-153.27%)
   displ. norm   :     0.1626932 α      lambda       -0.9530365E-01
   maximum displ.:     0.1626932 α      in ANC's #1, #1, #1, ...

........................................................................
.............................. CYCLE    4 ..............................
........................................................................
   1     -4.9923090 -0.499231E+01  0.193E+00    4.47       0.0  T
   2     -4.9894377  0.287130E-02  0.176E+00    4.50       1.0  T
   3     -4.9931970 -0.375938E-02  0.102E+00    4.53       1.0  T
   4     -4.9943048 -0.110780E-02  0.107E-01    4.58       1.0  T
   5     -4.9943069 -0.207141E-05  0.397E-02    4.58       1.8  T
   6     -4.9943100 -0.310803E-05  0.593E-03    4.58      11.9  T
   7     -4.9943100 -0.357733E-08  0.676E-04    4.58     104.6  T
   8     -4.9943100 -0.965739E-09  0.331E-05    4.58    2137.6  T
     SCC iter.                  ...        0 min,  0.000 sec
     gradient                   ...        0 min,  0.000 sec
 * total energy  :    -4.8955279 Eh     change       -0.3681986E-01 Eh
   gradient norm :     0.0479574 Eh/α   predicted    -0.4891312E-01 (  32.84%)
   displ. norm   :     0.0123096 α      lambda       -0.5903360E-03
   maximum displ.:     0.0123096 α      in ANC's #1, #1, #1, ...

........................................................................
.............................. CYCLE    5 ..............................
........................................................................
   1     -5.0011944 -0.500119E+01  0.145E-01    4.66       0.0  T
   2     -5.0011819  0.125151E-04  0.124E-01    4.66       1.0  T
   3     -5.0011974 -0.155842E-04  0.776E-02    4.65       1.0  T
   4     -5.0012040 -0.653491E-05  0.712E-03    4.65       9.9  T
   5     -5.0012040 -0.222431E-08  0.883E-04    4.65      80.0  T
   6     -5.0012040  0.270592E-10  0.574E-04    4.65     123.1  T
     SCC iter.                  ...        0 min,  0.000 sec
     gradient                   ...        0 min,  0.000 sec
 * total energy  :    -4.8959250 Eh     change       -0.3970946E-03 Eh
   gradient norm :     0.0162122 Eh/α   predicted    -0.2952140E-03 ( -25.66%)
   displ. norm   :     0.0062863 α      lambda       -0.1019148E-03
   maximum displ.:     0.0062863 α      in ANC's #1, #1, #1, ...

........................................................................
.............................. CYCLE    6 ..............................
........................................................................
   1     -5.0047244 -0.500472E+01  0.740E-02    4.69       0.0  T
   2     -5.0047213  0.306386E-05  0.629E-02    4.69       1.1  T
   3     -5.0047252 -0.389546E-05  0.394E-02    4.69       1.8  T
   4     -5.0047269 -0.166408E-05  0.362E-03    4.68      19.6  T
   5     -5.0047269 -0.605863E-09  0.454E-04    4.68     155.8  T
   6     -5.0047269 -0.352793E-10  0.279E-04    4.68     253.7  T
     SCC iter.                  ...        0 min,  0.000 sec
     gradient                   ...        0 min,  0.000 sec
 * total energy  :    -4.8959737 Eh     change       -0.4867358E-04 Eh
   gradient norm :     0.0008208 Eh/α   predicted    -0.5095923E-04 (   4.70%)
   displ. norm   :     0.0004544 α      lambda       -0.2492361E-06
   maximum displ.:     0.0004544 α      in ANC's #1, #1, #1, ...

........................................................................
.............................. CYCLE    7 ..............................
........................................................................
   1     -5.0044722 -0.500447E+01  0.536E-03    4.68       0.0  T
   2     -5.0044722  0.163851E-07  0.458E-03    4.68      15.5  T
   3     -5.0044722 -0.210181E-07  0.285E-03    4.68      24.8  T
   4     -5.0044722 -0.864171E-08  0.262E-04    4.68     269.7  T
   5     -5.0044722 -0.343992E-11  0.350E-05    4.68    2022.3  T
     SCC iter.                  ...        0 min,  0.000 sec
     gradient                   ...        0 min,  0.000 sec
 * total energy  :    -4.8959738 Eh     change       -0.8881532E-07 Eh
   gradient norm :     0.0004294 Eh/α   predicted    -0.1243182E-06 (  39.97%)
   displ. norm   :     0.0001561 α      lambda       -0.4408937E-07
   maximum displ.:     0.0001561 α      in ANC's #1, #1, #1, ...

   *** GEOMETRY OPTIMIZATION CONVERGED AFTER 7 ITERATIONS ***

------------------------------------------------------------------------
 total energy gain   :        -0.1232416 Eh      -77.3352 kcal/mol
 total RMSD          :         0.2978409 a0        0.1576 Å
 total power (kW/mol):       -46.2243800 (step)********** (real)
------------------------------------------------------------------------

 ANCopt (total)                0 d,  0 h,  0 min,  0.005 sec
 optimizer setup                ...        0 min,  0.000 sec (  1.127%)
 model hessian                  ...        0 min,  0.000 sec (  0.326%)
 ANC generation                 ...        0 min,  0.000 sec (  0.502%)
 coordinate transformation      ...        0 min,  0.000 sec (  0.160%)
 single point calculation       ...        0 min,  0.004 sec ( 88.526%)
 optimization log               ...        0 min,  0.000 sec (  3.206%)
 hessian update                 ...        0 min,  0.000 sec (  0.269%)
 rational function              ...        0 min,  0.000 sec (  2.182%)

================
 final structure:
================
2
 xtb: 6.2.2 (9d81278992624c895f80dd42a50cac0aa55982e2)
C         0.56792539089160    0.00000000000000    0.00000000000000
N        -0.56792539089160    0.00000000000000    0.00000000000000

 Bond Distances (Angstroems)
 ---------------------------
C1-N2=1.1359         N2-C1=1.1359         
 N  C  Rav=1.1359 sigma=0.0000  Rmin=1.1359  Rmax=1.1359     1

 selected bond angles (degree)
 --------------------


 selected dihedral angles (degree)
 ---------------------------------

           -------------------------------------------------
          |                Final Singlepoint                |
           -------------------------------------------------

          ...................................................
          :                      SETUP                      :
          :.................................................:
          :  # basis functions                   8          :
          :  # atomic orbitals                   8          :
          :  # shells                            4          :
          :  # electrons                         9          :
          :  max. iterations                   250          :
          :  Hamiltonian                  GFN2-xTB          :
          :  restarted?                      false          :
          :  GBSA solvation                  false          :
          :  PC potential                    false          :
          :  electronic temp.          300.0000000     K    :
          :  accuracy                    1.0000000          :
          :  -> integral cutoff          0.2500000E+02      :
          :  -> integral neglect         0.1000000E-07      :
          :  -> SCF convergence          0.1000000E-05 Eh   :
          :  -> wf. convergence          0.1000000E-03 e    :
          :  Broyden damping             0.4000000          :
          ...................................................

 iter      E             dE          RMSdq      gap      omega  full diag
   1     -5.0044722 -0.500447E+01  0.348E-06    4.68       0.0  T
   2     -5.0044722  0.976996E-14  0.319E-06    4.68   22183.1  T
   3     -5.0044722 -0.124345E-13  0.162E-06    4.68   43540.7  T

   *** convergence criteria satisfied after 3 iterations ***

         #    Occupation            Energy/Eh            Energy/eV
      -------------------------------------------------------------
         1        2.0000           -0.6934134             -18.8687
         2        2.0000           -0.5554509             -15.1146
         3        2.0000           -0.5341729             -14.5356
         4        2.0000           -0.5341729             -14.5356
         5        1.0000           -0.4287095             -11.6658 (HOMO)
         6                         -0.2566772              -6.9845 (LUMO)
         7                         -0.2566772              -6.9845
         8                          0.8933706              24.3099
      -------------------------------------------------------------
                  HL-Gap            0.1720323 Eh            4.6812 eV
             Fermi-level           -0.4120673 Eh          -11.2129 eV

 SCC (total)                   0 d,  0 h,  0 min,  0.001 sec
 SCC setup                      ...        0 min,  0.000 sec (  9.468%)
 Dispersion                     ...        0 min,  0.000 sec (  0.541%)
 integral evaluation            ...        0 min,  0.000 sec ( 40.307%)
 zeroth order Hamiltonian       ...        0 min,  0.000 sec (  0.496%)
 iterations                     ...        0 min,  0.000 sec ( 17.042%)
 molecular gradient             ...        0 min,  0.000 sec ( 26.285%)
 printout                       ...        0 min,  0.000 sec (  5.095%)

         :::::::::::::::::::::::::::::::::::::::::::::::::::::
         ::                     SUMMARY                     ::
         :::::::::::::::::::::::::::::::::::::::::::::::::::::
         :: total energy              -4.895973788310 Eh    ::
         :: gradient norm              0.000429371517 Eh/a0 ::
         :: HOMO-LUMO gap              4.681235891070 eV    ::
         ::.................................................::
         :: SCC energy                -5.004472210475 Eh    ::
         :: -> isotropic ES           -0.001260891172 Eh    ::
         :: -> anisotropic ES          0.001392818801 Eh    ::
         :: -> anisotropic XC          0.011745236468 Eh    ::
         :: -> dispersion             -0.000304267166 Eh    ::
         :: repulsion energy           0.108498422168 Eh    ::
         :: add. restraining           0.000000000000 Eh    ::
         :::::::::::::::::::::::::::::::::::::::::::::::::::::

           ------------------------------------------------- 
          |                Numerical Hessian                |
           ------------------------------------------------- 
step length          :   0.00500
SCC accuracy         :   0.30000
Hessian scale factor :   1.00000
frozen atoms in %    :   0.00000    0
RMS gradient         :   0.00043

writing file <hessian>.

 vibrational frequencies (cm-1)
eigval :        0.00     0.00     0.00     0.00     0.00  2369.80
           -------------------------------------------------
Molecule has the following symmetry elements: (Cinf) (sigma) 
It seems to be the Cinfv point group
          |                Property Printout                |
           -------------------------------------------------

    * Orbital Energies and Occupations

         #    Occupation            Energy/Eh            Energy/eV
      -------------------------------------------------------------
         1        2.0000           -0.6934134             -18.8687
         2        2.0000           -0.5554509             -15.1146
         3        2.0000           -0.5341729             -14.5356
         4        2.0000           -0.5341729             -14.5356
         5        1.0000           -0.4287095             -11.6658 (HOMO)
         6                         -0.2566772              -6.9845 (LUMO)
         7                         -0.2566772              -6.9845
         8                          0.8933706              24.3099
      -------------------------------------------------------------
                  HL-Gap            0.1720323 Eh            4.6812 eV
             Fermi-level           -0.4120673 Eh          -11.2129 eV

     #   Z        covCN         q      C6AA      α(0)
     1   6 C      0.910     0.039    34.291     9.800
     2   7 N      0.910    -0.039    22.003     6.784

 Mol. C6AA /au·bohr⁶  :        110.757221
 Mol. C8AA /au·bohr⁸  :       2852.867409
 Mol. α(0) /au        :         16.584249


Wiberg/Mayer (AO) data.
largest (>0.10) Wiberg bond orders for each atom
          total WBO             WBO to atom ...
     1  C   2.989        N    2 2.989
     2  N   2.989        C    1 2.989

MOs/occ written to file <molden.input>


molecular dipole:
                 x           y           z       tot (Debye)
 q only:        0.084      -0.000      -0.000
   full:        0.236      -0.000      -0.000       0.599
molecular quadrupole (traceless):
                xx          xy          yy          xz          yz          zz
 q only:        0.000      -0.000      -0.000      -0.000       0.000      -0.000
  q+dip:        1.128      -0.000      -0.564      -0.000       0.000      -0.564
   full:       -0.270       0.000       0.135       0.000       0.000       0.135

           -------------------------------------------------
          |                Geometry Summary                 |
           -------------------------------------------------

      molecular mass/u    :       26.0174391
   center of mass at/Å    :       -0.0435693       0.0000002       0.0000002
  moments of inertia/u·Å² :       -0.3187244E-15   0.8342257E+01   0.8342257E+01
rotational constants/cm⁻¹ :       -0.5289094E+17   0.2020752E+01   0.2020752E+01

 * 1 selected distances

     #   Z        #   Z                                     value/Å
     0 *** --     0 *** --                                0.0000000 (max)

 * 0 distinct bonds (by element types)

   Z      Z             #   av. dist./Å        max./Å        min./Å

           -------------------------------------------------
          |               Frequency Printout                |
           -------------------------------------------------
 vibrational frequencies (cm-1)
eigval :        0.00     0.00     0.00     0.00     0.00  2369.80
 reduced masses (amu)
   1: 13.09   2: 13.09   3: 13.09   4: 12.93   5: 12.93   6: 12.93
 IR intensities (amu)
   1:  0.00   2:  0.01   3:  0.01   4:  0.16   5:  0.16   6:  0.12
 Raman intensities (amu)
   1:  0.00   2:  0.00   3:  0.00   4:  0.00   5:  0.00   6:  0.00
 output can be read by thermo (or use thermo option).
 writing <g98.out> molden fake output.
 recommended (thermochemical) frequency scaling factor: 1.0
           -------------------------------------------------
          |             Thermodynamic Functions             |
           -------------------------------------------------

cin symmetry found (for desy threshold:  0.10E+00) used in thermo

          ...................................................
          :                      SETUP                      :
          :.................................................:
          :  # frequencies                           1      :
          :  # imaginary freq.                       0      :
          :  linear?                              true      :
          :  only rotor calc.                    false      :
          :  symmetry                              cin      :
          :  rotational number                       1      :
          :  scaling factor                  1.0000000      :
          :  rotor cutoff                   50.0000000 cm⁻¹ :
          :  imag. cutoff                  -20.0000000 cm⁻¹ :
          :.................................................:

    mode    ω/cm⁻¹     T·S(HO)/kcal·mol⁻¹    T·S(FR)/kcal·mol⁻¹   T·S(vib)
   ------------------------------------------------------------------------
   ------------------------------------------------------------------------

   temp. (K)  partition function   enthalpy   heat capacity  entropy
                                   cal/mol     cal/K/mol   cal/K/mol   J/K/mol
 298.15  VIB   1.00                    0.073      0.003      0.000
         ROT   103.                  592.502      1.987     11.189
         INT   103.                  592.575      1.990     11.189
         TR   0.128E+27             1481.254      4.968     35.688
         TOT                        2073.8287     6.9582    46.8777   196.1362

   temp. (K)  partition function   enthalpy   heat capacity  entropy
                                   cal/mol     cal/K/mol   cal/K/mol   J/K/mol
 120.00  VIB   1.00                    0.000      0.000     -0.000
         ROT   41.3                  238.471      1.987      9.380
         INT   41.3                  238.471      1.987      9.380
         TR   0.328E+26              596.178      4.968     31.169
         TOT                         834.6492     6.9554    40.5495   169.6589

   temp. (K)  partition function   enthalpy   heat capacity  entropy
                                   cal/mol     cal/K/mol   cal/K/mol   J/K/mol
 100.00  VIB   1.00                    0.000      0.000     -0.000
         ROT   34.4                  198.726      1.987      9.018
         INT   34.4                  198.726      1.987      9.018
         TR   0.249E+26              496.815      4.968     30.264
         TOT                         695.5410     6.9554    39.2818   164.3550

   temp. (K)  partition function   enthalpy   heat capacity  entropy
                                   cal/mol     cal/K/mol   cal/K/mol   J/K/mol
  80.00  VIB   1.00                    0.000      0.000     -0.000
         ROT   27.5                  158.981      1.987      8.575
         INT   27.5                  158.981      1.987      8.575
         TR   0.178E+26              397.452      4.968     29.156
         TOT                         556.4328     6.9554    37.7303   157.8634

   temp. (K)  partition function   enthalpy   heat capacity  entropy
                                   cal/mol     cal/K/mol   cal/K/mol   J/K/mol
  60.00  VIB   1.00                    0.000      0.000     -0.000
         ROT   20.6                  119.236      1.987      8.003
         INT   20.6                  119.236      1.987      8.003
         TR   0.116E+26              298.089      4.968     27.727
         TOT                         417.3246     6.9554    35.7300   149.4944

   temp. (K)  partition function   enthalpy   heat capacity  entropy
                                   cal/mol     cal/K/mol   cal/K/mol   J/K/mol
  40.00  VIB   1.00                    0.000      0.000     -0.000
         ROT   13.8                   79.490      1.987      7.197
         INT   13.8                   79.490      1.987      7.197
         TR   0.631E+25              198.726      4.968     25.714
         TOT                         278.2164     6.9554    32.9108   137.6989

   temp. (K)  partition function   enthalpy   heat capacity  entropy
                                   cal/mol     cal/K/mol   cal/K/mol   J/K/mol
  20.00  VIB   1.00                    0.000      0.000     -0.000
         ROT   6.88                   39.745      1.987      5.820
         INT   6.88                   39.745      1.987      5.820
         TR   0.223E+25               99.363      4.968     22.272
         TOT                         139.1082     6.9554    28.0914   117.5343

   temp. (K)  partition function   enthalpy   heat capacity  entropy
                                   cal/mol     cal/K/mol   cal/K/mol   J/K/mol
  10.00  VIB   1.00                    0.000      0.000     -0.000
         ROT   3.44                   19.873      1.987      4.442
         INT   3.44                   19.873      1.987      4.442
         TR   0.789E+24               49.681      4.968     18.830
         TOT                          69.5541     6.9554    23.2719    97.3698

       T/K    H(0)-H(T)+PV         H(T)/Eh          T*S/Eh         G(T)/Eh
   ------------------------------------------------------------------------
    298.15    0.330486E-02    0.870366E-02    0.222731E-01   -0.135694E-01
    120.00    0.133010E-02    0.672891E-02    0.775436E-02   -0.102546E-02
    100.00    0.110842E-02    0.650722E-02    0.625995E-02    0.247272E-03
     80.00    0.886732E-03    0.628554E-02    0.481016E-02    0.147538E-02
     60.00    0.665049E-03    0.606386E-02    0.341636E-02    0.264749E-02
     40.00    0.443366E-03    0.584217E-02    0.209787E-02    0.374430E-02
     20.00    0.221683E-03    0.562049E-02    0.895329E-03    0.472516E-02
     10.00    0.110842E-03    0.550965E-02    0.370862E-03    0.513879E-02 (used)
   ------------------------------------------------------------------------

         :::::::::::::::::::::::::::::::::::::::::::::::::::::
         ::                  THERMODYNAMIC                  ::
         :::::::::::::::::::::::::::::::::::::::::::::::::::::
         :: total free energy          -4.890835001847 Eh   ::
         ::.................................................::
         :: total energy               -4.895973788310 Eh   ::
         :: zero point energy           0.005398806951 Eh   ::
         :: G(RRHO) w/o ZPVE           -0.000260020488 Eh   ::
         :: G(RRHO) contrib.            0.005138786463 Eh   ::
         :::::::::::::::::::::::::::::::::::::::::::::::::::::

optimized geometry written to: xtbopt.xyz


           -------------------------------------------------
          | TOTAL ENERGY               -4.895973788310 Eh   |
          | TOTAL ENTHALPY             -4.890464139845 Eh   |
          | TOTAL FREE ENERGY          -4.890835001847 Eh   |
          | GRADIENT NORM               0.000429362776 Eh/α |
          | HOMO-LUMO GAP               4.681235929171 eV   |
           -------------------------------------------------

------------------------------------------------------------------------
 * finished run on 2020/05/12 at 11:43:54.254     
------------------------------------------------------------------------
 total:
 * wall-time:     0 d,  0 h,  0 min,  0.031 sec
 *  cpu-time:     0 d,  0 h,  0 min,  0.030 sec
 * ratio c/w:     0.998 speedup
 SCF:
 * wall-time:     0 d,  0 h,  0 min,  0.001 sec
 *  cpu-time:     0 d,  0 h,  0 min,  0.001 sec
 * ratio c/w:     0.999 speedup
 ANC optimizer:
 * wall-time:     0 d,  0 h,  0 min,  0.006 sec
 *  cpu-time:     0 d,  0 h,  0 min,  0.006 sec
 * ratio c/w:     0.999 speedup
 numerical hessian:
 * wall-time:     0 d,  0 h,  0 min,  0.008 sec
 *  cpu-time:     0 d,  0 h,  0 min,  0.008 sec
 * ratio c/w:     0.996 speedup

