 Entering Gaussian System, Link 0=g16
 Initial command:
 /applis/site/cecic/gaussian16/B.01/nehalem/g16/l1.exe "/bettik/tinaccil/g16/12339079_C5H5_2X/Gau-23763.inp" -scrdir="/bettik/tinaccil/g16/12339079_C5H5_2X/"
 Entering Link 1 = /applis/site/cecic/gaussian16/B.01/nehalem/g16/l1.exe PID=     23767.
  
 Copyright (c) 1988-2017, Gaussian, Inc.  All Rights Reserved.
  
 This is part of the Gaussian(R) 16 program.  It is based on
 the Gaussian(R) 09 system (copyright 2009, Gaussian, Inc.),
 the Gaussian(R) 03 system (copyright 2003, Gaussian, Inc.),
 the Gaussian(R) 98 system (copyright 1998, Gaussian, Inc.),
 the Gaussian(R) 94 system (copyright 1995, Gaussian, Inc.),
 the Gaussian 92(TM) system (copyright 1992, Gaussian, Inc.),
 the Gaussian 90(TM) system (copyright 1990, Gaussian, Inc.),
 the Gaussian 88(TM) system (copyright 1988, Gaussian, Inc.),
 the Gaussian 86(TM) system (copyright 1986, Carnegie Mellon
 University), and the Gaussian 82(TM) system (copyright 1983,
 Carnegie Mellon University). Gaussian is a federally registered
 trademark of Gaussian, Inc.
  
 This software contains proprietary and confidential information,
 including trade secrets, belonging to Gaussian, Inc.
  
 This software is provided under written license and may be
 used, copied, transmitted, or stored only in accord with that
 written license.
  
 The following legend is applicable only to US Government
 contracts under FAR:
  
                    RESTRICTED RIGHTS LEGEND
  
 Use, reproduction and disclosure by the US Government is
 subject to restrictions as set forth in subparagraphs (a)
 and (c) of the Commercial Computer Software - Restricted
 Rights clause in FAR 52.227-19.
  
 Gaussian, Inc.
 340 Quinnipiac St., Bldg. 40, Wallingford CT 06492
  
  
 ---------------------------------------------------------------
 Warning -- This program may not be used in any manner that
 competes with the business of Gaussian, Inc. or will provide
 assistance to any competitor of Gaussian, Inc.  The licensee
 of this program is prohibited from giving any competitor of
 Gaussian, Inc. access to this program.  By using this program,
 the user acknowledges that Gaussian, Inc. is engaged in the
 business of creating and licensing software in the field of
 computational chemistry and represents and warrants to the
 licensee that it is not a competitor of Gaussian, Inc. and that
 it will not use this program in any manner prohibited above.
 ---------------------------------------------------------------
  

 Cite this work as:
 Gaussian 16, Revision B.01,
 M. J. Frisch, G. W. Trucks, H. B. Schlegel, G. E. Scuseria, 
 M. A. Robb, J. R. Cheeseman, G. Scalmani, V. Barone, 
 G. A. Petersson, H. Nakatsuji, X. Li, M. Caricato, A. V. Marenich, 
 J. Bloino, B. G. Janesko, R. Gomperts, B. Mennucci, H. P. Hratchian, 
 J. V. Ortiz, A. F. Izmaylov, J. L. Sonnenberg, D. Williams-Young, 
 F. Ding, F. Lipparini, F. Egidi, J. Goings, B. Peng, A. Petrone, 
 T. Henderson, D. Ranasinghe, V. G. Zakrzewski, J. Gao, N. Rega, 
 G. Zheng, W. Liang, M. Hada, M. Ehara, K. Toyota, R. Fukuda, 
 J. Hasegawa, M. Ishida, T. Nakajima, Y. Honda, O. Kitao, H. Nakai, 
 T. Vreven, K. Throssell, J. A. Montgomery, Jr., J. E. Peralta, 
 F. Ogliaro, M. J. Bearpark, J. J. Heyd, E. N. Brothers, K. N. Kudin, 
 V. N. Staroverov, T. A. Keith, R. Kobayashi, J. Normand, 
 K. Raghavachari, A. P. Rendell, J. C. Burant, S. S. Iyengar, 
 J. Tomasi, M. Cossi, J. M. Millam, M. Klene, C. Adamo, R. Cammi, 
 J. W. Ochterski, R. L. Martin, K. Morokuma, O. Farkas, 
 J. B. Foresman, and D. J. Fox, Gaussian, Inc., Wallingford CT, 2016.
 
 ******************************************
 Gaussian 16:  ES64L-G16RevB.01 20-Dec-2017
                28-Sep-2020 
 ******************************************
 %nosave
 %nproc=8
 Will use up to    8 processors via shared memory.
 %mem=2gb
 %chk=input
 --------------------------------------------------------
 #P M062X/cc-pvtz nosymm opt(noeigentest) optcyc=120 freq
 --------------------------------------------------------
 1/6=120,11=1,18=20,19=15,26=3,38=1/1,3;
 2/9=110,12=2,15=1,17=6,18=5,40=1/2;
 3/5=16,6=1,11=2,25=1,30=1,71=1,74=-55/1,2,3;
 4//1;
 5/5=2,38=5/2;
 6/7=2,8=2,9=2,10=2,28=1/1;
 7/30=1/1,2,3,16;
 1/6=120,11=1,18=20,19=15,26=3/3(2);
 2/9=110,15=1/2;
 99//99;
 2/9=110,15=1/2;
 3/5=16,6=1,11=2,25=1,30=1,71=1,74=-55/1,2,3;
 4/5=5,16=3,69=1/1;
 5/5=2,38=5/2;
 7/30=1/1,2,3,16;
 1/6=120,11=1,18=20,19=15,26=3/3(-5);
 2/9=110,15=1/2;
 6/7=2,8=2,9=2,10=2,19=2,28=1/1;
 99/9=1/99;
 Leave Link    1 at Mon Sep 28 11:11:55 2020, MaxMem=   268435456 cpu:               1.0 elap:               0.2
 (Enter /applis/site/cecic/gaussian16/B.01/nehalem/g16/l101.exe)
 -----
 Title
 -----
 Symbolic Z-matrix:
 Charge =  0 Multiplicity = 2
 C
 C                    1    B1
 C                    2    B2       1    A2
 C                    3    B3       2    A3       1    D3       0
 H                    3    B4       2    A4       1    D4       0
 C                    2    B5       1    A5       3    D5       0
 H                    2    B6       1    A6       3    D6       0
 H                    1    B7       2    A7       3    D7       0
 H                    1    B8       2    A8       3    D8       0
 H                    2    B9       1    A9       3    D9       0
       Variables:
  B1                    1.33761                  
  B2                    1.5031                   
  A2                  120.42991                  
  B3                    1.48279                  
  A3                  118.20533                  
  D3                  231.63879                  
  B4                    1.11326                  
  A4                  118.95469                  
  D4                   53.51971                  
  B5                    3.65778                  
  A5                  137.1054                   
  D5                  311.65934                  
  B6                    4.66836                  
  A6                  137.44404                  
  D6                  304.71114                  
  B7                    1.08816                  
  A7                  120.9821                   
  D7                  181.24378                  
  B8                    1.08563                  
  A8                  120.74133                  
  D8                    0.10402                  
  B9                    1.0874                   
  A9                  119.12656                  
  D9                  177.9749                   
 
 ITRead=  0  0  0  0  0  0  0  0  0  0
 MicOpt= -1 -1 -1 -1 -1 -1 -1 -1 -1 -1
 NAtoms=     10 NQM=       10 NQMF=       0 NMMI=      0 NMMIF=      0
                NMic=       0 NMicF=      0.
                    Isotopes and Nuclear Properties:
 (Nuclear quadrupole moments (NQMom) in fm**2, nuclear magnetic moments (NMagM)
  in nuclear magnetons)

  Atom         1           2           3           4           5           6           7           8           9          10
 IAtWgt=          12          12          12          12           1          12           1           1           1           1
 AtmWgt=  12.0000000  12.0000000  12.0000000  12.0000000   1.0078250  12.0000000   1.0078250   1.0078250   1.0078250   1.0078250
 NucSpn=           0           0           0           0           1           0           1           1           1           1
 AtZEff=  -0.0000000  -0.0000000  -0.0000000  -0.0000000  -0.0000000  -0.0000000  -0.0000000  -0.0000000  -0.0000000  -0.0000000
 NQMom=    0.0000000   0.0000000   0.0000000   0.0000000   0.0000000   0.0000000   0.0000000   0.0000000   0.0000000   0.0000000
 NMagM=    0.0000000   0.0000000   0.0000000   0.0000000   2.7928460   0.0000000   2.7928460   2.7928460   2.7928460   2.7928460
 AtZNuc=   6.0000000   6.0000000   6.0000000   6.0000000   1.0000000   6.0000000   1.0000000   1.0000000   1.0000000   1.0000000
 Leave Link  101 at Mon Sep 28 11:11:55 2020, MaxMem=   268435456 cpu:               2.3 elap:               0.4
 (Enter /applis/site/cecic/gaussian16/B.01/nehalem/g16/l103.exe)

 GradGradGradGradGradGradGradGradGradGradGradGradGradGradGradGradGradGrad
 Berny optimization.
 Initialization pass.
                           ----------------------------
                           !    Initial Parameters    !
                           ! (Angstroms and Degrees)  !
 --------------------------                            --------------------------
 ! Name  Definition              Value          Derivative Info.                !
 --------------------------------------------------------------------------------
 ! R1    R(1,2)                  1.3376         estimate D2E/DX2                !
 ! R2    R(1,8)                  1.0882         estimate D2E/DX2                !
 ! R3    R(1,9)                  1.0856         estimate D2E/DX2                !
 ! R4    R(2,3)                  1.5031         estimate D2E/DX2                !
 ! R5    R(2,10)                 1.0874         estimate D2E/DX2                !
 ! R6    R(3,4)                  1.4828         estimate D2E/DX2                !
 ! R7    R(3,5)                  1.1133         estimate D2E/DX2                !
 ! R8    R(4,6)                  1.2133         estimate D2E/DX2                !
 ! R9    R(6,7)                  1.0665         estimate D2E/DX2                !
 ! A1    A(2,1,8)              120.9821         estimate D2E/DX2                !
 ! A2    A(2,1,9)              120.7413         estimate D2E/DX2                !
 ! A3    A(8,1,9)              118.2671         estimate D2E/DX2                !
 ! A4    A(1,2,3)              120.4299         estimate D2E/DX2                !
 ! A5    A(1,2,10)             119.1266         estimate D2E/DX2                !
 ! A6    A(3,2,10)             120.4123         estimate D2E/DX2                !
 ! A7    A(2,3,4)              118.2053         estimate D2E/DX2                !
 ! A8    A(2,3,5)              118.9547         estimate D2E/DX2                !
 ! A9    A(4,3,5)              122.8117         estimate D2E/DX2                !
 ! A10   L(3,4,6,10,-1)        180.3398         estimate D2E/DX2                !
 ! A11   L(4,6,7,10,-1)        179.8709         estimate D2E/DX2                !
 ! A12   L(3,4,6,10,-2)        180.1771         estimate D2E/DX2                !
 ! A13   L(4,6,7,10,-2)        179.9119         estimate D2E/DX2                !
 ! D1    D(8,1,2,3)           -178.7562         estimate D2E/DX2                !
 ! D2    D(8,1,2,10)            -0.7813         estimate D2E/DX2                !
 ! D3    D(9,1,2,3)              0.104          estimate D2E/DX2                !
 ! D4    D(9,1,2,10)           178.0789         estimate D2E/DX2                !
 ! D5    D(1,2,3,4)           -128.3612         estimate D2E/DX2                !
 ! D6    D(1,2,3,5)             53.5197         estimate D2E/DX2                !
 ! D7    D(10,2,3,4)            53.6901         estimate D2E/DX2                !
 ! D8    D(10,2,3,5)          -124.429          estimate D2E/DX2                !
 --------------------------------------------------------------------------------
 Trust Radius=3.00D-01 FncErr=1.00D-07 GrdErr=1.00D-06 EigMax=2.50D+02 EigMin=1.00D-04
 Number of steps in this run=    100 maximum allowed number of steps=    100.
 GradGradGradGradGradGradGradGradGradGradGradGradGradGradGradGradGradGrad

 Leave Link  103 at Mon Sep 28 11:11:55 2020, MaxMem=   268435456 cpu:               0.4 elap:               0.1
 (Enter /applis/site/cecic/gaussian16/B.01/nehalem/g16/l202.exe)
                          Input orientation:                          
 ---------------------------------------------------------------------
 Center     Atomic      Atomic             Coordinates (Angstroms)
 Number     Number       Type             X           Y           Z
 ---------------------------------------------------------------------
      1          6           0        0.000000    0.000000    0.000000
      2          6           0        0.000000    0.000000    1.337610
      3          6           0        1.296047    0.000000    2.098906
      4          6           0        1.489579   -1.024619    3.153120
      5          1           0        2.054086    0.783241    1.872503
      6          6           0        1.654888   -1.860061    4.017325
      7          1           0        1.797867   -2.595372    4.776404
      8          1           0       -0.932690    0.020250   -0.560152
      9          1           0        0.933080   -0.001694   -0.554934
     10          1           0       -0.949301    0.033567    1.866891
 ---------------------------------------------------------------------
                    Distance matrix (angstroms):
                    1          2          3          4          5
     1  C    0.000000
     2  C    1.337610   0.000000
     3  C    2.466809   1.503100   0.000000
     4  C    3.634674   2.562180   1.482790   0.000000
     5  H    2.887733   2.262487   1.113260   2.286265   0.000000
     6  C    4.726244   3.657780   2.696095   1.213318   3.427341
     7  H    5.725584   4.668360   3.762549   2.279771   4.462434
     8  H    1.088160   2.114669   3.469621   4.554946   3.926933
     9  H    1.085630   2.110062   2.678547   3.886609   2.786615
    10  H    2.094656   1.087400   2.257553   2.953350   3.095542
                    6          7          8          9         10
     6  C    0.000000
     7  H    1.066455   0.000000
     8  H    5.584302   6.540356   0.000000
     9  H    4.987995   5.991509   1.865907   0.000000
    10  H    3.871949   4.787851   2.427137   3.067546   0.000000
 Symmetry turned off by external request.
 Stoichiometry    C5H5(2)
 Framework group  C1[X(C5H5)]
 Deg. of freedom    24
 Full point group                 C1      NOp   1
 Rotational constants (GHZ):          23.8649745           2.4421171           2.3578915
 Leave Link  202 at Mon Sep 28 11:11:55 2020, MaxMem=   268435456 cpu:               0.3 elap:               0.1
 (Enter /applis/site/cecic/gaussian16/B.01/nehalem/g16/l301.exe)
 Standard basis: CC-pVTZ (5D, 7F)
 Ernie: Thresh=  0.10000D-02 Tol=  0.10000D-05 Strict=F.
 Ernie:  15 primitive shells out of 170 were deleted.
   220 basis functions,   345 primitive gaussians,   250 cartesian basis functions
    18 alpha electrons       17 beta electrons
       nuclear repulsion energy       129.2608645568 Hartrees.
 IExCor= 4336 DFT=T Ex+Corr=M062X ExCW=0 ScaHFX=  0.540000
 ScaDFX=  1.000000  1.000000  1.000000  1.000000 ScalE2=  1.000000  1.000000
 IRadAn=      5 IRanWt=     -1 IRanGd=            0 ICorTp=0 IEmpDi=  4
 NAtoms=   10 NActive=   10 NUniq=   10 SFac= 1.00D+00 NAtFMM=   60 NAOKFM=F Big=F
 Integral buffers will be    131072 words long.
 Raffenetti 2 integral format.
 Two-electron integral symmetry is turned off.
 Leave Link  301 at Mon Sep 28 11:11:55 2020, MaxMem=   268435456 cpu:               0.6 elap:               0.1
 (Enter /applis/site/cecic/gaussian16/B.01/nehalem/g16/l302.exe)
 NPDir=0 NMtPBC=     1 NCelOv=     1 NCel=       1 NClECP=     1 NCelD=      1
         NCelK=      1 NCelE2=     1 NClLst=     1 CellRange=     0.0.
 One-electron integrals computed using PRISM.
 NBasis=   220 RedAO= T EigKep=  5.08D-05  NBF=   220
 NBsUse=   220 1.00D-06 EigRej= -1.00D+00 NBFU=   220
 Precomputing XC quadrature grid using
 IXCGrd= 4 IRadAn=           5 IRanWt=          -1 IRanGd=           0 AccXCQ= 0.00D+00.
 Generated NRdTot=       0 NPtTot=           0 NUsed=           0 NTot=          32
 NSgBfM=   250   250   250   250   250 MxSgAt=    10 MxSgA2=    10.
 Leave Link  302 at Mon Sep 28 11:11:56 2020, MaxMem=   268435456 cpu:               2.2 elap:               0.4
 (Enter /applis/site/cecic/gaussian16/B.01/nehalem/g16/l303.exe)
 DipDrv:  MaxL=1.
 Leave Link  303 at Mon Sep 28 11:11:56 2020, MaxMem=   268435456 cpu:               0.8 elap:               0.2
 (Enter /applis/site/cecic/gaussian16/B.01/nehalem/g16/l401.exe)
 ExpMin= 1.03D-01 ExpMax= 8.24D+03 ExpMxC= 2.81D+02 IAcc=3 IRadAn=         5 AccDes= 0.00D+00
 Harris functional with IExCor= 1009 and IRadAn=       5 diagonalized for initial guess.
 HarFok:  IExCor= 1009 AccDes= 0.00D+00 IRadAn=         5 IDoV= 1 UseB2=F ITyADJ=14
 ICtDFT=  3500011 ScaDFX=  1.000000  1.000000  1.000000  1.000000
 FoFCou: FMM=F IPFlag=           0 FMFlag=      100000 FMFlg1=           0
         NFxFlg=           0 DoJE=T BraDBF=F KetDBF=T FulRan=T
         wScrn=  0.000000 ICntrl=       500 IOpCl=  0 I1Cent=   200000004 NGrid=           0
         NMat0=    1 NMatS0=      1 NMatT0=    0 NMatD0=    1 NMtDS0=    0 NMtDT0=    0
 Symmetry not used in FoFCou.
 Harris En= -193.307302288185    
 JPrj=0 DoOrth=F DoCkMO=F.
 Initial guess <Sx>= 0.0000 <Sy>= 0.0000 <Sz>= 0.5000 <S**2>= 0.7500 S= 0.5000
 Leave Link  401 at Mon Sep 28 11:11:57 2020, MaxMem=   268435456 cpu:               6.3 elap:               0.9
 (Enter /applis/site/cecic/gaussian16/B.01/nehalem/g16/l502.exe)
 Two-electron integral symmetry not used.
 UHF open shell SCF:
 Using DIIS extrapolation, IDIIS=  1040.
 NGot=   268435456 LenX=   268306750 LenY=   268243809
 Requested convergence on RMS density matrix=1.00D-08 within 128 cycles.
 Requested convergence on MAX density matrix=1.00D-06.
 Requested convergence on             energy=1.00D-06.
 No special actions if energy rises.
 Fock matrices will be formed incrementally for  20 cycles.
 Integral accuracy reduced to 1.0D-05 until final iterations.

 Cycle   1  Pass 0  IDiag  1:
 FoFJK:  IHMeth= 1 ICntrl=       0 DoSepK=F KAlg= 0 I1Cent=           0 FoldK=F
 IRaf= 960000000 NMat=       1 IRICut=       1 DoRegI=T DoRafI=F ISym2E= 0 IDoP0=0 IntGTp=1.
 FoFCou: FMM=F IPFlag=           0 FMFlag=      100000 FMFlg1=           0
         NFxFlg=           0 DoJE=F BraDBF=F KetDBF=F FulRan=T
         wScrn=  0.000000 ICntrl=         0 IOpCl=  1 I1Cent=           0 NGrid=           0
         NMat0=    1 NMatS0=      1 NMatT0=    0 NMatD0=    1 NMtDS0=    0 NMtDT0=    0
 Symmetry not used in FoFCou.
 E= -193.206645802656    
 DIIS: error= 3.00D-02 at cycle   1 NSaved=   1.
 NSaved= 1 IEnMin= 1 EnMin= -193.206645802656     IErMin= 1 ErrMin= 3.00D-02
 ErrMax= 3.00D-02  0.00D+00 EMaxC= 1.00D-01 BMatC= 6.91D-01 BMatP= 6.91D-01
 IDIUse=3 WtCom= 7.00D-01 WtEn= 3.00D-01
 Coeff-Com:  0.100D+01
 Coeff-En:   0.100D+01
 Coeff:      0.100D+01
 Gap=     0.320 Goal=   None    Shift=    0.000
 Gap=     0.225 Goal=   None    Shift=    0.000
 GapD=    0.225 DampG=1.000 DampE=0.500 DampFc=0.5000 IDamp=-1.
 Damping current iteration by 5.00D-01
 RMSDP=2.18D-03 MaxDP=4.50D-02              OVMax= 1.58D-01

 Cycle   2  Pass 0  IDiag  1:
 RMSU=  1.09D-03    CP:  9.91D-01
 E= -193.291171012123     Delta-E=       -0.084525209467 Rises=F Damp=T
 DIIS: error= 6.63D-03 at cycle   2 NSaved=   2.
 NSaved= 2 IEnMin= 2 EnMin= -193.291171012123     IErMin= 2 ErrMin= 6.63D-03
 ErrMax= 6.63D-03  0.00D+00 EMaxC= 1.00D-01 BMatC= 4.94D-02 BMatP= 6.91D-01
 IDIUse=3 WtCom= 9.34D-01 WtEn= 6.63D-02
 Coeff-Com: -0.190D+00 0.119D+01
 Coeff-En:   0.000D+00 0.100D+01
 Coeff:     -0.177D+00 0.118D+01
 Gap=     0.314 Goal=   None    Shift=    0.000
 Gap=     0.273 Goal=   None    Shift=    0.000
 RMSDP=6.36D-04 MaxDP=1.80D-02 DE=-8.45D-02 OVMax= 1.02D-01

 Cycle   3  Pass 0  IDiag  1:
 RMSU=  5.84D-04    CP:  9.93D-01  1.23D+00
 E= -193.363563911093     Delta-E=       -0.072392898970 Rises=F Damp=F
 DIIS: error= 4.06D-03 at cycle   3 NSaved=   3.
 NSaved= 3 IEnMin= 3 EnMin= -193.363563911093     IErMin= 3 ErrMin= 4.06D-03
 ErrMax= 4.06D-03  0.00D+00 EMaxC= 1.00D-01 BMatC= 1.22D-02 BMatP= 4.94D-02
 IDIUse=3 WtCom= 9.59D-01 WtEn= 4.06D-02
 Coeff-Com: -0.101D+00 0.419D+00 0.682D+00
 Coeff-En:   0.000D+00 0.000D+00 0.100D+01
 Coeff:     -0.971D-01 0.402D+00 0.695D+00
 Gap=     0.284 Goal=   None    Shift=    0.000
 Gap=     0.263 Goal=   None    Shift=    0.000
 RMSDP=2.62D-04 MaxDP=8.19D-03 DE=-7.24D-02 OVMax= 3.88D-02

 Cycle   4  Pass 0  IDiag  1:
 RMSU=  2.58D-04    CP:  9.93D-01  1.27D+00  9.51D-01
 E= -193.365597658335     Delta-E=       -0.002033747242 Rises=F Damp=F
 DIIS: error= 3.83D-03 at cycle   4 NSaved=   4.
 NSaved= 4 IEnMin= 4 EnMin= -193.365597658335     IErMin= 4 ErrMin= 3.83D-03
 ErrMax= 3.83D-03  0.00D+00 EMaxC= 1.00D-01 BMatC= 5.54D-03 BMatP= 1.22D-02
 IDIUse=3 WtCom= 9.62D-01 WtEn= 3.83D-02
 Coeff-Com: -0.293D-01 0.779D-01 0.415D+00 0.536D+00
 Coeff-En:   0.000D+00 0.000D+00 0.283D+00 0.717D+00
 Coeff:     -0.281D-01 0.749D-01 0.410D+00 0.543D+00
 Gap=     0.284 Goal=   None    Shift=    0.000
 Gap=     0.267 Goal=   None    Shift=    0.000
 RMSDP=1.03D-04 MaxDP=3.97D-03 DE=-2.03D-03 OVMax= 1.88D-02

 Cycle   5  Pass 0  IDiag  1:
 RMSU=  7.36D-05    CP:  9.92D-01  1.28D+00  1.00D+00  7.49D-01
 E= -193.367097245112     Delta-E=       -0.001499586778 Rises=F Damp=F
 DIIS: error= 1.37D-03 at cycle   5 NSaved=   5.
 NSaved= 5 IEnMin= 5 EnMin= -193.367097245112     IErMin= 5 ErrMin= 1.37D-03
 ErrMax= 1.37D-03  0.00D+00 EMaxC= 1.00D-01 BMatC= 3.70D-04 BMatP= 5.54D-03
 IDIUse=3 WtCom= 9.86D-01 WtEn= 1.37D-02
 Coeff-Com: -0.278D-02-0.544D-02 0.107D+00 0.234D+00 0.667D+00
 Coeff-En:   0.000D+00 0.000D+00 0.000D+00 0.000D+00 0.100D+01
 Coeff:     -0.274D-02-0.537D-02 0.105D+00 0.231D+00 0.672D+00
 Gap=     0.283 Goal=   None    Shift=    0.000
 Gap=     0.271 Goal=   None    Shift=    0.000
 RMSDP=4.03D-05 MaxDP=1.53D-03 DE=-1.50D-03 OVMax= 6.64D-03

 Cycle   6  Pass 0  IDiag  1:
 RMSU=  3.59D-05    CP:  9.92D-01  1.28D+00  1.02D+00  8.04D-01  1.06D+00
 E= -193.367248632155     Delta-E=       -0.000151387043 Rises=F Damp=F
 DIIS: error= 5.24D-04 at cycle   6 NSaved=   6.
 NSaved= 6 IEnMin= 6 EnMin= -193.367248632155     IErMin= 6 ErrMin= 5.24D-04
 ErrMax= 5.24D-04  0.00D+00 EMaxC= 1.00D-01 BMatC= 7.01D-05 BMatP= 3.70D-04
 IDIUse=3 WtCom= 9.95D-01 WtEn= 5.24D-03
 Coeff-Com:  0.911D-02-0.261D-01-0.132D+00-0.150D+00 0.116D+00 0.118D+01
 Coeff-En:   0.000D+00 0.000D+00 0.000D+00 0.000D+00 0.000D+00 0.100D+01
 Coeff:      0.906D-02-0.260D-01-0.132D+00-0.149D+00 0.116D+00 0.118D+01
 Gap=     0.286 Goal=   None    Shift=    0.000
 Gap=     0.274 Goal=   None    Shift=    0.000
 RMSDP=4.47D-05 MaxDP=1.44D-03 DE=-1.51D-04 OVMax= 7.11D-03

 Cycle   7  Pass 0  IDiag  1:
 RMSU=  1.66D-05    CP:  9.92D-01  1.28D+00  1.04D+00  8.79D-01  1.45D+00
                    CP:  1.53D+00
 E= -193.367316280983     Delta-E=       -0.000067648828 Rises=F Damp=F
 DIIS: error= 2.07D-04 at cycle   7 NSaved=   7.
 NSaved= 7 IEnMin= 7 EnMin= -193.367316280983     IErMin= 7 ErrMin= 2.07D-04
 ErrMax= 2.07D-04  0.00D+00 EMaxC= 1.00D-01 BMatC= 1.50D-05 BMatP= 7.01D-05
 IDIUse=3 WtCom= 9.98D-01 WtEn= 2.07D-03
 Coeff-Com:  0.381D-02-0.962D-02-0.733D-01-0.977D-01-0.560D-01 0.489D+00
 Coeff-Com:  0.744D+00
 Coeff-En:   0.000D+00 0.000D+00 0.000D+00 0.000D+00 0.000D+00 0.000D+00
 Coeff-En:   0.100D+01
 Coeff:      0.381D-02-0.960D-02-0.732D-01-0.975D-01-0.559D-01 0.488D+00
 Coeff:      0.745D+00
 Gap=     0.286 Goal=   None    Shift=    0.000
 Gap=     0.274 Goal=   None    Shift=    0.000
 RMSDP=1.40D-05 MaxDP=4.57D-04 DE=-6.76D-05 OVMax= 2.17D-03

 Cycle   8  Pass 0  IDiag  1:
 RMSU=  7.36D-06    CP:  9.92D-01  1.28D+00  1.05D+00  8.94D-01  1.55D+00
                    CP:  1.75D+00  1.13D+00
 E= -193.367324232664     Delta-E=       -0.000007951681 Rises=F Damp=F
 DIIS: error= 6.67D-05 at cycle   8 NSaved=   8.
 NSaved= 8 IEnMin= 8 EnMin= -193.367324232664     IErMin= 8 ErrMin= 6.67D-05
 ErrMax= 6.67D-05  0.00D+00 EMaxC= 1.00D-01 BMatC= 2.74D-06 BMatP= 1.50D-05
 IDIUse=1 WtCom= 1.00D+00 WtEn= 0.00D+00
 Coeff-Com: -0.475D-03 0.157D-02-0.404D-02-0.875D-02-0.402D-01-0.303D-01
 Coeff-Com:  0.305D+00 0.778D+00
 Coeff:     -0.475D-03 0.157D-02-0.404D-02-0.875D-02-0.402D-01-0.303D-01
 Coeff:      0.305D+00 0.778D+00
 Gap=     0.286 Goal=   None    Shift=    0.000
 Gap=     0.274 Goal=   None    Shift=    0.000
 RMSDP=5.46D-06 MaxDP=2.17D-04 DE=-7.95D-06 OVMax= 7.16D-04

 Initial convergence to 1.0D-05 achieved.  Increase integral accuracy.
 Cycle   9  Pass 1  IDiag  1:
 E= -193.367309891484     Delta-E=        0.000014341180 Rises=F Damp=F
 DIIS: error= 3.94D-05 at cycle   1 NSaved=   1.
 NSaved= 1 IEnMin= 1 EnMin= -193.367309891484     IErMin= 1 ErrMin= 3.94D-05
 ErrMax= 3.94D-05  0.00D+00 EMaxC= 1.00D-01 BMatC= 2.05D-06 BMatP= 2.05D-06
 IDIUse=1 WtCom= 1.00D+00 WtEn= 0.00D+00
 Coeff-Com:  0.100D+01
 Coeff:      0.100D+01
 Gap=     0.286 Goal=   None    Shift=    0.000
 Gap=     0.274 Goal=   None    Shift=    0.000
 RMSDP=5.46D-06 MaxDP=2.17D-04 DE= 1.43D-05 OVMax= 3.76D-04

 Cycle  10  Pass 1  IDiag  1:
 RMSU=  1.80D-05    CP:  1.00D+00
 E= -193.367310343072     Delta-E=       -0.000000451587 Rises=F Damp=F
 DIIS: error= 2.07D-05 at cycle   2 NSaved=   2.
 NSaved= 2 IEnMin= 2 EnMin= -193.367310343072     IErMin= 2 ErrMin= 2.07D-05
 ErrMax= 2.07D-05  0.00D+00 EMaxC= 1.00D-01 BMatC= 1.88D-07 BMatP= 2.05D-06
 IDIUse=1 WtCom= 1.00D+00 WtEn= 0.00D+00
 Coeff-Com:  0.461D-01 0.954D+00
 Coeff:      0.461D-01 0.954D+00
 Gap=     0.286 Goal=   None    Shift=    0.000
 Gap=     0.274 Goal=   None    Shift=    0.000
 RMSDP=1.85D-06 MaxDP=9.20D-05 DE=-4.52D-07 OVMax= 2.00D-04

 Cycle  11  Pass 1  IDiag  1:
 RMSU=  1.76D-06    CP:  1.00D+00  1.03D+00
 E= -193.367310447467     Delta-E=       -0.000000104395 Rises=F Damp=F
 DIIS: error= 1.69D-05 at cycle   3 NSaved=   3.
 NSaved= 3 IEnMin= 3 EnMin= -193.367310447467     IErMin= 3 ErrMin= 1.69D-05
 ErrMax= 1.69D-05  0.00D+00 EMaxC= 1.00D-01 BMatC= 1.42D-07 BMatP= 1.88D-07
 IDIUse=1 WtCom= 1.00D+00 WtEn= 0.00D+00
 Coeff-Com: -0.486D-01 0.458D+00 0.590D+00
 Coeff:     -0.486D-01 0.458D+00 0.590D+00
 Gap=     0.286 Goal=   None    Shift=    0.000
 Gap=     0.274 Goal=   None    Shift=    0.000
 RMSDP=8.57D-07 MaxDP=4.88D-05 DE=-1.04D-07 OVMax= 1.31D-04

 Cycle  12  Pass 1  IDiag  1:
 RMSU=  7.57D-07    CP:  1.00D+00  1.05D+00  1.18D+00
 E= -193.367310508687     Delta-E=       -0.000000061220 Rises=F Damp=F
 DIIS: error= 1.28D-05 at cycle   4 NSaved=   4.
 NSaved= 4 IEnMin= 4 EnMin= -193.367310508687     IErMin= 4 ErrMin= 1.28D-05
 ErrMax= 1.28D-05  0.00D+00 EMaxC= 1.00D-01 BMatC= 2.69D-08 BMatP= 1.42D-07
 IDIUse=1 WtCom= 1.00D+00 WtEn= 0.00D+00
 Coeff-Com: -0.103D-01-0.263D+00 0.791D-02 0.127D+01
 Coeff:     -0.103D-01-0.263D+00 0.791D-02 0.127D+01
 Gap=     0.286 Goal=   None    Shift=    0.000
 Gap=     0.274 Goal=   None    Shift=    0.000
 RMSDP=1.17D-06 MaxDP=5.85D-05 DE=-6.12D-08 OVMax= 1.56D-04

 Cycle  13  Pass 1  IDiag  1:
 RMSU=  4.39D-07    CP:  1.00D+00  1.06D+00  1.71D+00  1.69D+00
 E= -193.367310547555     Delta-E=       -0.000000038868 Rises=F Damp=F
 DIIS: error= 1.09D-05 at cycle   5 NSaved=   5.
 NSaved= 5 IEnMin= 5 EnMin= -193.367310547555     IErMin= 5 ErrMin= 1.09D-05
 ErrMax= 1.09D-05  0.00D+00 EMaxC= 1.00D-01 BMatC= 1.50D-08 BMatP= 2.69D-08
 IDIUse=1 WtCom= 1.00D+00 WtEn= 0.00D+00
 Coeff-Com:  0.155D-01-0.385D+00-0.259D+00 0.822D+00 0.807D+00
 Coeff:      0.155D-01-0.385D+00-0.259D+00 0.822D+00 0.807D+00
 Gap=     0.286 Goal=   None    Shift=    0.000
 Gap=     0.274 Goal=   None    Shift=    0.000
 RMSDP=8.44D-07 MaxDP=4.78D-05 DE=-3.89D-08 OVMax= 1.31D-04

 Cycle  14  Pass 1  IDiag  1:
 RMSU=  2.27D-07    CP:  1.00D+00  1.06D+00  2.09D+00  2.26D+00  1.40D+00
 E= -193.367310562062     Delta-E=       -0.000000014506 Rises=F Damp=F
 DIIS: error= 3.90D-06 at cycle   6 NSaved=   6.
 NSaved= 6 IEnMin= 6 EnMin= -193.367310562062     IErMin= 6 ErrMin= 3.90D-06
 ErrMax= 3.90D-06  0.00D+00 EMaxC= 1.00D-01 BMatC= 2.54D-09 BMatP= 1.50D-08
 IDIUse=1 WtCom= 1.00D+00 WtEn= 0.00D+00
 Coeff-Com:  0.999D-02-0.139D+00-0.128D+00 0.166D+00 0.391D+00 0.699D+00
 Coeff:      0.999D-02-0.139D+00-0.128D+00 0.166D+00 0.391D+00 0.699D+00
 Gap=     0.286 Goal=   None    Shift=    0.000
 Gap=     0.274 Goal=   None    Shift=    0.000
 RMSDP=2.40D-07 MaxDP=1.15D-05 DE=-1.45D-08 OVMax= 3.19D-05

 Cycle  15  Pass 1  IDiag  1:
 RMSU=  8.95D-08    CP:  1.00D+00  1.06D+00  2.18D+00  2.40D+00  1.60D+00
                    CP:  1.07D+00
 E= -193.367310563706     Delta-E=       -0.000000001644 Rises=F Damp=F
 DIIS: error= 1.19D-06 at cycle   7 NSaved=   7.
 NSaved= 7 IEnMin= 7 EnMin= -193.367310563706     IErMin= 7 ErrMin= 1.19D-06
 ErrMax= 1.19D-06  0.00D+00 EMaxC= 1.00D-01 BMatC= 4.42D-10 BMatP= 2.54D-09
 IDIUse=1 WtCom= 1.00D+00 WtEn= 0.00D+00
 Coeff-Com:  0.373D-03 0.350D-01 0.110D-01-0.133D+00-0.378D-01 0.285D+00
 Coeff-Com:  0.839D+00
 Coeff:      0.373D-03 0.350D-01 0.110D-01-0.133D+00-0.378D-01 0.285D+00
 Coeff:      0.839D+00
 Gap=     0.286 Goal=   None    Shift=    0.000
 Gap=     0.274 Goal=   None    Shift=    0.000
 RMSDP=1.08D-07 MaxDP=5.28D-06 DE=-1.64D-09 OVMax= 2.30D-05

 Cycle  16  Pass 1  IDiag  1:
 RMSU=  5.12D-08    CP:  1.00D+00  1.07D+00  2.21D+00  2.46D+00  1.70D+00
                    CP:  1.25D+00  1.11D+00
 E= -193.367310564082     Delta-E=       -0.000000000377 Rises=F Damp=F
 DIIS: error= 3.95D-07 at cycle   8 NSaved=   8.
 NSaved= 8 IEnMin= 8 EnMin= -193.367310564082     IErMin= 8 ErrMin= 3.95D-07
 ErrMax= 3.95D-07  0.00D+00 EMaxC= 1.00D-01 BMatC= 1.08D-10 BMatP= 4.42D-10
 IDIUse=1 WtCom= 1.00D+00 WtEn= 0.00D+00
 Coeff-Com: -0.186D-02 0.411D-01 0.322D-01-0.854D-01-0.930D-01-0.521D-01
 Coeff-Com:  0.349D+00 0.810D+00
 Coeff:     -0.186D-02 0.411D-01 0.322D-01-0.854D-01-0.930D-01-0.521D-01
 Coeff:      0.349D+00 0.810D+00
 Gap=     0.286 Goal=   None    Shift=    0.000
 Gap=     0.274 Goal=   None    Shift=    0.000
 RMSDP=4.22D-08 MaxDP=1.50D-06 DE=-3.77D-10 OVMax= 8.03D-06

 Cycle  17  Pass 1  IDiag  1:
 RMSU=  2.10D-08    CP:  1.00D+00  1.07D+00  2.22D+00  2.47D+00  1.74D+00
                    CP:  1.30D+00  1.33D+00  1.22D+00
 E= -193.367310564162     Delta-E=       -0.000000000079 Rises=F Damp=F
 DIIS: error= 1.86D-07 at cycle   9 NSaved=   9.
 NSaved= 9 IEnMin= 9 EnMin= -193.367310564162     IErMin= 9 ErrMin= 1.86D-07
 ErrMax= 1.86D-07  0.00D+00 EMaxC= 1.00D-01 BMatC= 8.43D-12 BMatP= 1.08D-10
 IDIUse=1 WtCom= 1.00D+00 WtEn= 0.00D+00
 Coeff-Com: -0.166D-03-0.605D-02 0.266D-03 0.225D-01 0.540D-02-0.635D-01
 Coeff-Com: -0.139D+00-0.146D-01 0.120D+01
 Coeff:     -0.166D-03-0.605D-02 0.266D-03 0.225D-01 0.540D-02-0.635D-01
 Coeff:     -0.139D+00-0.146D-01 0.120D+01
 Gap=     0.286 Goal=   None    Shift=    0.000
 Gap=     0.274 Goal=   None    Shift=    0.000
 RMSDP=2.07D-08 MaxDP=4.91D-07 DE=-7.95D-11 OVMax= 5.25D-06

 Cycle  18  Pass 1  IDiag  1:
 RMSU=  9.57D-09    CP:  1.00D+00  1.07D+00  2.23D+00  2.47D+00  1.75D+00
                    CP:  1.32D+00  1.45D+00  1.45D+00  1.30D+00
 E= -193.367310564177     Delta-E=       -0.000000000016 Rises=F Damp=F
 DIIS: error= 4.70D-08 at cycle  10 NSaved=  10.
 NSaved=10 IEnMin=10 EnMin= -193.367310564177     IErMin=10 ErrMin= 4.70D-08
 ErrMax= 4.70D-08  0.00D+00 EMaxC= 1.00D-01 BMatC= 1.14D-12 BMatP= 8.43D-12
 IDIUse=1 WtCom= 1.00D+00 WtEn= 0.00D+00
 Coeff-Com:  0.155D-03-0.529D-02-0.293D-02 0.126D-01 0.101D-01-0.606D-02
 Coeff-Com: -0.637D-01-0.945D-01 0.242D+00 0.907D+00
 Coeff:      0.155D-03-0.529D-02-0.293D-02 0.126D-01 0.101D-01-0.606D-02
 Coeff:     -0.637D-01-0.945D-01 0.242D+00 0.907D+00
 Gap=     0.286 Goal=   None    Shift=    0.000
 Gap=     0.274 Goal=   None    Shift=    0.000
 RMSDP=5.83D-09 MaxDP=1.40D-07 DE=-1.55D-11 OVMax= 1.29D-06

 SCF Done:  E(UM062X) =  -193.367310564     A.U. after   18 cycles
            NFock= 18  Conv=0.58D-08     -V/T= 2.0079
 <Sx>= 0.0000 <Sy>= 0.0000 <Sz>= 0.5000 <S**2>= 0.7699 S= 0.5099
 <L.S>= 0.000000000000E+00
 KE= 1.918510836827D+02 PE=-7.061147185640D+02 EE= 1.916354597603D+02
 Annihilation of the first spin contaminant:
 S**2 before annihilation     0.7699,   after     0.7503
 Leave Link  502 at Mon Sep 28 11:12:44 2020, MaxMem=   268435456 cpu:             375.0 elap:              47.2
 (Enter /applis/site/cecic/gaussian16/B.01/nehalem/g16/l601.exe)
 Copying SCF densities to generalized density rwf, IOpCl= 1 IROHF=0.

 **********************************************************************

            Population analysis using the SCF Density.

 **********************************************************************

 Alpha  occ. eigenvalues --  -10.59579 -10.56096 -10.55717 -10.54629 -10.54576
 Alpha  occ. eigenvalues --   -0.91156  -0.85612  -0.77869  -0.65341  -0.61268
 Alpha  occ. eigenvalues --   -0.55819  -0.52915  -0.49452  -0.43872  -0.39842
 Alpha  occ. eigenvalues --   -0.34767  -0.34218  -0.25795
 Alpha virt. eigenvalues --    0.02850   0.07514   0.08984   0.09353   0.10277
 Alpha virt. eigenvalues --    0.12046   0.12699   0.15378   0.21631   0.23727
 Alpha virt. eigenvalues --    0.24138   0.27886   0.30738   0.32103   0.33466
 Alpha virt. eigenvalues --    0.34768   0.36443   0.37068   0.39270   0.41637
 Alpha virt. eigenvalues --    0.42236   0.42779   0.45632   0.47827   0.48525
 Alpha virt. eigenvalues --    0.50472   0.50848   0.52507   0.53957   0.55440
 Alpha virt. eigenvalues --    0.57817   0.59310   0.63458   0.65473   0.66749
 Alpha virt. eigenvalues --    0.68701   0.69061   0.70907   0.78366   0.79895
 Alpha virt. eigenvalues --    0.82592   0.88143   0.89292   0.90010   0.92246
 Alpha virt. eigenvalues --    0.92756   0.93860   0.95744   0.97113   1.00869
 Alpha virt. eigenvalues --    1.03089   1.03868   1.10505   1.10929   1.13553
 Alpha virt. eigenvalues --    1.17395   1.17788   1.22772   1.25537   1.26782
 Alpha virt. eigenvalues --    1.28718   1.32228   1.33487   1.34207   1.38919
 Alpha virt. eigenvalues --    1.40784   1.43836   1.47426   1.49211   1.49700
 Alpha virt. eigenvalues --    1.52327   1.55657   1.61169   1.65255   1.73703
 Alpha virt. eigenvalues --    1.83375   2.02079   2.02976   2.09762   2.11218
 Alpha virt. eigenvalues --    2.15582   2.24147   2.25631   2.28449   2.31357
 Alpha virt. eigenvalues --    2.34150   2.38570   2.39991   2.42200   2.45937
 Alpha virt. eigenvalues --    2.46555   2.48801   2.50160   2.53075   2.53399
 Alpha virt. eigenvalues --    2.53848   2.55188   2.59611   2.66971   2.67145
 Alpha virt. eigenvalues --    2.72709   2.74828   2.77853   2.78937   2.79759
 Alpha virt. eigenvalues --    2.81481   2.82117   2.84491   2.86751   2.87434
 Alpha virt. eigenvalues --    2.89713   2.91423   2.91905   2.92607   2.93057
 Alpha virt. eigenvalues --    2.93514   2.94271   2.96033   3.00522   3.01313
 Alpha virt. eigenvalues --    3.02966   3.04437   3.05056   3.05963   3.08493
 Alpha virt. eigenvalues --    3.11970   3.13200   3.15838   3.17980   3.19228
 Alpha virt. eigenvalues --    3.22930   3.24782   3.28015   3.30945   3.34168
 Alpha virt. eigenvalues --    3.36307   3.37685   3.40627   3.41704   3.44715
 Alpha virt. eigenvalues --    3.49759   3.53819   3.55566   3.58844   3.61683
 Alpha virt. eigenvalues --    3.64957   3.67677   3.73162   3.75451   3.79365
 Alpha virt. eigenvalues --    3.81600   3.82529   3.84495   3.85817   3.89994
 Alpha virt. eigenvalues --    3.90334   3.93441   3.95337   3.97852   4.00421
 Alpha virt. eigenvalues --    4.02665   4.08522   4.09750   4.12723   4.12962
 Alpha virt. eigenvalues --    4.17833   4.23846   4.26232   4.33709   4.37130
 Alpha virt. eigenvalues --    4.43858   4.47771   4.51463   4.59829   4.62746
 Alpha virt. eigenvalues --    4.74649   4.76104   4.84419   4.89612   4.92230
 Alpha virt. eigenvalues --    4.93067   4.95178   5.01771   5.09464   5.12020
 Alpha virt. eigenvalues --    5.14173   5.29674   5.38991   5.48391   5.49278
 Alpha virt. eigenvalues --    5.62106   5.70855   5.78300   5.82119   5.88826
 Alpha virt. eigenvalues --    6.04341   6.14909   7.98011  10.92468  11.42445
 Alpha virt. eigenvalues --   13.76910  16.32730
  Beta  occ. eigenvalues --  -10.58957 -10.56198 -10.55892 -10.54448 -10.54405
  Beta  occ. eigenvalues --   -0.89929  -0.85063  -0.75651  -0.64837  -0.60534
  Beta  occ. eigenvalues --   -0.55164  -0.52087  -0.48639  -0.43289  -0.36740
  Beta  occ. eigenvalues --   -0.34266  -0.33283
  Beta virt. eigenvalues --   -0.05853   0.03621   0.07664   0.09008   0.09350
  Beta virt. eigenvalues --    0.10197   0.12208   0.14185   0.15686   0.21646
  Beta virt. eigenvalues --    0.24116   0.24653   0.27951   0.30917   0.32180
  Beta virt. eigenvalues --    0.33498   0.35189   0.36620   0.38062   0.39294
  Beta virt. eigenvalues --    0.41851   0.42339   0.43055   0.45703   0.47252
  Beta virt. eigenvalues --    0.48862   0.50590   0.50959   0.52249   0.53971
  Beta virt. eigenvalues --    0.55273   0.57928   0.59293   0.63720   0.65559
  Beta virt. eigenvalues --    0.67001   0.68916   0.69413   0.71019   0.78193
  Beta virt. eigenvalues --    0.79903   0.82451   0.87755   0.89024   0.90132
  Beta virt. eigenvalues --    0.91833   0.92585   0.93726   0.95805   0.97228
  Beta virt. eigenvalues --    1.00979   1.03355   1.03847   1.10775   1.11069
  Beta virt. eigenvalues --    1.13698   1.17680   1.18049   1.22951   1.26074
  Beta virt. eigenvalues --    1.27040   1.29224   1.32708   1.33640   1.34455
  Beta virt. eigenvalues --    1.39377   1.41158   1.44418   1.47910   1.49876
  Beta virt. eigenvalues --    1.50039   1.52744   1.56109   1.61546   1.65823
  Beta virt. eigenvalues --    1.74092   1.84051   2.03647   2.04401   2.10751
  Beta virt. eigenvalues --    2.12804   2.15632   2.24167   2.27328   2.29191
  Beta virt. eigenvalues --    2.32487   2.35091   2.39534   2.41253   2.43386
  Beta virt. eigenvalues --    2.47116   2.47208   2.49633   2.51077   2.53955
  Beta virt. eigenvalues --    2.54364   2.54594   2.56171   2.60793   2.68072
  Beta virt. eigenvalues --    2.68746   2.73944   2.75956   2.78931   2.80814
  Beta virt. eigenvalues --    2.82350   2.82848   2.83742   2.85556   2.88215
  Beta virt. eigenvalues --    2.88918   2.90582   2.92352   2.93007   2.93618
  Beta virt. eigenvalues --    2.94079   2.95353   2.95892   2.97327   3.01977
  Beta virt. eigenvalues --    3.02478   3.04660   3.06001   3.06765   3.06954
  Beta virt. eigenvalues --    3.09993   3.13730   3.14487   3.17021   3.18316
  Beta virt. eigenvalues --    3.20969   3.23780   3.25485   3.28714   3.31970
  Beta virt. eigenvalues --    3.35550   3.38285   3.39682   3.41889   3.42551
  Beta virt. eigenvalues --    3.45791   3.51178   3.54603   3.56274   3.59718
  Beta virt. eigenvalues --    3.62659   3.66221   3.68254   3.73955   3.77207
  Beta virt. eigenvalues --    3.79906   3.82166   3.83223   3.85510   3.86362
  Beta virt. eigenvalues --    3.91104   3.91527   3.94444   3.96024   3.98652
  Beta virt. eigenvalues --    4.01150   4.03437   4.09374   4.10908   4.13876
  Beta virt. eigenvalues --    4.14893   4.18788   4.25724   4.27075   4.35237
  Beta virt. eigenvalues --    4.38067   4.44600   4.48625   4.53429   4.60606
  Beta virt. eigenvalues --    4.63513   4.75442   4.80113   4.86470   4.90704
  Beta virt. eigenvalues --    4.93575   4.95327   4.97220   5.04572   5.11287
  Beta virt. eigenvalues --    5.13065   5.15640   5.30726   5.42892   5.51330
  Beta virt. eigenvalues --    5.52209   5.66704   5.73383   5.79355   5.83257
  Beta virt. eigenvalues --    5.90459   6.05621   6.16000   7.99927  10.92673
  Beta virt. eigenvalues --   11.44879  13.77115  16.32723
          Condensed to atoms (all electrons):
               1          2          3          4          5          6
     1  C    4.991380   0.581566  -0.071378   0.004461  -0.001613   0.000465
     2  C    0.581566   4.927107   0.386979  -0.077467  -0.041147  -0.003601
     3  C   -0.071378   0.386979   5.226005   0.412778   0.402701  -0.062110
     4  C    0.004461  -0.077467   0.412778   5.024141  -0.032355   0.759645
     5  H   -0.001613  -0.041147   0.402701  -0.032355   0.473217   0.000169
     6  C    0.000465  -0.003601  -0.062110   0.759645   0.000169   5.007111
     7  H    0.000004  -0.000177   0.000044  -0.078241  -0.000043   0.429928
     8  H    0.411698  -0.051251   0.007068  -0.000537  -0.000216  -0.000045
     9  H    0.410154  -0.064604   0.001192   0.000260   0.001625  -0.000041
    10  H   -0.045008   0.397137  -0.038328   0.001957   0.003202   0.001731
               7          8          9         10
     1  C    0.000004   0.411698   0.410154  -0.045008
     2  C   -0.000177  -0.051251  -0.064604   0.397137
     3  C    0.000044   0.007068   0.001192  -0.038328
     4  C   -0.078241  -0.000537   0.000260   0.001957
     5  H   -0.000043  -0.000216   0.001625   0.003202
     6  C    0.429928  -0.000045  -0.000041   0.001731
     7  H    0.497198  -0.000001  -0.000000   0.000010
     8  H   -0.000001   0.555660  -0.033982  -0.007336
     9  H   -0.000000  -0.033982   0.549454   0.005870
    10  H    0.000010  -0.007336   0.005870   0.526398
          Atomic-Atomic Spin Densities.
               1          2          3          4          5          6
     1  C    0.195719   0.015083  -0.025333   0.001077   0.000130   0.000381
     2  C    0.015083  -0.147627  -0.039202   0.010152   0.004477   0.002968
     3  C   -0.025333  -0.039202   1.013559  -0.008568  -0.008465  -0.019630
     4  C    0.001077   0.010152  -0.008568  -0.263307   0.005500  -0.009126
     5  H    0.000130   0.004477  -0.008465   0.005500  -0.059598   0.000241
     6  C    0.000381   0.002968  -0.019630  -0.009126   0.000241   0.412646
     7  H    0.000001   0.000020   0.000156  -0.005879   0.000005   0.007378
     8  H   -0.002248  -0.003295   0.001539  -0.000017   0.000016  -0.000007
     9  H   -0.004386   0.002850   0.002675   0.000147  -0.000242  -0.000080
    10  H   -0.007091   0.006644  -0.012709   0.000929  -0.000250  -0.000161
               7          8          9         10
     1  C    0.000001  -0.002248  -0.004386  -0.007091
     2  C    0.000020  -0.003295   0.002850   0.006644
     3  C    0.000156   0.001539   0.002675  -0.012709
     4  C   -0.005879  -0.000017   0.000147   0.000929
     5  H    0.000005   0.000016  -0.000242  -0.000250
     6  C    0.007378  -0.000007  -0.000080  -0.000161
     7  H   -0.008814   0.000000  -0.000001  -0.000014
     8  H    0.000000  -0.004487   0.001152   0.001444
     9  H   -0.000001   0.001152  -0.012502   0.000406
    10  H   -0.000014   0.001444   0.000406   0.037075
 Mulliken charges and spin densities:
               1          2
     1  C   -0.281728   0.173332
     2  C   -0.054543  -0.147929
     3  C   -0.264950   0.904023
     4  C   -0.014641  -0.269091
     5  H    0.194459  -0.058188
     6  C   -0.133252   0.394610
     7  H    0.151278  -0.007147
     8  H    0.118941  -0.005902
     9  H    0.130070  -0.009981
    10  H    0.154367   0.026273
 Sum of Mulliken charges =  -0.00000   1.00000
 Mulliken charges and spin densities with hydrogens summed into heavy atoms:
               1          2
     1  C   -0.032717   0.157449
     2  C    0.099824  -0.121656
     3  C   -0.070492   0.845835
     4  C   -0.014641  -0.269091
     6  C    0.018026   0.387463
 Electronic spatial extent (au):  <R**2>=           1166.7409
 Charge=             -0.0000 electrons
 Dipole moment (field-independent basis, Debye):
    X=             -0.1842    Y=              0.2592    Z=             -0.3133  Tot=              0.4465
 Quadrupole moment (field-independent basis, Debye-Ang):
   XX=            -29.5769   YY=            -30.0429   ZZ=            -28.3444
   XY=              0.2778   XZ=              0.1033   YZ=             -2.8545
 Traceless Quadrupole moment (field-independent basis, Debye-Ang):
   XX=             -0.2555   YY=             -0.7215   ZZ=              0.9770
   XY=              0.2778   XZ=              0.1033   YZ=             -2.8545
 Octapole moment (field-independent basis, Debye-Ang**2):
  XXX=            -81.8225  YYY=             43.4297  ZZZ=           -168.0785  XYY=            -20.5786
  XXY=             19.2621  XXZ=            -62.7836  XZZ=            -20.3259  YZZ=             -8.4416
  YYZ=            -47.4833  XYZ=             -6.6202
 Hexadecapole moment (field-independent basis, Debye-Ang**3):
 XXXX=           -303.7956 YYYY=           -189.4589 ZZZZ=          -1067.4513 XXXY=             91.0388
 XXXZ=           -262.6019 YYYX=             65.8320 YYYZ=            145.2156 ZZZX=           -199.3363
 ZZZY=             38.3349 XXYY=            -75.9360 XXZZ=           -242.6807 YYZZ=           -141.3292
 XXYZ=             58.5796 YYXZ=            -49.3504 ZZXY=            -26.1598
 N-N= 1.292608645568D+02 E-N=-7.061147220617D+02  KE= 1.918510836827D+02
                          Isotropic Fermi Contact Couplings
        Atom                 a.u.       MegaHertz       Gauss      10(-4) cm-1
     1  C(13)              0.05494      61.75866      22.03702      20.60047
     2  C(13)             -0.04320     -48.56153     -17.32796     -16.19838
     3  C(13)              0.16980     190.88509      68.11255      63.67241
     4  C(13)             -0.07239     -81.37617     -29.03704     -27.14417
     5  H(1)              -0.01547     -69.14011     -24.67091     -23.06266
     6  C(13)              0.04764      53.55621      19.11019      17.86443
     7  H(1)              -0.00489     -21.85115      -7.79703      -7.28876
     8  H(1)              -0.00124      -5.56129      -1.98441      -1.85505
     9  H(1)              -0.00239     -10.69520      -3.81631      -3.56753
    10  H(1)               0.00936      41.84274      14.93053      13.95724
 --------------------------------------------------------
       Center         ----  Spin Dipole Couplings  ----
                      3XX-RR        3YY-RR        3ZZ-RR
 --------------------------------------------------------
     1   Atom       -0.074281      0.136500     -0.062220
     2   Atom        0.034044     -0.077036      0.042992
     3   Atom       -0.250320      0.053831      0.196489
     4   Atom       -0.025040      0.014198      0.010842
     5   Atom        0.006370      0.019767     -0.026137
     6   Atom       -0.056896      0.015854      0.041042
     7   Atom       -0.018897      0.007963      0.010934
     8   Atom        0.006769     -0.003306     -0.003463
     9   Atom        0.002096     -0.007379      0.005283
    10   Atom        0.009458     -0.007307     -0.002151
 --------------------------------------------------------
                        XY            XZ            YZ
 --------------------------------------------------------
     1   Atom       -0.019341      0.012819     -0.051512
     2   Atom       -0.000464     -0.000093     -0.001450
     3   Atom       -0.337644     -0.383204      0.593564
     4   Atom        0.011364      0.035943     -0.104396
     5   Atom        0.044820     -0.031026      0.003916
     6   Atom       -0.096119     -0.117272      0.214286
     7   Atom       -0.008927     -0.000091     -0.016421
     8   Atom       -0.000151      0.012607     -0.000850
     9   Atom        0.003327     -0.006228     -0.003528
    10   Atom       -0.000297      0.005758     -0.000428
 --------------------------------------------------------


 ---------------------------------------------------------------------------------
              Anisotropic Spin Dipole Couplings in Principal Axis System
 ---------------------------------------------------------------------------------

       Atom             a.u.   MegaHertz   Gauss  10(-4) cm-1        Axes

              Baa    -0.0835   -11.200    -3.997    -3.736  0.7392 -0.0913 -0.6673
     1 C(13)  Bbb    -0.0677    -9.086    -3.242    -3.031  0.6666  0.2411  0.7054
              Bcc     0.1512    20.286     7.239     6.767 -0.0965  0.9662 -0.2390
 
              Baa    -0.0771   -10.340    -3.690    -3.449  0.0042  0.9999  0.0121
     2 C(13)  Bbb     0.0340     4.569     1.630     1.524  0.9999 -0.0043  0.0097
              Bcc     0.0430     5.772     2.059     1.925 -0.0098 -0.0120  0.9999
 
              Baa    -0.4733   -63.507   -22.661   -21.184  0.3244 -0.6081  0.7245
     3 C(13)  Bbb    -0.4685   -62.874   -22.435   -20.972  0.8600  0.5085  0.0417
              Bcc     0.9418   126.381    45.096    42.156 -0.3938  0.6096  0.6880
 
              Baa    -0.1060   -14.230    -5.078    -4.747 -0.3882  0.6248  0.6774
     4 C(13)  Bbb    -0.0130    -1.744    -0.622    -0.582  0.9134  0.3585  0.1928
              Bcc     0.1190    15.974     5.700     5.328  0.1224 -0.6936  0.7099
 
              Baa    -0.0566   -30.205   -10.778   -10.075  0.6172 -0.3970  0.6793
     5 H(1)   Bbb    -0.0055    -2.915    -1.040    -0.972 -0.3943  0.5912  0.7036
              Bcc     0.0621    33.120    11.818    11.048  0.6809  0.7021 -0.2083
 
              Baa    -0.1876   -25.179    -8.984    -8.399  0.1342 -0.6878  0.7134
     6 C(13)  Bbb    -0.1185   -15.906    -5.676    -5.306  0.9132  0.3654  0.1805
              Bcc     0.3062    41.084    14.660    13.704 -0.3848  0.6272  0.6772
 
              Baa    -0.0225   -12.001    -4.282    -4.003  0.9127  0.3657  0.1822
     7 H(1)   Bbb    -0.0042    -2.265    -0.808    -0.755 -0.3863  0.6272  0.6763
              Bcc     0.0267    14.265     5.090     4.758  0.1331 -0.6876  0.7138
 
              Baa    -0.0120    -6.401    -2.284    -2.135 -0.5558  0.0714  0.8282
     8 H(1)   Bbb    -0.0033    -1.751    -0.625    -0.584  0.0666  0.9969 -0.0412
              Bcc     0.0153     8.152     2.909     2.719  0.8286 -0.0323  0.5589
 
              Baa    -0.0087    -4.619    -1.648    -1.541 -0.2121  0.9657  0.1497
     9 H(1)   Bbb    -0.0027    -1.444    -0.515    -0.482  0.7711  0.0714  0.6326
              Bcc     0.0114     6.062     2.163     2.022 -0.6003 -0.2496  0.7598
 
              Baa    -0.0073    -3.919    -1.398    -1.307 -0.0169  0.9948  0.1006
    10 H(1)   Bbb    -0.0045    -2.398    -0.856    -0.800 -0.3814 -0.0994  0.9190
              Bcc     0.0118     6.317     2.254     2.107  0.9243 -0.0229  0.3811
 

 ---------------------------------------------------------------------------------

 No NMR shielding tensors so no spin-rotation constants.
 Leave Link  601 at Mon Sep 28 11:12:45 2020, MaxMem=   268435456 cpu:               2.1 elap:               0.4
 (Enter /applis/site/cecic/gaussian16/B.01/nehalem/g16/l701.exe)
 ... and contract with generalized density number  0.
 Compute integral first derivatives.
 Leave Link  701 at Mon Sep 28 11:12:45 2020, MaxMem=   268435456 cpu:               1.5 elap:               0.3
 (Enter /applis/site/cecic/gaussian16/B.01/nehalem/g16/l702.exe)
 L702 exits ... SP integral derivatives will be done elsewhere.
 Leave Link  702 at Mon Sep 28 11:12:45 2020, MaxMem=   268435456 cpu:               0.5 elap:               0.1
 (Enter /applis/site/cecic/gaussian16/B.01/nehalem/g16/l703.exe)
 Integral derivatives from FoFJK, PRISM(SPDF).
 Compute integral first derivatives, UseDBF=F ICtDFT=           0.
 Calling FoFJK, ICntrl=      2127 FMM=F ISym2X=0 I1Cent= 0 IOpClX= 1 NMat=1 NMatS=1 NMatT=0.
 FoFJK:  IHMeth= 1 ICntrl=    2127 DoSepK=F KAlg= 0 I1Cent=           0 FoldK=F
 IRaf=         0 NMat=       1 IRICut=       1 DoRegI=T DoRafI=F ISym2E= 0 IDoP0=0 IntGTp=1.
 FoFCou: FMM=F IPFlag=           0 FMFlag=      100000 FMFlg1=         800
         NFxFlg=           0 DoJE=F BraDBF=F KetDBF=F FulRan=T
         wScrn=  0.000000 ICntrl=      2127 IOpCl=  1 I1Cent=           0 NGrid=           0
         NMat0=    1 NMatS0=      1 NMatT0=    0 NMatD0=    1 NMtDS0=    0 NMtDT0=    0
 Symmetry not used in FoFCou.
 Leave Link  703 at Mon Sep 28 11:12:52 2020, MaxMem=   268435456 cpu:              49.7 elap:               6.3
 (Enter /applis/site/cecic/gaussian16/B.01/nehalem/g16/l716.exe)
 Dipole        =-7.24890324D-02 1.01992170D-01-1.23277505D-01
 -------------------------------------------------------------------
 Center     Atomic                   Forces (Hartrees/Bohr)
 Number     Number              X              Y              Z
 -------------------------------------------------------------------
      1        6          -0.003665954    0.004603509    0.006484555
      2        6           0.023220480    0.004210571   -0.003935672
      3        6          -0.012822977   -0.027069758    0.025177610
      4        6          -0.000092244    0.035689378   -0.027013911
      5        1          -0.010186389   -0.020523745    0.005819706
      6        6          -0.002199763    0.008334577   -0.009144990
      7        1          -0.000642030    0.001915097   -0.002460527
      8        1           0.004507338   -0.000510430    0.001650635
      9        1          -0.002602172   -0.000976252    0.000088320
     10        1           0.004483713   -0.005672947    0.003334272
 -------------------------------------------------------------------
 Cartesian Forces:  Max     0.035689378 RMS     0.012916470
 Leave Link  716 at Mon Sep 28 11:12:52 2020, MaxMem=   268435456 cpu:               0.5 elap:               0.2
 (Enter /applis/site/cecic/gaussian16/B.01/nehalem/g16/l103.exe)

 GradGradGradGradGradGradGradGradGradGradGradGradGradGradGradGradGradGrad
 Berny optimization.
 FormGI is forming the generalized inverse of G from B-inverse, IUseBI=4.
 Internal  Forces:  Max     0.059584040 RMS     0.013475871
 Search for a local minimum.
 Step number   1 out of a maximum of  100
 All quantities printed in internal units (Hartrees-Bohrs-Radians)
 RMS Force = .13476D-01 SwitMx=.10000D-02 MixMth= 1
 Mixed Optimization -- RFO/linear search
 Second derivative matrix not updated -- first step.
 ITU=  0
     Eigenvalues ---    0.00546   0.00546   0.00725   0.00730   0.01808
     Eigenvalues ---    0.02914   0.02915   0.04558   0.04558   0.15994
     Eigenvalues ---    0.16000   0.16000   0.16000   0.22001   0.22001
     Eigenvalues ---    0.32054   0.32257   0.34252   0.35026   0.35115
     Eigenvalues ---    0.35323   0.37682   0.57744   0.98406
 RFO step:  Lambda=-1.77084611D-02 EMin= 5.46291273D-03
 Linear search not attempted -- first point.
 Iteration  1 RMS(Cart)=  0.11037213 RMS(Int)=  0.00369220
 Iteration  2 RMS(Cart)=  0.00543697 RMS(Int)=  0.00013202
 Iteration  3 RMS(Cart)=  0.00000872 RMS(Int)=  0.00013179
 Iteration  4 RMS(Cart)=  0.00000000 RMS(Int)=  0.00013179
 ITry= 1 IFail=0 DXMaxC= 3.08D-01 DCOld= 1.00D+10 DXMaxT= 3.00D-01 DXLimC= 3.00D+00 Rises=F
 Variable       Old X    -DE/DX   Delta X   Delta X   Delta X     New X
                                 (Linear)    (Quad)   (Total)
    R1        2.52772  -0.00822   0.00000  -0.01382  -0.01382   2.51390
    R2        2.05632  -0.00472   0.00000  -0.01283  -0.01283   2.04349
    R3        2.05154  -0.00228   0.00000  -0.00615  -0.00615   2.04540
    R4        2.84045  -0.02623   0.00000  -0.07755  -0.07755   2.76290
    R5        2.05489  -0.00247   0.00000  -0.00669  -0.00669   2.04820
    R6        2.80207  -0.05958   0.00000  -0.16541  -0.16541   2.63666
    R7        2.10376  -0.02256   0.00000  -0.06630  -0.06630   2.03746
    R8        2.29284  -0.01571   0.00000  -0.01568  -0.01568   2.27716
    R9        2.01531  -0.00316   0.00000  -0.00800  -0.00800   2.00730
    A1        2.11154   0.00040   0.00000   0.00236   0.00226   2.11379
    A2        2.10733   0.00110   0.00000   0.00628   0.00618   2.11351
    A3        2.06415  -0.00147   0.00000  -0.00819  -0.00829   2.05586
    A4        2.10190   0.00687   0.00000   0.02907   0.02895   2.13085
    A5        2.07915   0.00174   0.00000   0.01498   0.01486   2.09401
    A6        2.10159  -0.00858   0.00000  -0.04318  -0.04329   2.05830
    A7        2.06307   0.00694   0.00000   0.02921   0.02920   2.09227
    A8        2.07615   0.00265   0.00000   0.01989   0.01989   2.09604
    A9        2.14347  -0.00958   0.00000  -0.04893  -0.04894   2.09453
   A10        3.14752  -0.00220   0.00000  -0.03470  -0.03470   3.11283
   A11        3.13934  -0.00048   0.00000  -0.02086  -0.02086   3.11848
   A12        3.14468  -0.00160   0.00000  -0.02525  -0.02525   3.11943
   A13        3.14006  -0.00037   0.00000  -0.01597  -0.01597   3.12409
    D1       -3.11988  -0.00082   0.00000  -0.02161  -0.02184   3.14146
    D2       -0.01364   0.00007   0.00000   0.00554   0.00578  -0.00786
    D3        0.00182   0.00043   0.00000   0.00512   0.00488   0.00670
    D4        3.10806   0.00132   0.00000   0.03227   0.03250   3.14057
    D5       -2.24033  -0.00314   0.00000  -0.13441  -0.13465  -2.37497
    D6        0.93410  -0.00328   0.00000  -0.13902  -0.13926   0.79483
    D7        0.93707  -0.00426   0.00000  -0.16312  -0.16288   0.77419
    D8       -2.17170  -0.00440   0.00000  -0.16773  -0.16749  -2.33919
         Item               Value     Threshold  Converged?
 Maximum Force            0.059584     0.000450     NO 
 RMS     Force            0.013476     0.000300     NO 
 Maximum Displacement     0.307542     0.001800     NO 
 RMS     Displacement     0.110176     0.001200     NO 
 Predicted change in Energy=-1.010647D-02
 Lowest energy point so far.  Saving SCF results.
 GradGradGradGradGradGradGradGradGradGradGradGradGradGradGradGradGradGrad

 Leave Link  103 at Mon Sep 28 11:12:52 2020, MaxMem=   268435456 cpu:               1.1 elap:               0.2
 (Enter /applis/site/cecic/gaussian16/B.01/nehalem/g16/l202.exe)
                          Input orientation:                          
 ---------------------------------------------------------------------
 Center     Atomic      Atomic             Coordinates (Angstroms)
 Number     Number       Type             X           Y           Z
 ---------------------------------------------------------------------
      1          6           0        0.001888    0.044341    0.015576
      2          6           0        0.040651   -0.055472    1.341558
      3          6           0        1.300424   -0.060582    2.083566
      4          6           0        1.492781   -0.974378    3.120258
      5          1           0        2.069580    0.657279    1.847897
      6          6           0        1.626375   -1.783897    4.002812
      7          1           0        1.720907   -2.509084    4.773187
      8          1           0       -0.939053    0.046402   -0.517327
      9          1           0        0.911515    0.119881   -0.566157
     10          1           0       -0.881513   -0.129177    1.906304
 ---------------------------------------------------------------------
                    Distance matrix (angstroms):
                    1          2          3          4          5
     1  C    0.000000
     2  C    1.330298   0.000000
     3  C    2.444134   1.462064   0.000000
     4  C    3.591602   2.473226   1.395261   0.000000
     5  H    2.829920   2.209286   1.078177   2.148000   0.000000
     6  C    4.677549   3.547429   2.599916   1.205019   3.286249
     7  H    5.666557   4.540875   3.661424   2.267055   4.324898
     8  H    1.081368   2.103722   3.433853   4.493087   3.875477
     9  H    1.082378   2.104407   2.684185   3.889078   2.730855
    10  H    2.094125   1.083862   2.190200   2.797378   3.054648
                    6          7          8          9         10
     6  C    0.000000
     7  H    1.062219   0.000000
     8  H    5.510269   6.449451   0.000000
     9  H    5.001087   6.006260   1.852669   0.000000
    10  H    3.663734   4.544839   2.430663   3.064317   0.000000
 Symmetry turned off by external request.
 Stoichiometry    C5H5(2)
 Framework group  C1[X(C5H5)]
 Deg. of freedom    24
 Full point group                 C1      NOp   1
 Rotational constants (GHZ):          27.0781795           2.5372204           2.4352184
 Leave Link  202 at Mon Sep 28 11:12:52 2020, MaxMem=   268435456 cpu:               0.4 elap:               0.1
 (Enter /applis/site/cecic/gaussian16/B.01/nehalem/g16/l301.exe)
 Standard basis: CC-pVTZ (5D, 7F)
 Ernie: Thresh=  0.10000D-02 Tol=  0.10000D-05 Strict=F.
 Ernie:  15 primitive shells out of 170 were deleted.
   220 basis functions,   345 primitive gaussians,   250 cartesian basis functions
    18 alpha electrons       17 beta electrons
       nuclear repulsion energy       132.0635820026 Hartrees.
 IExCor= 4336 DFT=T Ex+Corr=M062X ExCW=0 ScaHFX=  0.540000
 ScaDFX=  1.000000  1.000000  1.000000  1.000000 ScalE2=  1.000000  1.000000
 IRadAn=      5 IRanWt=     -1 IRanGd=            0 ICorTp=0 IEmpDi=  4
 NAtoms=   10 NActive=   10 NUniq=   10 SFac= 1.00D+00 NAtFMM=   60 NAOKFM=F Big=F
 Integral buffers will be    131072 words long.
 Raffenetti 2 integral format.
 Two-electron integral symmetry is turned off.
 Leave Link  301 at Mon Sep 28 11:12:52 2020, MaxMem=   268435456 cpu:               0.6 elap:               0.1
 (Enter /applis/site/cecic/gaussian16/B.01/nehalem/g16/l302.exe)
 NPDir=0 NMtPBC=     1 NCelOv=     1 NCel=       1 NClECP=     1 NCelD=      1
         NCelK=      1 NCelE2=     1 NClLst=     1 CellRange=     0.0.
 One-electron integrals computed using PRISM.
 NBasis=   220 RedAO= T EigKep=  4.35D-05  NBF=   220
 NBsUse=   220 1.00D-06 EigRej= -1.00D+00 NBFU=   220
 Precomputing XC quadrature grid using
 IXCGrd= 4 IRadAn=           5 IRanWt=          -1 IRanGd=           0 AccXCQ= 0.00D+00.
 Generated NRdTot=       0 NPtTot=           0 NUsed=           0 NTot=          32
 NSgBfM=   250   250   250   250   250 MxSgAt=    10 MxSgA2=    10.
 Leave Link  302 at Mon Sep 28 11:12:53 2020, MaxMem=   268435456 cpu:               1.8 elap:               0.3
 (Enter /applis/site/cecic/gaussian16/B.01/nehalem/g16/l303.exe)
 DipDrv:  MaxL=1.
 Leave Link  303 at Mon Sep 28 11:12:53 2020, MaxMem=   268435456 cpu:               0.6 elap:               0.1
 (Enter /applis/site/cecic/gaussian16/B.01/nehalem/g16/l401.exe)
 Initial guess from the checkpoint file:  "input.chk"
 B after Tr=     0.005586   -0.006179   -0.017118
         Rot=    0.999989    0.003786   -0.000708    0.002547 Ang=   0.53 deg.
 Guess basis will be translated and rotated to current coordinates.
 JPrj=2 DoOrth=T DoCkMO=T.
 Initial guess <Sx>= 0.0000 <Sy>= 0.0000 <Sz>= 0.5000 <S**2>= 0.7689 S= 0.5094
 Generating alternative initial guess.
 ExpMin= 1.03D-01 ExpMax= 8.24D+03 ExpMxC= 2.81D+02 IAcc=3 IRadAn=         5 AccDes= 0.00D+00
 Harris functional with IExCor= 1009 and IRadAn=       5 diagonalized for initial guess.
 HarFok:  IExCor= 1009 AccDes= 0.00D+00 IRadAn=         5 IDoV= 1 UseB2=F ITyADJ=14
 ICtDFT=  3500011 ScaDFX=  1.000000  1.000000  1.000000  1.000000
 FoFCou: FMM=F IPFlag=           0 FMFlag=      100000 FMFlg1=           0
         NFxFlg=           0 DoJE=T BraDBF=F KetDBF=T FulRan=T
         wScrn=  0.000000 ICntrl=       500 IOpCl=  0 I1Cent=   200000004 NGrid=           0
         NMat0=    1 NMatS0=      1 NMatT0=    0 NMatD0=    1 NMtDS0=    0 NMtDT0=    0
 Symmetry not used in FoFCou.
 Harris En= -193.332056752882    
 Leave Link  401 at Mon Sep 28 11:12:54 2020, MaxMem=   268435456 cpu:               6.8 elap:               0.9
 (Enter /applis/site/cecic/gaussian16/B.01/nehalem/g16/l502.exe)
 Two-electron integral symmetry not used.
 UHF open shell SCF:
 Using DIIS extrapolation, IDIIS=  1040.
 NGot=   268435456 LenX=   268306750 LenY=   268243809
 Requested convergence on RMS density matrix=1.00D-08 within 128 cycles.
 Requested convergence on MAX density matrix=1.00D-06.
 Requested convergence on             energy=1.00D-06.
 No special actions if energy rises.
 Fock matrices will be formed incrementally for  20 cycles.
 Integral accuracy reduced to 1.0D-05 until final iterations.

 Cycle   1  Pass 0  IDiag  1:
 FoFJK:  IHMeth= 1 ICntrl=       0 DoSepK=F KAlg= 0 I1Cent=           0 FoldK=F
 IRaf= 960000000 NMat=       1 IRICut=       1 DoRegI=T DoRafI=F ISym2E= 0 IDoP0=0 IntGTp=1.
 FoFCou: FMM=F IPFlag=           0 FMFlag=      100000 FMFlg1=           0
         NFxFlg=           0 DoJE=F BraDBF=F KetDBF=F FulRan=T
         wScrn=  0.000000 ICntrl=         0 IOpCl=  1 I1Cent=           0 NGrid=           0
         NMat0=    1 NMatS0=      1 NMatT0=    0 NMatD0=    1 NMtDS0=    0 NMtDT0=    0
 Symmetry not used in FoFCou.
 E= -193.368445554744    
 DIIS: error= 3.60D-03 at cycle   1 NSaved=   1.
 NSaved= 1 IEnMin= 1 EnMin= -193.368445554744     IErMin= 1 ErrMin= 3.60D-03
 ErrMax= 3.60D-03  0.00D+00 EMaxC= 1.00D-01 BMatC= 3.30D-02 BMatP= 3.30D-02
 IDIUse=3 WtCom= 9.64D-01 WtEn= 3.60D-02
 Coeff-Com:  0.100D+01
 Coeff-En:   0.100D+01
 Coeff:      0.100D+01
 Gap=     0.942 Goal=   None    Shift=    0.000
 Gap=     0.987 Goal=   None    Shift=    0.000
 GapD=    0.942 DampG=2.000 DampE=1.000 DampFc=2.0000 IDamp=-1.
 RMSDP=4.99D-04 MaxDP=1.51D-02              OVMax= 4.22D-02

 Cycle   2  Pass 0  IDiag  1:
 RMSU=  4.98D-04    CP:  1.00D+00
 E= -193.377249593422     Delta-E=       -0.008804038678 Rises=F Damp=F
 DIIS: error= 3.42D-03 at cycle   2 NSaved=   2.
 NSaved= 2 IEnMin= 2 EnMin= -193.377249593422     IErMin= 2 ErrMin= 3.42D-03
 ErrMax= 3.42D-03  0.00D+00 EMaxC= 1.00D-01 BMatC= 3.78D-03 BMatP= 3.30D-02
 IDIUse=3 WtCom= 9.66D-01 WtEn= 3.42D-02
 Coeff-Com:  0.918D-01 0.908D+00
 Coeff-En:   0.000D+00 0.100D+01
 Coeff:      0.887D-01 0.911D+00
 Gap=     0.283 Goal=   None    Shift=    0.000
 Gap=     0.275 Goal=   None    Shift=    0.000
 RMSDP=1.82D-04 MaxDP=4.86D-03 DE=-8.80D-03 OVMax= 3.03D-02

 Cycle   3  Pass 0  IDiag  1:
 RMSU=  1.82D-04    CP:  1.00D+00  1.02D+00
 E= -193.377352962950     Delta-E=       -0.000103369528 Rises=F Damp=F
 DIIS: error= 3.27D-03 at cycle   3 NSaved=   3.
 NSaved= 3 IEnMin= 3 EnMin= -193.377352962950     IErMin= 3 ErrMin= 3.27D-03
 ErrMax= 3.27D-03  0.00D+00 EMaxC= 1.00D-01 BMatC= 5.03D-03 BMatP= 3.78D-03
 IDIUse=3 WtCom= 1.49D-01 WtEn= 8.51D-01
 Coeff-Com: -0.473D-01 0.557D+00 0.491D+00
 Coeff-En:   0.000D+00 0.476D+00 0.524D+00
 Coeff:     -0.704D-02 0.488D+00 0.519D+00
 Gap=     0.284 Goal=   None    Shift=    0.000
 Gap=     0.271 Goal=   None    Shift=    0.000
 RMSDP=1.14D-04 MaxDP=3.84D-03 DE=-1.03D-04 OVMax= 2.13D-02

 Cycle   4  Pass 0  IDiag  1:
 RMSU=  7.84D-05    CP:  1.00D+00  1.08D+00  5.81D-01
 E= -193.378592919300     Delta-E=       -0.001239956350 Rises=F Damp=F
 DIIS: error= 1.28D-03 at cycle   4 NSaved=   4.
 NSaved= 4 IEnMin= 4 EnMin= -193.378592919300     IErMin= 4 ErrMin= 1.28D-03
 ErrMax= 1.28D-03  0.00D+00 EMaxC= 1.00D-01 BMatC= 5.49D-04 BMatP= 3.78D-03
 IDIUse=3 WtCom= 9.87D-01 WtEn= 1.28D-02
 Coeff-Com: -0.228D-01 0.384D-01 0.260D+00 0.725D+00
 Coeff-En:   0.000D+00 0.000D+00 0.207D-01 0.979D+00
 Coeff:     -0.225D-01 0.380D-01 0.257D+00 0.728D+00
 Gap=     0.284 Goal=   None    Shift=    0.000
 Gap=     0.270 Goal=   None    Shift=    0.000
 RMSDP=4.44D-05 MaxDP=1.40D-03 DE=-1.24D-03 OVMax= 7.73D-03

 Cycle   5  Pass 0  IDiag  1:
 RMSU=  2.87D-05    CP:  1.00D+00  1.10D+00  7.57D-01  1.07D+00
 E= -193.378783202047     Delta-E=       -0.000190282746 Rises=F Damp=F
 DIIS: error= 3.20D-04 at cycle   5 NSaved=   5.
 NSaved= 5 IEnMin= 5 EnMin= -193.378783202047     IErMin= 5 ErrMin= 3.20D-04
 ErrMax= 3.20D-04  0.00D+00 EMaxC= 1.00D-01 BMatC= 3.02D-05 BMatP= 5.49D-04
 IDIUse=3 WtCom= 9.97D-01 WtEn= 3.20D-03
 Coeff-Com:  0.502D-02-0.109D+00-0.361D-01 0.153D+00 0.987D+00
 Coeff-En:   0.000D+00 0.000D+00 0.000D+00 0.000D+00 0.100D+01
 Coeff:      0.500D-02-0.109D+00-0.360D-01 0.153D+00 0.987D+00
 Gap=     0.283 Goal=   None    Shift=    0.000
 Gap=     0.270 Goal=   None    Shift=    0.000
 RMSDP=2.88D-05 MaxDP=7.81D-04 DE=-1.90D-04 OVMax= 5.98D-03

 Cycle   6  Pass 0  IDiag  1:
 RMSU=  1.28D-05    CP:  1.00D+00  1.11D+00  8.42D-01  1.29D+00  1.36D+00
 E= -193.378820090530     Delta-E=       -0.000036888484 Rises=F Damp=F
 DIIS: error= 2.17D-04 at cycle   6 NSaved=   6.
 NSaved= 6 IEnMin= 6 EnMin= -193.378820090530     IErMin= 6 ErrMin= 2.17D-04
 ErrMax= 2.17D-04  0.00D+00 EMaxC= 1.00D-01 BMatC= 5.74D-06 BMatP= 3.02D-05
 IDIUse=3 WtCom= 9.98D-01 WtEn= 2.17D-03
 Coeff-Com:  0.360D-02-0.597D-02-0.407D-01-0.124D+00-0.283D-01 0.120D+01
 Coeff-En:   0.000D+00 0.000D+00 0.000D+00 0.000D+00 0.000D+00 0.100D+01
 Coeff:      0.359D-02-0.596D-02-0.406D-01-0.124D+00-0.282D-01 0.119D+01
 Gap=     0.283 Goal=   None    Shift=    0.000
 Gap=     0.269 Goal=   None    Shift=    0.000
 RMSDP=1.81D-05 MaxDP=6.14D-04 DE=-3.69D-05 OVMax= 4.38D-03

 Cycle   7  Pass 0  IDiag  1:
 RMSU=  6.57D-06    CP:  1.00D+00  1.11D+00  8.78D-01  1.41D+00  1.67D+00
                    CP:  1.60D+00
 E= -193.378831459854     Delta-E=       -0.000011369323 Rises=F Damp=F
 DIIS: error= 6.15D-05 at cycle   7 NSaved=   7.
 NSaved= 7 IEnMin= 7 EnMin= -193.378831459854     IErMin= 7 ErrMin= 6.15D-05
 ErrMax= 6.15D-05  0.00D+00 EMaxC= 1.00D-01 BMatC= 2.13D-06 BMatP= 5.74D-06
 IDIUse=1 WtCom= 1.00D+00 WtEn= 0.00D+00
 Coeff-Com: -0.683D-03 0.322D-01 0.415D-02-0.810D-01-0.323D+00 0.367D+00
 Coeff-Com:  0.100D+01
 Coeff:     -0.683D-03 0.322D-01 0.415D-02-0.810D-01-0.323D+00 0.367D+00
 Coeff:      0.100D+01
 Gap=     0.283 Goal=   None    Shift=    0.000
 Gap=     0.269 Goal=   None    Shift=    0.000
 RMSDP=1.05D-05 MaxDP=3.70D-04 DE=-1.14D-05 OVMax= 2.15D-03

 Cycle   8  Pass 0  IDiag  1:
 RMSU=  3.17D-06    CP:  1.00D+00  1.11D+00  8.97D-01  1.46D+00  1.86D+00
                    CP:  2.09D+00  1.31D+00
 E= -193.378834342851     Delta-E=       -0.000002882998 Rises=F Damp=F
 DIIS: error= 2.73D-05 at cycle   8 NSaved=   8.
 NSaved= 8 IEnMin= 8 EnMin= -193.378834342851     IErMin= 8 ErrMin= 2.73D-05
 ErrMax= 2.73D-05  0.00D+00 EMaxC= 1.00D-01 BMatC= 2.82D-07 BMatP= 2.13D-06
 IDIUse=1 WtCom= 1.00D+00 WtEn= 0.00D+00
 Coeff-Com: -0.817D-03 0.654D-02 0.117D-01 0.128D-01-0.466D-01-0.179D+00
 Coeff-Com:  0.151D+00 0.104D+01
 Coeff:     -0.817D-03 0.654D-02 0.117D-01 0.128D-01-0.466D-01-0.179D+00
 Coeff:      0.151D+00 0.104D+01
 Gap=     0.283 Goal=   None    Shift=    0.000
 Gap=     0.269 Goal=   None    Shift=    0.000
 RMSDP=3.67D-06 MaxDP=1.23D-04 DE=-2.88D-06 OVMax= 6.51D-04

 Initial convergence to 1.0D-05 achieved.  Increase integral accuracy.
 Cycle   9  Pass 1  IDiag  1:
 E= -193.378849044524     Delta-E=       -0.000014701672 Rises=F Damp=F
 DIIS: error= 2.89D-05 at cycle   1 NSaved=   1.
 NSaved= 1 IEnMin= 1 EnMin= -193.378849044524     IErMin= 1 ErrMin= 2.89D-05
 ErrMax= 2.89D-05  0.00D+00 EMaxC= 1.00D-01 BMatC= 1.37D-06 BMatP= 1.37D-06
 IDIUse=1 WtCom= 1.00D+00 WtEn= 0.00D+00
 Coeff-Com:  0.100D+01
 Coeff:      0.100D+01
 Gap=     0.283 Goal=   None    Shift=    0.000
 Gap=     0.269 Goal=   None    Shift=    0.000
 RMSDP=3.67D-06 MaxDP=1.23D-04 DE=-1.47D-05 OVMax= 1.39D-04

 Cycle  10  Pass 1  IDiag  1:
 RMSU=  1.72D-05    CP:  1.00D+00
 E= -193.378849219096     Delta-E=       -0.000000174572 Rises=F Damp=F
 DIIS: error= 9.41D-06 at cycle   2 NSaved=   2.
 NSaved= 2 IEnMin= 2 EnMin= -193.378849219096     IErMin= 2 ErrMin= 9.41D-06
 ErrMax= 9.41D-06  0.00D+00 EMaxC= 1.00D-01 BMatC= 3.33D-08 BMatP= 1.37D-06
 IDIUse=1 WtCom= 1.00D+00 WtEn= 0.00D+00
 Coeff-Com: -0.223D-01 0.102D+01
 Coeff:     -0.223D-01 0.102D+01
 Gap=     0.283 Goal=   None    Shift=    0.000
 Gap=     0.269 Goal=   None    Shift=    0.000
 RMSDP=1.11D-06 MaxDP=3.69D-05 DE=-1.75D-07 OVMax= 1.06D-04

 Cycle  11  Pass 1  IDiag  1:
 RMSU=  8.62D-07    CP:  1.00D+00  1.04D+00
 E= -193.378849237070     Delta-E=       -0.000000017974 Rises=F Damp=F
 DIIS: error= 7.62D-06 at cycle   3 NSaved=   3.
 NSaved= 3 IEnMin= 3 EnMin= -193.378849237070     IErMin= 3 ErrMin= 7.62D-06
 ErrMax= 7.62D-06  0.00D+00 EMaxC= 1.00D-01 BMatC= 2.45D-08 BMatP= 3.33D-08
 IDIUse=1 WtCom= 1.00D+00 WtEn= 0.00D+00
 Coeff-Com: -0.279D-01 0.462D+00 0.566D+00
 Coeff:     -0.279D-01 0.462D+00 0.566D+00
 Gap=     0.283 Goal=   None    Shift=    0.000
 Gap=     0.269 Goal=   None    Shift=    0.000
 RMSDP=3.07D-07 MaxDP=1.45D-05 DE=-1.80D-08 OVMax= 5.16D-05

 Cycle  12  Pass 1  IDiag  1:
 RMSU=  2.92D-07    CP:  1.00D+00  1.04D+00  1.10D+00
 E= -193.378849245999     Delta-E=       -0.000000008928 Rises=F Damp=F
 DIIS: error= 4.14D-06 at cycle   4 NSaved=   4.
 NSaved= 4 IEnMin= 4 EnMin= -193.378849245999     IErMin= 4 ErrMin= 4.14D-06
 ErrMax= 4.14D-06  0.00D+00 EMaxC= 1.00D-01 BMatC= 4.24D-09 BMatP= 2.45D-08
 IDIUse=1 WtCom= 1.00D+00 WtEn= 0.00D+00
 Coeff-Com:  0.695D-02-0.325D+00 0.335D-02 0.131D+01
 Coeff:      0.695D-02-0.325D+00 0.335D-02 0.131D+01
 Gap=     0.283 Goal=   None    Shift=    0.000
 Gap=     0.269 Goal=   None    Shift=    0.000
 RMSDP=4.36D-07 MaxDP=1.81D-05 DE=-8.93D-09 OVMax= 6.90D-05

 Cycle  13  Pass 1  IDiag  1:
 RMSU=  2.41D-07    CP:  1.00D+00  1.05D+00  1.44D+00  1.68D+00
 E= -193.378849252170     Delta-E=       -0.000000006171 Rises=F Damp=F
 DIIS: error= 2.27D-06 at cycle   5 NSaved=   5.
 NSaved= 5 IEnMin= 5 EnMin= -193.378849252170     IErMin= 5 ErrMin= 2.27D-06
 ErrMax= 2.27D-06  0.00D+00 EMaxC= 1.00D-01 BMatC= 1.54D-09 BMatP= 4.24D-09
 IDIUse=1 WtCom= 1.00D+00 WtEn= 0.00D+00
 Coeff-Com:  0.982D-02-0.252D+00-0.141D+00 0.584D+00 0.800D+00
 Coeff:      0.982D-02-0.252D+00-0.141D+00 0.584D+00 0.800D+00
 Gap=     0.283 Goal=   None    Shift=    0.000
 Gap=     0.269 Goal=   None    Shift=    0.000
 RMSDP=2.15D-07 MaxDP=8.25D-06 DE=-6.17D-09 OVMax= 3.31D-05

 Cycle  14  Pass 1  IDiag  1:
 RMSU=  8.31D-08    CP:  1.00D+00  1.05D+00  1.58D+00  2.12D+00  1.39D+00
 E= -193.378849253665     Delta-E=       -0.000000001496 Rises=F Damp=F
 DIIS: error= 1.29D-06 at cycle   6 NSaved=   6.
 NSaved= 6 IEnMin= 6 EnMin= -193.378849253665     IErMin= 6 ErrMin= 1.29D-06
 ErrMax= 1.29D-06  0.00D+00 EMaxC= 1.00D-01 BMatC= 4.62D-10 BMatP= 1.54D-09
 IDIUse=1 WtCom= 1.00D+00 WtEn= 0.00D+00
 Coeff-Com:  0.271D-02-0.183D-01-0.833D-01-0.152D+00 0.414D+00 0.837D+00
 Coeff:      0.271D-02-0.183D-01-0.833D-01-0.152D+00 0.414D+00 0.837D+00
 Gap=     0.283 Goal=   None    Shift=    0.000
 Gap=     0.269 Goal=   None    Shift=    0.000
 RMSDP=1.28D-07 MaxDP=5.74D-06 DE=-1.50D-09 OVMax= 1.97D-05

 Cycle  15  Pass 1  IDiag  1:
 RMSU=  4.11D-08    CP:  1.00D+00  1.05D+00  1.65D+00  2.36D+00  1.71D+00
                    CP:  1.11D+00
 E= -193.378849254087     Delta-E=       -0.000000000422 Rises=F Damp=F
 DIIS: error= 5.39D-07 at cycle   7 NSaved=   7.
 NSaved= 7 IEnMin= 7 EnMin= -193.378849254087     IErMin= 7 ErrMin= 5.39D-07
 ErrMax= 5.39D-07  0.00D+00 EMaxC= 1.00D-01 BMatC= 1.04D-10 BMatP= 4.62D-10
 IDIUse=1 WtCom= 1.00D+00 WtEn= 0.00D+00
 Coeff-Com: -0.255D-03 0.334D-01-0.201D-01-0.174D+00 0.689D-01 0.437D+00
 Coeff-Com:  0.655D+00
 Coeff:     -0.255D-03 0.334D-01-0.201D-01-0.174D+00 0.689D-01 0.437D+00
 Coeff:      0.655D+00
 Gap=     0.283 Goal=   None    Shift=    0.000
 Gap=     0.269 Goal=   None    Shift=    0.000
 RMSDP=3.84D-08 MaxDP=1.49D-06 DE=-4.22D-10 OVMax= 6.43D-06

 Cycle  16  Pass 1  IDiag  1:
 RMSU=  1.98D-08    CP:  1.00D+00  1.05D+00  1.66D+00  2.42D+00  1.80D+00
                    CP:  1.25D+00  1.18D+00
 E= -193.378849254149     Delta-E=       -0.000000000062 Rises=F Damp=F
 DIIS: error= 2.45D-07 at cycle   8 NSaved=   8.
 NSaved= 8 IEnMin= 8 EnMin= -193.378849254149     IErMin= 8 ErrMin= 2.45D-07
 ErrMax= 2.45D-07  0.00D+00 EMaxC= 1.00D-01 BMatC= 1.25D-11 BMatP= 1.04D-10
 IDIUse=1 WtCom= 1.00D+00 WtEn= 0.00D+00
 Coeff-Com: -0.711D-03 0.153D-01 0.104D-01-0.214D-01-0.760D-01-0.380D-01
 Coeff-Com:  0.192D+00 0.918D+00
 Coeff:     -0.711D-03 0.153D-01 0.104D-01-0.214D-01-0.760D-01-0.380D-01
 Coeff:      0.192D+00 0.918D+00
 Gap=     0.283 Goal=   None    Shift=    0.000
 Gap=     0.269 Goal=   None    Shift=    0.000
 RMSDP=2.06D-08 MaxDP=7.83D-07 DE=-6.17D-11 OVMax= 4.02D-06

 Cycle  17  Pass 1  IDiag  1:
 RMSU=  1.16D-08    CP:  1.00D+00  1.05D+00  1.67D+00  2.44D+00  1.84D+00
                    CP:  1.32D+00  1.40D+00  1.27D+00
 E= -193.378849254159     Delta-E=       -0.000000000010 Rises=F Damp=F
 DIIS: error= 1.03D-07 at cycle   9 NSaved=   9.
 NSaved= 9 IEnMin= 9 EnMin= -193.378849254159     IErMin= 9 ErrMin= 1.03D-07
 ErrMax= 1.03D-07  0.00D+00 EMaxC= 1.00D-01 BMatC= 2.33D-12 BMatP= 1.25D-11
 IDIUse=1 WtCom= 1.00D+00 WtEn= 0.00D+00
 Coeff-Com:  0.114D-03-0.963D-02 0.258D-02 0.481D-01-0.139D-01-0.103D+00
 Coeff-Com: -0.208D+00-0.484D-01 0.133D+01
 Coeff:      0.114D-03-0.963D-02 0.258D-02 0.481D-01-0.139D-01-0.103D+00
 Coeff:     -0.208D+00-0.484D-01 0.133D+01
 Gap=     0.283 Goal=   None    Shift=    0.000
 Gap=     0.269 Goal=   None    Shift=    0.000
 RMSDP=1.39D-08 MaxDP=4.62D-07 DE=-1.05D-11 OVMax= 2.79D-06

 Cycle  18  Pass 1  IDiag  1:
 RMSU=  4.42D-09    CP:  1.00D+00  1.05D+00  1.67D+00  2.45D+00  1.85D+00
                    CP:  1.37D+00  1.57D+00  1.66D+00  1.41D+00
 E= -193.378849254168     Delta-E=       -0.000000000009 Rises=F Damp=F
 DIIS: error= 3.11D-08 at cycle  10 NSaved=  10.
 NSaved=10 IEnMin=10 EnMin= -193.378849254168     IErMin=10 ErrMin= 3.11D-08
 ErrMax= 3.11D-08  0.00D+00 EMaxC= 1.00D-01 BMatC= 1.78D-13 BMatP= 2.33D-12
 IDIUse=1 WtCom= 1.00D+00 WtEn= 0.00D+00
 Coeff-Com:  0.813D-04-0.214D-02-0.161D-02 0.478D-02 0.855D-02 0.153D-03
 Coeff-Com: -0.296D-01-0.102D+00 0.583D-01 0.106D+01
 Coeff:      0.813D-04-0.214D-02-0.161D-02 0.478D-02 0.855D-02 0.153D-03
 Coeff:     -0.296D-01-0.102D+00 0.583D-01 0.106D+01
 Gap=     0.283 Goal=   None    Shift=    0.000
 Gap=     0.269 Goal=   None    Shift=    0.000
 RMSDP=3.03D-09 MaxDP=9.18D-08 DE=-8.87D-12 OVMax= 6.53D-07

 SCF Done:  E(UM062X) =  -193.378849254     A.U. after   18 cycles
            NFock= 18  Conv=0.30D-08     -V/T= 2.0059
 <Sx>= 0.0000 <Sy>= 0.0000 <Sz>= 0.5000 <S**2>= 0.7735 S= 0.5117
 <L.S>= 0.000000000000E+00
 KE= 1.922483921282D+02 PE=-7.120405733882D+02 EE= 1.943497500033D+02
 Annihilation of the first spin contaminant:
 S**2 before annihilation     0.7735,   after     0.7504
 Leave Link  502 at Mon Sep 28 11:13:41 2020, MaxMem=   268435456 cpu:             373.1 elap:              47.0
 (Enter /applis/site/cecic/gaussian16/B.01/nehalem/g16/l701.exe)
 ... and contract with generalized density number  0.
 Compute integral first derivatives.
 Leave Link  701 at Mon Sep 28 11:13:41 2020, MaxMem=   268435456 cpu:               1.3 elap:               0.2
 (Enter /applis/site/cecic/gaussian16/B.01/nehalem/g16/l702.exe)
 L702 exits ... SP integral derivatives will be done elsewhere.
 Leave Link  702 at Mon Sep 28 11:13:41 2020, MaxMem=   268435456 cpu:               0.6 elap:               0.1
 (Enter /applis/site/cecic/gaussian16/B.01/nehalem/g16/l703.exe)
 Integral derivatives from FoFJK, PRISM(SPDF).
 Compute integral first derivatives, UseDBF=F ICtDFT=           0.
 Calling FoFJK, ICntrl=      2127 FMM=F ISym2X=0 I1Cent= 0 IOpClX= 1 NMat=1 NMatS=1 NMatT=0.
 FoFJK:  IHMeth= 1 ICntrl=    2127 DoSepK=F KAlg= 0 I1Cent=           0 FoldK=F
 IRaf=         0 NMat=       1 IRICut=       1 DoRegI=T DoRafI=F ISym2E= 0 IDoP0=0 IntGTp=1.
 FoFCou: FMM=F IPFlag=           0 FMFlag=      100000 FMFlg1=         800
         NFxFlg=           0 DoJE=F BraDBF=F KetDBF=F FulRan=T
         wScrn=  0.000000 ICntrl=      2127 IOpCl=  1 I1Cent=           0 NGrid=           0
         NMat0=    1 NMatS0=      1 NMatT0=    0 NMatD0=    1 NMtDS0=    0 NMtDT0=    0
 Symmetry not used in FoFCou.
 Leave Link  703 at Mon Sep 28 11:13:47 2020, MaxMem=   268435456 cpu:              49.6 elap:               6.3
 (Enter /applis/site/cecic/gaussian16/B.01/nehalem/g16/l716.exe)
 Dipole        =-8.03657422D-02 5.04863798D-02-9.85580204D-02
 -------------------------------------------------------------------
 Center     Atomic                   Forces (Hartrees/Bohr)
 Number     Number              X              Y              Z
 -------------------------------------------------------------------
      1        6          -0.002916244    0.004115996   -0.003063293
      2        6           0.009941032    0.003591303    0.001947411
      3        6          -0.011208210   -0.006829794    0.006161057
      4        6          -0.001537069    0.014360151   -0.008800506
      5        1           0.003704770   -0.002594299   -0.003754641
      6        6           0.000215888   -0.007280667    0.007318996
      7        1           0.000958015    0.000332934    0.000051333
      8        1           0.000537667    0.000064087   -0.000463636
      9        1          -0.000241514    0.000004671   -0.000418705
     10        1           0.000545666   -0.005764381    0.001021985
 -------------------------------------------------------------------
 Cartesian Forces:  Max     0.014360151 RMS     0.005241236
[...]
                 (A) (A) (A) (A) (A) (A) (A) (A) (A) (A) (A) (A)
                 (A) (A) (A) (A) (A) (A) (A) (A) (A) (A) (A) (A)
                 (A) (A) (A) (A) (A) (A) (A) (A) (A) (A) (A) (A)
                 (A) (A) (A) (A) (A) (A) (A) (A) (A) (A) (A) (A)
                 (A) (A) (A) (A) (A) (A) (A) (A) (A) (A) (A) (A)
                 (A) (A) (A) (A) (A) (A) (A) (A) (A) (A) (A) (A)
                 (A) (A) (A)
 Beta  Orbitals:
       Occupied  (A) (A) (A) (A) (A) (A) (A) (A) (A) (A) (A) (A)
                 (A) (A) (A) (A) (A)
       Virtual   (A) (A) (A) (A) (A) (A) (A) (A) (A) (A) (A) (A)
                 (A) (A) (A) (A) (A) (A) (A) (A) (A) (A) (A) (A)
                 (A) (A) (A) (A) (A) (A) (A) (A) (A) (A) (A) (A)
                 (A) (A) (A) (A) (A) (A) (A) (A) (A) (A) (A) (A)
                 (A) (A) (A) (A) (A) (A) (A) (A) (A) (A) (A) (A)
                 (A) (A) (A) (A) (A) (A) (A) (A) (A) (A) (A) (A)
                 (A) (A) (A) (A) (A) (A) (A) (A) (A) (A) (A) (A)
                 (A) (A) (A) (A) (A) (A) (A) (A) (A) (A) (A) (A)
                 (A) (A) (A) (A) (A) (A) (A) (A) (A) (A) (A) (A)
                 (A) (A) (A) (A) (A) (A) (A) (A) (A) (A) (A) (A)
                 (A) (A) (A) (A) (A) (A) (A) (A) (A) (A) (A) (A)
                 (A) (A) (A) (A) (A) (A) (A) (A) (A) (A) (A) (A)
                 (A) (A) (A) (A) (A) (A) (A) (A) (A) (A) (A) (A)
                 (A) (A) (A) (A) (A) (A) (A) (A) (A) (A) (A) (A)
                 (A) (A) (A) (A) (A) (A) (A) (A) (A) (A) (A) (A)
                 (A) (A) (A) (A) (A) (A) (A) (A) (A) (A) (A) (A)
                 (A) (A) (A) (A) (A) (A) (A) (A) (A) (A) (A) (A)
                 (A) (A) (A) (A) (A) (A) (A) (A) (A) (A) (A) (A)
                 (A) (A) (A) (A) (A) (A) (A) (A) (A) (A) (A) (A)
                 (A) (A) (A) (A) (A) (A) (A) (A) (A) (A) (A) (A)
                 (A) (A) (A) (A) (A) (A) (A) (A) (A) (A) (A) (A)
                 (A) (A) (A) (A) (A) (A) (A) (A) (A) (A) (A) (A)
                 (A) (A) (A) (A) (A) (A) (A) (A) (A) (A) (A) (A)
                 (A) (A) (A) (A) (A) (A) (A) (A) (A) (A) (A) (A)
                 (A) (A) (A) (A) (A) (A) (A) (A) (A) (A) (A) (A)
                 (A) (A) (A) (A) (A) (A) (A) (A) (A) (A) (A) (A)
                 (A) (A) (A) (A) (A) (A) (A) (A) (A) (A) (A) (A)
                 (A) (A) (A) (A)
 The electronic state is 2-A.
 Alpha  occ. eigenvalues --  -11.26322 -11.23934 -11.23864 -11.23295 -11.22740
 Alpha  occ. eigenvalues --   -1.11050  -1.03892  -0.96459  -0.78901  -0.73127
 Alpha  occ. eigenvalues --   -0.68120  -0.62397  -0.57920  -0.52506  -0.50755
 Alpha  occ. eigenvalues --   -0.42226  -0.40358  -0.33039
 Alpha virt. eigenvalues --    0.02987   0.03193   0.03806   0.04929   0.05914
 Alpha virt. eigenvalues --    0.08688   0.08957   0.09610   0.09762   0.10223
 Alpha virt. eigenvalues --    0.10670   0.11430   0.12481   0.12750   0.13571
 Alpha virt. eigenvalues --    0.13676   0.15576   0.15899   0.16414   0.16952
 Alpha virt. eigenvalues --    0.18731   0.19237   0.20500   0.21650   0.22714
 Alpha virt. eigenvalues --    0.23989   0.25185   0.25516   0.26590   0.27271
 Alpha virt. eigenvalues --    0.27339   0.28786   0.29260   0.31254   0.31617
 Alpha virt. eigenvalues --    0.31924   0.33153   0.33637   0.33778   0.34448
 Alpha virt. eigenvalues --    0.34558   0.35892   0.37556   0.37938   0.39578
 Alpha virt. eigenvalues --    0.40867   0.41680   0.42043   0.43067   0.43411
 Alpha virt. eigenvalues --    0.43643   0.44007   0.44055   0.46111   0.46626
 Alpha virt. eigenvalues --    0.46799   0.47690   0.48391   0.48865   0.48882
 Alpha virt. eigenvalues --    0.50631   0.51089   0.51545   0.52748   0.53934
 Alpha virt. eigenvalues --    0.55464   0.57289   0.57459   0.59310   0.60359
 Alpha virt. eigenvalues --    0.63041   0.64555   0.64599   0.66345   0.68092
 Alpha virt. eigenvalues --    0.69130   0.72039   0.72143   0.73536   0.79143
 Alpha virt. eigenvalues --    0.79500   0.80172   0.81638   0.81914   0.83558
 Alpha virt. eigenvalues --    0.85642   0.86513   0.88126   0.88579   0.88793
 Alpha virt. eigenvalues --    0.90479   0.91538   0.92320   0.93322   0.93538
 Alpha virt. eigenvalues --    0.94058   0.94742   0.94980   0.96182   0.97417
 Alpha virt. eigenvalues --    0.97559   0.99539   0.99862   1.00871   1.01039
 Alpha virt. eigenvalues --    1.03712   1.03846   1.04582   1.05546   1.06908
 Alpha virt. eigenvalues --    1.07665   1.07835   1.08663   1.08765   1.10292
 Alpha virt. eigenvalues --    1.10503   1.10953   1.11660   1.12605   1.13409
 Alpha virt. eigenvalues --    1.14982   1.15652   1.17824   1.18929   1.19418
 Alpha virt. eigenvalues --    1.22008   1.22393   1.23325   1.23867   1.25744
 Alpha virt. eigenvalues --    1.27161   1.27276   1.28587   1.30842   1.34202
 Alpha virt. eigenvalues --    1.35505   1.38737   1.39078   1.41093   1.42858
 Alpha virt. eigenvalues --    1.44172   1.44801   1.46680   1.48975   1.50924
 Alpha virt. eigenvalues --    1.52917   1.55281   1.58194   1.59753   1.61287
 Alpha virt. eigenvalues --    1.62140   1.63213   1.66687   1.68372   1.70336
 Alpha virt. eigenvalues --    1.71421   1.73382   1.74626   1.74779   1.76766
 Alpha virt. eigenvalues --    1.78346   1.80884   1.82903   1.84116   1.86184
 Alpha virt. eigenvalues --    1.88028   1.88679   1.90342   1.90764   1.93231
 Alpha virt. eigenvalues --    1.96592   1.99549   1.99638   2.01905   2.04316
 Alpha virt. eigenvalues --    2.05344   2.07884   2.09168   2.11886   2.15124
 Alpha virt. eigenvalues --    2.16107   2.17321   2.20737   2.22623   2.22915
 Alpha virt. eigenvalues --    2.25195   2.26228   2.30675   2.30965   2.34605
 Alpha virt. eigenvalues --    2.35150   2.36060   2.45023   2.48298   2.51532
 Alpha virt. eigenvalues --    2.52918   2.60669   2.67606   2.77325   2.85332
 Alpha virt. eigenvalues --    2.85977   3.03171   3.03509   3.09947   3.12406
 Alpha virt. eigenvalues --    3.15133   3.18473   3.22707   3.23995   3.25347
 Alpha virt. eigenvalues --    3.27474   3.27860   3.28655   3.30988   3.35127
 Alpha virt. eigenvalues --    3.36001   3.36394   3.37022   3.38229   3.40969
 Alpha virt. eigenvalues --    3.42334   3.42515   3.44880   3.45350   3.47198
 Alpha virt. eigenvalues --    3.49025   3.50177   3.51779   3.55813   3.57961
 Alpha virt. eigenvalues --    3.58343   3.59539   3.64224   3.66084   3.67736
 Alpha virt. eigenvalues --    3.70759   3.72530   3.74252   3.76591   3.77739
 Alpha virt. eigenvalues --    3.79406   3.80262   3.80713   3.83143   3.83968
 Alpha virt. eigenvalues --    3.85798   3.88778   3.90961   3.92985   3.93056
 Alpha virt. eigenvalues --    3.97746   3.98168   4.02391   4.02800   4.04153
 Alpha virt. eigenvalues --    4.05020   4.07349   4.13483   4.17192   4.17788
 Alpha virt. eigenvalues --    4.18651   4.22739   4.23429   4.29782   4.31820
 Alpha virt. eigenvalues --    4.33165   4.33766   4.35668   4.37826   4.38943
 Alpha virt. eigenvalues --    4.40806   4.50389   4.51218   4.51283   4.60805
 Alpha virt. eigenvalues --    4.61663   4.63133   4.71572   4.73902   4.78641
 Alpha virt. eigenvalues --    4.81270   4.84432   4.84932   4.85373   4.88322
 Alpha virt. eigenvalues --    4.90208   4.90635   4.96122   5.01343   5.02924
 Alpha virt. eigenvalues --    5.04578   5.04809   5.07983   5.15088   5.18117
 Alpha virt. eigenvalues --    5.22823   5.29616   5.34024   5.37869   5.40971
 Alpha virt. eigenvalues --    5.40974   5.46501   5.48034   5.48942   5.51957
 Alpha virt. eigenvalues --    5.66956   5.67513   5.79078   5.82828   6.00265
 Alpha virt. eigenvalues --    6.12673   6.24425   6.32112   6.33789   6.54924
 Alpha virt. eigenvalues --    6.58865   6.62682   6.70251   6.78063   6.87367
 Alpha virt. eigenvalues --    7.13578   7.20143  15.47248  16.81982  17.51712
 Alpha virt. eigenvalues --   19.34330  20.94200
  Beta  occ. eigenvalues --  -11.24704 -11.24456 -11.24344 -11.22285 -11.22055
  Beta  occ. eigenvalues --   -1.09960  -1.03081  -0.90326  -0.78240  -0.72209
  Beta  occ. eigenvalues --   -0.67573  -0.61968  -0.57476  -0.52315  -0.46065
  Beta  occ. eigenvalues --   -0.39737  -0.38104
  Beta virt. eigenvalues --    0.03030   0.03233   0.03807   0.04932   0.05898
  Beta virt. eigenvalues --    0.06265   0.08433   0.09132   0.09458   0.09802
  Beta virt. eigenvalues --    0.10235   0.11266   0.11503   0.12538   0.13722
  Beta virt. eigenvalues --    0.13766   0.14130   0.15789   0.16003   0.17006
  Beta virt. eigenvalues --    0.17464   0.18983   0.19571   0.20539   0.21959
  Beta virt. eigenvalues --    0.22899   0.24072   0.25546   0.26431   0.26742
  Beta virt. eigenvalues --    0.27593   0.27664   0.29273   0.29424   0.31706
  Beta virt. eigenvalues --    0.32192   0.32384   0.33961   0.34040   0.34518
  Beta virt. eigenvalues --    0.34731   0.36364   0.36796   0.38173   0.39908
  Beta virt. eigenvalues --    0.40109   0.41467   0.41701   0.42198   0.42503
  Beta virt. eigenvalues --    0.43805   0.43916   0.44273   0.44364   0.46074
  Beta virt. eigenvalues --    0.46574   0.46844   0.47909   0.48583   0.49093
  Beta virt. eigenvalues --    0.49178   0.50988   0.51431   0.52351   0.53014
  Beta virt. eigenvalues --    0.54105   0.55601   0.57648   0.57732   0.60572
  Beta virt. eigenvalues --    0.61083   0.63136   0.64745   0.66085   0.66849
  Beta virt. eigenvalues --    0.68870   0.69250   0.72232   0.73673   0.74701
  Beta virt. eigenvalues --    0.78789   0.80158   0.80402   0.81682   0.83786
  Beta virt. eigenvalues --    0.84144   0.85806   0.86608   0.88359   0.88962
  Beta virt. eigenvalues --    0.89191   0.90424   0.92010   0.92810   0.93470
  Beta virt. eigenvalues --    0.93618   0.94261   0.94713   0.95115   0.96462
  Beta virt. eigenvalues --    0.97505   0.97785   0.99841   1.00529   1.01670
  Beta virt. eigenvalues --    1.02024   1.04143   1.04185   1.04844   1.06410
  Beta virt. eigenvalues --    1.07405   1.07980   1.08315   1.09247   1.09283
  Beta virt. eigenvalues --    1.10368   1.11130   1.11383   1.12508   1.12942
  Beta virt. eigenvalues --    1.13884   1.15209   1.16570   1.17836   1.19049
  Beta virt. eigenvalues --    1.20828   1.22471   1.23077   1.23287   1.24110
  Beta virt. eigenvalues --    1.26026   1.27200   1.27952   1.29744   1.31350
  Beta virt. eigenvalues --    1.34121   1.35832   1.38935   1.39437   1.41591
  Beta virt. eigenvalues --    1.43048   1.44627   1.45161   1.47134   1.49350
  Beta virt. eigenvalues --    1.52140   1.53241   1.55158   1.58306   1.60119
  Beta virt. eigenvalues --    1.62139   1.62622   1.64012   1.66850   1.68475
  Beta virt. eigenvalues --    1.71247   1.72532   1.73870   1.75048   1.75443
  Beta virt. eigenvalues --    1.77096   1.78836   1.81158   1.83514   1.84759
  Beta virt. eigenvalues --    1.86387   1.88517   1.88914   1.90711   1.91423
  Beta virt. eigenvalues --    1.94194   1.96288   1.99342   2.00004   2.02679
  Beta virt. eigenvalues --    2.04873   2.05259   2.08493   2.09335   2.12560
  Beta virt. eigenvalues --    2.15513   2.17396   2.17474   2.21673   2.22465
  Beta virt. eigenvalues --    2.23184   2.25421   2.26568   2.31129   2.31570
  Beta virt. eigenvalues --    2.34944   2.36069   2.36366   2.45424   2.48556
  Beta virt. eigenvalues --    2.52593   2.53237   2.60854   2.67948   2.77420
  Beta virt. eigenvalues --    2.86181   2.86204   3.03578   3.04673   3.10259
  Beta virt. eigenvalues --    3.12697   3.15188   3.19615   3.23270   3.24340
  Beta virt. eigenvalues --    3.25712   3.27690   3.28582   3.29951   3.31349
  Beta virt. eigenvalues --    3.35880   3.36714   3.37280   3.37788   3.39132
  Beta virt. eigenvalues --    3.42890   3.43240   3.44012   3.45562   3.45873
  Beta virt. eigenvalues --    3.47587   3.49962   3.50997   3.52681   3.57457
  Beta virt. eigenvalues --    3.58066   3.59260   3.60873   3.64570   3.66591
  Beta virt. eigenvalues --    3.68526   3.71834   3.73212   3.74840   3.76300
  Beta virt. eigenvalues --    3.78299   3.79057   3.81097   3.81246   3.83538
  Beta virt. eigenvalues --    3.84514   3.85327   3.89194   3.91085   3.92888
  Beta virt. eigenvalues --    3.93800   3.98177   3.98980   4.02813   4.03247
  Beta virt. eigenvalues --    4.04568   4.05448   4.07163   4.13630   4.17546
  Beta virt. eigenvalues --    4.17997   4.19412   4.23030   4.23923   4.30275
  Beta virt. eigenvalues --    4.32801   4.33486   4.34884   4.36245   4.38300
  Beta virt. eigenvalues --    4.39437   4.40910   4.50787   4.51326   4.51558
  Beta virt. eigenvalues --    4.61262   4.61943   4.63254   4.71976   4.74002
  Beta virt. eigenvalues --    4.78729   4.81536   4.84598   4.85060   4.85643
  Beta virt. eigenvalues --    4.88449   4.90614   4.90625   4.96187   5.01651
  Beta virt. eigenvalues --    5.02851   5.04824   5.05014   5.07964   5.15389
  Beta virt. eigenvalues --    5.17969   5.22942   5.29614   5.34150   5.38676
  Beta virt. eigenvalues --    5.41046   5.41566   5.46588   5.48773   5.49025
  Beta virt. eigenvalues --    5.52105   5.67591   5.67699   5.79265   5.82913
  Beta virt. eigenvalues --    6.00381   6.12802   6.24588   6.32278   6.34025
  Beta virt. eigenvalues --    6.55015   6.59309   6.62853   6.70484   6.78088
  Beta virt. eigenvalues --    6.87468   7.13700   7.20254  15.46995  16.82831
  Beta virt. eigenvalues --   17.52007  19.34793  20.94530
          Condensed to atoms (all electrons):
               1          2          3          4          5          6
     1  C    6.563402   0.026849  -0.252531   0.014406   0.010399  -0.014444
     2  C    0.026849   6.074286  -0.153018  -0.128321   0.043272   0.128593
     3  C   -0.252531  -0.153018   6.723783   0.064750   0.448042  -0.707968
     4  C    0.014406  -0.128321   0.064750   6.306687  -0.175399  -1.284242
     5  H    0.010399   0.043272   0.448042  -0.175399   0.461100  -0.013454
     6  C   -0.014444   0.128593  -0.707968  -1.284242  -0.013454   8.994567
     7  H   -0.000186   0.008760  -0.038774  -0.108823  -0.000184   0.462477
     8  H    0.251231  -0.057170   0.036773   0.007448  -0.002027   0.000185
     9  H    0.475264   0.003274  -0.061056   0.001687   0.002295   0.001813
    10  H   -0.049412   0.337045   0.022414   0.007078   0.006070  -0.051397
               7          8          9         10
     1  C   -0.000186   0.251231   0.475264  -0.049412
     2  C    0.008760  -0.057170   0.003274   0.337045
     3  C   -0.038774   0.036773  -0.061056   0.022414
     4  C   -0.108823   0.007448   0.001687   0.007078
     5  H   -0.000184  -0.002027   0.002295   0.006070
     6  C    0.462477   0.000185   0.001813  -0.051397
     7  H    0.237857  -0.000061   0.000210  -0.001668
     8  H   -0.000061   0.472851  -0.086436  -0.084607
     9  H    0.000210  -0.086436   0.324128   0.030993
    10  H   -0.001668  -0.084607   0.030993   0.601049
          Atomic-Atomic Spin Densities.
               1          2          3          4          5          6
     1  C    0.936731  -0.058444  -0.040347  -0.004217  -0.003643   0.000426
     2  C   -0.058444  -0.782453   0.013738   0.059028   0.026473  -0.021867
     3  C   -0.040347   0.013738   1.166824   0.008964  -0.045468  -0.085788
     4  C   -0.004217   0.059028   0.008964  -1.059628   0.037299   0.096517
     5  H   -0.003643   0.026473  -0.045468   0.037299  -0.081622  -0.017957
     6  C    0.000426  -0.021867  -0.085788   0.096517  -0.017957   0.993569
     7  H    0.000472  -0.000061   0.002163   0.051574   0.000108  -0.078165
     8  H   -0.007568  -0.010427   0.010181   0.001187   0.000016   0.000575
     9  H   -0.019606   0.014044  -0.012627   0.000782   0.001395  -0.000119
    10  H   -0.013086   0.109536  -0.050674  -0.003796   0.003433  -0.003459
               7          8          9         10
     1  C    0.000472  -0.007568  -0.019606  -0.013086
     2  C   -0.000061  -0.010427   0.014044   0.109536
     3  C    0.002163   0.010181  -0.012627  -0.050674
     4  C    0.051574   0.001187   0.000782  -0.003796
     5  H    0.000108   0.000016   0.001395   0.003433
     6  C   -0.078165   0.000575  -0.000119  -0.003459
     7  H   -0.052547   0.000048   0.000002   0.000530
     8  H    0.000048  -0.041376   0.000307   0.007419
     9  H    0.000002   0.000307  -0.032023  -0.001662
    10  H    0.000530   0.007419  -0.001662   0.018049
 Mulliken charges and spin densities:
               1          2
     1  C   -1.024978   0.790719
     2  C   -0.283569  -0.650432
     3  C   -0.082414   0.966968
     4  C    1.294731  -0.812290
     5  H    0.219887  -0.079965
     6  C   -1.516130   0.883733
     7  H    0.440393  -0.075877
     8  H    0.461814  -0.039637
     9  H    0.307829  -0.049507
    10  H    0.182436   0.066289
 Sum of Mulliken charges =  -0.00000   1.00000
 Mulliken charges and spin densities with hydrogens summed into heavy atoms:
               1          2
     1  C   -0.255334   0.701575
     2  C   -0.101133  -0.584143
     3  C    0.137472   0.887003
     4  C    1.294731  -0.812290
     6  C   -1.075736   0.807856
 Electronic spatial extent (au):  <R**2>=            523.4146
 Charge=             -0.0000 electrons
 Dipole moment (field-independent basis, Debye):
    X=              0.4147    Y=             -0.0271    Z=              0.0002  Tot=              0.4156
 Quadrupole moment (field-independent basis, Debye-Ang):
   XX=            -24.3337   YY=            -28.7136   ZZ=            -33.8086
   XY=              1.4990   XZ=             -0.0008   YZ=              0.0001
 Traceless Quadrupole moment (field-independent basis, Debye-Ang):
   XX=              4.6182   YY=              0.2384   ZZ=             -4.8567
   XY=              1.4990   XZ=             -0.0008   YZ=              0.0001
 Octapole moment (field-independent basis, Debye-Ang**2):
  XXX=            -16.0359  YYY=              1.3801  ZZZ=              0.0002  XYY=              5.5363
  XXY=             -7.4474  XXZ=              0.0097  XZZ=              0.4562  YZZ=              0.1069
  YYZ=             -0.0012  XYZ=              0.0023
 Hexadecapole moment (field-independent basis, Debye-Ang**3):
 XXXX=           -498.4512 YYYY=            -70.1641 ZZZZ=            -40.7862 XXXY=             22.5888
 XXXZ=             -0.0163 YYYX=              0.9720 YYYZ=              0.0001 ZZZX=             -0.0006
 ZZZY=              0.0002 XXYY=           -116.4415 XXZZ=           -127.1744 YYZZ=            -20.6955
 XXYZ=             -0.0009 YYXZ=              0.0001 ZZXY=              0.5100
 N-N= 1.319858240115D+02 E-N=-7.112819174719D+02  KE= 1.921229346408D+02
 Leave Link  601 at Mon Sep 28 15:38:16 2020, MaxMem=   327680000 cpu:               3.2 elap:               0.7
 (Enter /applis/site/cecic/gaussian16/B.01/nehalem/g16/l9999.exe)
 1\1\GINC-DAHU74\SP\UCCSD(T)-FC\Aug-CC-pVTZ\C5H5(2)\TINACCIL\28-Sep-202
 0\0\\#P CCSD(T)/aug-cc-pvtz geom=allcheck guess=read\\Title\\0,2\C,0,-
 0.0482648222,0.3224316843,0.0414864008\C,0,0.0975658469,-0.3063194811,
 1.2353574158\C,0,1.3188903537,-0.3895604313,1.9255996633\C,0,1.4605850
 856,-1.0389617713,3.1535164779\H,0,2.19923567,0.0694520802,1.492250522
 3\C,0,1.5889433468,-1.5990374862,4.2154433777\H,0,1.7002437437,-2.0924
 3531,5.1495362618\H,0,-1.0034984153,0.3656285327,-0.4591324076\H,0,0.7
 933820186,0.7996173918,-0.4430198249\H,0,-0.7635279568,-0.7755036822,1
 .6966351804\\Version=ES64L-G16RevB.01\State=2-A\HF=-192.2226904\MP2=-1
 92.9635221\MP3=-193.0003701\MP4D=-193.0173771\MP4DQ=-192.9967668\PUHF=
 -192.2514961\PMP2-0=-192.9886743\PMP3-0=-193.0196819\MP4SDQ=-193.00734
 94\CCSD=-193.0157698\CCSD(T)=-193.0560395\S2=1.111644\S2-1=1.005169\S2
 A=0.851695\RMSD=5.001e-09\PG=C01 [X(C5H5)]\\@


 IF IT'S NOT TRUE, IT'S WELL INVENTED -- DANTE
 Job cpu time:       1 days  8 hours 37 minutes 36.4 seconds.
 Elapsed time:       0 days  4 hours 11 minutes 57.3 seconds.
 File lengths (MBytes):  RWF=  46131 Int=      0 D2E=      0 Chk=     13 Scr=      1
 Normal termination of Gaussian 16 at Mon Sep 28 15:38:16 2020.
