4
 energy: -8.903973245024 gnorm: 0.000200174944 xtb: 6.2.2 (9d81278992624c895f80dd42a50cac0aa55982e2)
O         0.85865217633119   -0.04190372515145    0.38850701462546
O        -0.85864650785003    0.04216600244101   -0.38849033790307
H         1.33548112060319    0.00140358877594   -0.44589442293557
H        -1.33548578907912   -0.00166486607074    0.44587774620794
