$hessian                                                                        
        0.2225324451   0.0052717944  -0.1525642162  -0.1003397992   0.0048074736
       -0.0423570027  -0.1151791495  -0.0103203415   0.1979101488  -0.0070134964
        0.0002410736  -0.0029889299
        0.0052717944   0.0060820465  -0.0206973116   0.0048158347   0.0045849176
        0.0030343547  -0.0098656635  -0.0058265188   0.0181369362  -0.0002219656
       -0.0048404452  -0.0004739792
       -0.1525642162  -0.0206973116   0.3797064149  -0.0423566566   0.0030245069
       -0.0291398006   0.1906879197   0.0182848210  -0.3538754720   0.0042329531
       -0.0006120163   0.0033088577
       -0.1003397992   0.0048158347  -0.0423566566   0.2225375765   0.0053998864
       -0.1525604409  -0.0070136079   0.0002353341  -0.0029891737  -0.1151841693
       -0.0104510552   0.1979062711
        0.0048074736   0.0045849176   0.0030245069   0.0053998864   0.0061038438
       -0.0209081623  -0.0002219621  -0.0048401726  -0.0004678882  -0.0099853979
       -0.0058485888   0.0183515436
       -0.0423570027   0.0030343547  -0.0291398006  -0.1525604409  -0.0209081623
        0.3796797184   0.0042327931  -0.0006205359   0.0033087144   0.1906846505
        0.0184943435  -0.3538486322
       -0.1151791495  -0.0098656635   0.1906879197  -0.0070136079  -0.0002219621
        0.0042327931   0.1240514391   0.0099066665  -0.1941543126  -0.0018586817
        0.0001809591  -0.0007664002
       -0.0103203415  -0.0058265188   0.0182848210   0.0002353341  -0.0048401726
       -0.0006205359   0.0099066665   0.0058211738  -0.0180692179   0.0001783409
        0.0048455177   0.0004049328
        0.1979101488   0.0181369362  -0.3538754720  -0.0029891737  -0.0004678882
        0.0033087144  -0.1941543126  -0.0180692179   0.3516161557  -0.0007666625
        0.0004001700  -0.0010493981
       -0.0070134964  -0.0002219656   0.0042329531  -0.1151841693  -0.0099853979
        0.1906846505  -0.0018586817   0.0001783409  -0.0007666625   0.1240563473
        0.0100290225  -0.1941509411
        0.0002410736  -0.0048404452  -0.0006120163  -0.0104510552  -0.0058485888
        0.0184943435   0.0001809591   0.0048455177   0.0004001700   0.0100290225
        0.0058435163  -0.0182824972
       -0.0029889299  -0.0004739792   0.0033088577   0.1979062711   0.0183515436
       -0.3538486322  -0.0007664002   0.0004049328  -0.0010493981  -0.1941509411
       -0.0182824972   0.3515891726
