[Molden Format]
[Title]
[Atoms] AU
O      1     8  0.16226172990336E+01 -0.79186556790912E-01  0.73417178702172E+00
O      2     8 -0.16226065871576E+01  0.79682188990912E-01 -0.73414027258668E+00
H      3     1  0.25236933284004E+01  0.26523981320317E-02 -0.84261826166825E+00
H      4     1 -0.25237021505405E+01 -0.31461406159809E-02  0.84258674722331E+00
[GTO]
           1 0
 s           4   1.0000000000000000     
   69.137961906196551      -0.20478756370077797     
   11.906129132707308      -0.24997023136827334     
  0.95670827744340703       0.40025880240639616     
  0.36462520496073686       0.15952206667693555     
 p           4   1.0000000000000000     
   8.2124193257781641        1.1321556799186829     
   2.1293576997098116        1.0476840782254817     
  0.75066448202360914       0.54956508217158984     
  0.29885246543283073        8.2908486592766617E-002

           2 0
 s           4   1.0000000000000000     
   69.137961906196551      -0.20478756370077797     
   11.906129132707308      -0.24997023136827334     
  0.95670827744340703       0.40025880240639616     
  0.36462520496073686       0.15952206667693555     
 p           4   1.0000000000000000     
   8.2124193257781641        1.1321556799186829     
   2.1293576997098116        1.0476840782254817     
  0.75066448202360914       0.54956508217158984     
  0.29885246543283073        8.2908486592766617E-002

           3 0
 s           3   1.0000000000000000     
   3.3702276975336001       0.27359110588908298     
  0.61389118221497996       0.26460540653860526     
  0.16614291148415999        8.2465947534082318E-002

           4 0
 s           3   1.0000000000000000     
   3.3702276975336001       0.27359110588908298     
  0.61389118221497996       0.26460540653860526     
  0.16614291148415999        8.2465947534082318E-002

[MO]
Sym=     1a
Ene=  -0.69690837014069351     
Spin= Alpha
Occup=     2.00000000
           1 -0.60558428269260156     
           2   3.5435277864449485E-002
           3  -4.6634064209861237E-003
           4   6.2464142756619129E-002
           5 -0.60558663807677693     
           6  -3.5433716817521617E-002
           7   4.7227806292342777E-003
           8  -6.2460535382839466E-002
           9 -0.13981548623788168     
          10 -0.13981613902183507     
Sym=     2a
Ene=  -0.69026540648640966     
Spin= Alpha
Occup=     2.00000000
           1  0.61346375498393013     
           2   9.7877160052119883E-002
           3   6.5038080466826821E-004
           4  -4.1575812140119350E-002
           5 -0.61346139961152779     
           6   9.7878479833472587E-002
           7   7.0798942633140791E-004
           8  -4.1571900836622995E-002
           9  0.16490413396207618     
          10 -0.16490360112006064     
Sym=     3a
Ene=  -0.58736217316247286     
Spin= Alpha
Occup=     2.00000000
           1 -0.29444630829800428     
           2  0.22265803355291935     
           3   2.6379307499243207E-002
           4 -0.48572293536884387     
           5  0.29444653510447055     
           6  0.22266170857468529     
           7   2.6556631666478835E-002
           8 -0.48571205450343874     
           9  0.25182720974004036     
          10 -0.25182738560628376     
Sym=     4a
Ene=  -0.56329539656721395     
Spin= Alpha
Occup=     2.00000000
           1 -0.16163888084908978     
           2  0.52264226539465586     
           3   6.3178712622687884E-003
           4 -0.26723319391261202     
           5 -0.16163872525276907     
           6 -0.52264984316907659     
           7  -6.6991217152232215E-003
           8  0.26720865619439549     
           9  0.24837998071905715     
          10  0.24837979381416261     
Sym=     5a
Ene=  -0.53964149993758714     
Spin= Alpha
Occup=     2.00000000
           1 -0.21666047983377176     
           2 -0.37117351357010991     
           3   4.0497016470410138E-002
           4 -0.52097144149750330     
           5 -0.21666031439946776     
           6  0.37116701655212120     
           7  -4.0832022718390981E-002
           8  0.52094988644511719     
           9  0.12281917526017450     
          10  0.12281905865057442     
Sym=     6a
Ene=  -0.50205666509333424     
Spin= Alpha
Occup=     1.99999998
           1  -2.6399891046624542E-005
           2   1.4080089172946165E-002
           3  0.69521820286592351     
           4   4.4027497263599717E-002
           5  -2.6439089807232382E-005
           6   1.3902054663042810E-002
           7  0.69518803262327367     
           8   4.4566638531018728E-002
           9   4.6746477098429647E-005
          10   4.6744599262121668E-005
Sym=     7a
Ene=  -0.46876593441039760     
Spin= Alpha
Occup=     1.00000002
           1   2.9618257982317800E-005
           2   1.4483570532501237E-002
           3  0.71634524642757691     
           4   4.5517773575341945E-002
           5  -2.9583450519909503E-005
           6  -1.4349265959087696E-002
           7 -0.71633131199072198     
           8  -4.5769745054047135E-002
           9  -2.2655000336045427E-005
          10   2.2656724585721716E-005
Sym=     8a
Ene=  -0.38970033450730657     
Spin= Alpha
Occup=     1.00000000
           1 -0.14624185301300660     
           2  0.66506376528423383     
           3  -3.6174757807481271E-002
           4  0.35777258714250193     
           5  0.14624183930769577     
           6  0.66506346435267005     
           7  -3.6187420095759634E-002
           8  0.35777163974869020     
           9   1.6300095758175363E-002
          10  -1.6300060911422564E-002
Sym=     9a
Ene=   0.11555789901377755     
Spin= Alpha
Occup=     0.00000000
           1  0.46277268287841544     
           2  0.26128878960354418     
           3   2.6494686108096320E-002
           4 -0.50083319058266063     
           5  0.46277149524910360     
           6 -0.26129407087905043     
           7  -2.6811208562635341E-002
           8  0.50081162464406670     
           9 -0.82145551062949085     
          10 -0.82145300410725286     
Sym=    10a
Ene=   0.16692168337476346     
Spin= Alpha
Occup=     0.00000000
           1 -0.41823380645311797     
           2 -0.33394308878299700     
           3  -2.4265231852494625E-002
           4  0.48872447168564076     
           5  0.41823529974704426     
           6 -0.33394999247321744     
           7  -2.4573405934516863E-002
           8  0.48870641099450457     
           9  0.85098439811041371     
          10 -0.85098695319724693     
