      -----------------------------------------------------------      
     |                   =====================                   |     
     |                           x T B                           |     
     |                   =====================                   |     
     |                         S. Grimme                         |     
     |          Mulliken Center for Theoretical Chemistry        |     
     |                    University of Bonn                     |     
      -----------------------------------------------------------      

   * xtb version 6.2.2 (9d81278992624c895f80dd42a50cac0aa55982e2) compiled by '@Darwin' on 04/03/2020

   xtb is free software: you can redistribute it and/or modify it under
   the terms of the GNU Lesser General Public License as published by
   the Free Software Foundation, either version 3 of the License, or
   (at your option) any later version.
   
   xtb is distributed in the hope that it will be useful,
   but WITHOUT ANY WARRANTY; without even the implied warranty of
   MERCHANTABILITY or FITNESS FOR A PARTICULAR PURPOSE.  See the
   GNU Lesser General Public License for more details.
   
   Cite this work as:
   * S. Grimme, C. Bannwarth, P. Shushkov, J. Chem. Theory Comput., 2017,
     13, 1989-2009. DOI: 10.1021/acs.jctc.7b00118
   * C. Bannwarth, S. Ehlert and S. Grimme., J. Chem. Theory Comput., 2019,
     15, 1652-1671. DOI: 10.1021/acs.jctc.8b01176
   * P. Pracht, E. Caldeweyher, S. Ehlert, S. Grimme, ChemRxiv, 2019, preprint.
     DOI: 10.26434/chemrxiv.8326202.v1
   
   for DFT-D4:
   * E. Caldeweyher, C. Bannwarth and S. Grimme, J. Chem. Phys., 2017,
     147, 034112. DOI: 10.1063/1.4993215
   * E. Caldeweyher, S. Ehlert, A. Hansen, H. Neugebauer, S. Spicher,
     C. Bannwarth and S. Grimme, J. Chem. Phys., 2019, 150, 154122.
     DOI: 10.1063/1.5090222
   
   for sTDA-xTB:
   * S. Grimme and C. Bannwarth, J. Chem. Phys., 2016, 145, 054103.
     DOI: 10.1063/1.4959605
   
   in the mass-spec context:
   * V. Asgeirsson, C. Bauer and S. Grimme, Chem. Sci., 2017, 8, 4879.
     DOI: 10.1039/c7sc00601b
   
   for metadynamics refer to:
   * S. Grimme, J. Chem. Theory Comput., 2019, 155, 2847-2862
     DOI: 10.1021/acs.jctc.9b00143
   
   with help from (in alphabetical order)
   C. Bannwarth, F. Bohle, G. Brandenburg, E. Caldeweyher, M. Checinski,
   S. Dohm, S. Ehlert, S. Ehrlich, F. März, H. Neugebauer, J. Pisarek,
   P. Pracht, P. Shushkov, and S. Spicher.
   
 * started run on 2020/05/12 at 11:43:55.019     

           -------------------------------------------------
          |                Calculation Setup                |
           -------------------------------------------------

          program call               : xtb --input H2O2_0_S_2.input H2O2_0_S_2.xyz --ohess --molden --namespace H2O2_0_S_2 output.out
          calculation namespace      : H2O2_0_S_2
          coordinate file            : H2O2_0_S_2.xyz
          number of atoms            :                     4
          number of electrons        :                    14
          charge                     :                     0
          spin                       :                   1.0
          first test random number   :      0.26897154935254

   ID    Z sym.   atoms
    1    8 O      1, 2
    2    1 H      3, 4

           -------------------------------------------------
          |                 G F N 2 - x T B                 |
           -------------------------------------------------

        Reference                      10.1021/acs.jctc.8b01176
      * Hamiltonian:
        H0-scaling (s, p, d)           1.850000    2.230000    2.230000
        zeta-weighting                 0.500000
      * Dispersion:
        s8                             2.700000
        a1                             0.520000
        a2                             5.000000
        s9                             5.000000
      * Repulsion:
        kExp                           1.500000    1.000000
        rExp                           1.000000
      * Coulomb:
        alpha                          2.000000
        third order                    shell-resolved
        anisotropic                    true
        a3                             3.000000
        a5                             4.000000
        cn-shift                       1.200000
        cn-exp                         4.000000
        max-rad                        5.000000


          ...................................................
          :                      SETUP                      :
          :.................................................:
          :  # basis functions                  10          :
          :  # atomic orbitals                  10          :
          :  # shells                            6          :
          :  # electrons                        14          :
          :  max. iterations                   250          :
          :  Hamiltonian                  GFN2-xTB          :
          :  restarted?                      false          :
          :  GBSA solvation                  false          :
          :  PC potential                    false          :
          :  electronic temp.          300.0000000     K    :
          :  accuracy                    1.0000000          :
          :  -> integral cutoff          0.2500000E+02      :
          :  -> integral neglect         0.1000000E-07      :
          :  -> SCF convergence          0.1000000E-05 Eh   :
          :  -> wf. convergence          0.1000000E-03 e    :
          :  Broyden damping             0.4000000          :
          ...................................................

 iter      E             dE          RMSdq      gap      omega  full diag
   1     -8.6648512 -0.866485E+01  0.533E+00    3.06       0.0  T
   2     -8.6651552 -0.304042E-03  0.317E+00    2.99       1.0  T
   3     -8.6652972 -0.141923E-03  0.127E-01    2.89       1.0  T
   4     -8.6653057 -0.854268E-05  0.456E-02    2.92       1.1  T
   5     -8.6653068 -0.111598E-05  0.245E-02    2.92       2.0  T
   6     -8.6653071 -0.248409E-06  0.779E-04    2.91      64.2  T
   7     -8.6653071  0.216794E-09  0.414E-04    2.91     120.7  T

   *** convergence criteria satisfied after 7 iterations ***

         #    Occupation            Energy/Eh            Energy/eV
      -------------------------------------------------------------
         1        2.0000           -0.7435598             -20.2333
         2        2.0000           -0.7021458             -19.1064
         3        2.0000           -0.6259442             -17.0328
         4        2.0000           -0.6121651             -16.6579
         5        2.0000           -0.5727279             -15.5847
         6        2.0000           -0.4611689             -12.5490
         7        1.0000           -0.4412144             -12.0061
         8        1.0000           -0.0359862              -0.9792 (HOMO)
         9                          0.0710054               1.9322 (LUMO)
        10                          0.1234333               3.3588
      -------------------------------------------------------------
                  HL-Gap            0.1069916 Eh            2.9114 eV
             Fermi-level           -0.2168410 Eh           -5.9005 eV

 transition dipole moment (au) for excitation:           7           8
     X       Y       Z   
  -0.0010  -0.0499  -0.0032  total (au/Debye):    0.050   0.127
 dE (eV)             :   11.027
 oscillator strength :  0.95496E-03

 SCC (total)                   0 d,  0 h,  0 min,  0.002 sec
 SCC setup                      ...        0 min,  0.000 sec (  4.589%)
 Dispersion                     ...        0 min,  0.000 sec (  0.470%)
 integral evaluation            ...        0 min,  0.000 sec ( 21.562%)
 zeroth order Hamiltonian       ...        0 min,  0.000 sec (  0.567%)
 iterations                     ...        0 min,  0.001 sec ( 31.016%)
 molecular gradient             ...        0 min,  0.000 sec ( 22.018%)
 printout                       ...        0 min,  0.000 sec ( 19.309%)

         :::::::::::::::::::::::::::::::::::::::::::::::::::::
         ::                     SUMMARY                     ::
         :::::::::::::::::::::::::::::::::::::::::::::::::::::
         :: total energy              -8.637689819830 Eh    ::
         :: gradient norm              0.942987543793 Eh/a0 ::
         :: HOMO-LUMO gap              2.911389982298 eV    ::
         ::.................................................::
         :: SCC energy                -8.665307067374 Eh    ::
         :: -> isotropic ES            0.032595988084 Eh    ::
         :: -> anisotropic ES         -0.007851841957 Eh    ::
         :: -> anisotropic XC         -0.010324828165 Eh    ::
         :: -> dispersion             -0.000469350609 Eh    ::
         :: repulsion energy           0.027617244067 Eh    ::
         :: add. restraining           0.000000000000 Eh    ::
         :::::::::::::::::::::::::::::::::::::::::::::::::::::

      ----------------------------------------------------------- 
     |                   =====================                   |
     |                        A N C O P T                        |
     |                   =====================                   |
     |               Approximate Normal Coordinate               |
     |                Rational Function Optimizer                |
      ----------------------------------------------------------- 

          ...................................................
          :                      SETUP                      :
          :.................................................:
          :   optimization level            normal          :
          :   max. optcycles                   200          :
          :   ANC micro-cycles                  20          :
          :   degrees of freedom                 6          :
          :.................................................:
          :   RF solver                   davidson          :
          :   write xtbopt.log                true          :
          :   linear?                        false          :
          :   energy convergence         0.5000000E-05 Eh   :
          :   grad. convergence          0.1000000E-02 Eh/α :
          :   maximium RF displ.         1.0000000          :
          :   Hlow (freq-cutoff)         0.1000000E-01      :
          :   Hmax (freq-cutoff)         5.0000000          :
          :   S6 in model hess.         20.0000000          :
          ...................................................

generating ANC from model Hessian ...
Using Lindh-Hessian (1995)
 Shifting diagonal of input Hessian by    0.0000000000000000     
 Lowest  eigenvalues of input Hessian
   -0.000000    0.000000    0.000000    0.000000    0.000000    0.000000
    0.038674    0.219289    0.324351    1.156349    1.174508    1.604460
 Highest eigenvalues
    0.038674    0.219289    0.324351    1.156349    1.174508    1.604460


........................................................................
.............................. CYCLE    1 ..............................
........................................................................
   1     -8.6653071 -0.866531E+01  0.182E-04    2.91       0.0  T
   2     -8.6653071  0.412648E-11  0.157E-04    2.91     319.1  T
   3     -8.6653071 -0.482796E-10  0.622E-05    2.91     804.4  T
     SCC iter.                  ...        0 min,  0.000 sec
     gradient                   ...        0 min,  0.000 sec
 * total energy  :    -8.6376898 Eh     change       -0.2593515E-08 Eh
   gradient norm :     0.9429948 Eh/α   predicted     0.0000000E+00 (-100.00%)
   displ. norm   :     0.5299358 α      lambda       -0.4684600E+00
   maximum displ.:     0.4333569 α      in ANC's #6, #2, #4, ...

........................................................................
.............................. CYCLE    2 ..............................
........................................................................
   1     -8.8960557 -0.889606E+01  0.238E+00   11.41       0.0  T
   2     -8.8967116 -0.655912E-03  0.144E+00   11.22       1.0  T
   3     -8.8968955 -0.183827E-03  0.212E-01   11.03       1.0  T
   4     -8.8969183 -0.227841E-04  0.391E-02   11.09       1.3  T
   5     -8.8968859  0.323062E-04  0.945E-02   11.08       1.0  T
   6     -8.8969172 -0.312955E-04  0.228E-02   11.08       2.2  T
   7     -8.8969189 -0.164911E-05  0.149E-03   11.08      33.5  T
   8     -8.8969189 -0.468200E-09  0.176E-04   11.08     284.7  T
   9     -8.8969189 -0.868461E-11  0.791E-05   11.08     632.2  T
     SCC iter.                  ...        0 min,  0.001 sec
     gradient                   ...        0 min,  0.000 sec
 * total energy  :    -8.8687866 Eh     change       -0.2310968E+00 Eh
   gradient norm :     0.1602913 Eh/α   predicted    -0.3000092E+00 (  29.82%)
   displ. norm   :     0.3725606 α      lambda       -0.2414916E-01
   maximum displ.:     0.3576825 α      in ANC's #1, #6, #2, ...

........................................................................
.............................. CYCLE    3 ..............................
........................................................................
   1     -8.9162914 -0.891629E+01  0.911E-01   11.95       0.0  T
   2     -8.9163375 -0.461127E-04  0.561E-01   11.91       1.0  T
   3     -8.9163623 -0.247793E-04  0.508E-02   11.88       1.0  T
   4     -8.9163636 -0.128326E-05  0.160E-02   11.89       3.1  T
   5     -8.9163637 -0.655324E-07  0.337E-03   11.89      14.9  T
   6     -8.9163636  0.797813E-07  0.481E-03   11.89      10.4  T
   7     -8.9163637 -0.875739E-07  0.543E-04   11.89      92.0  T
   8     -8.9163637 -0.144754E-09  0.298E-05   11.89    1680.7  T
     SCC iter.                  ...        0 min,  0.000 sec
     gradient                   ...        0 min,  0.000 sec
 * total energy  :    -8.8878709 Eh     change       -0.1908429E-01 Eh
   gradient norm :     0.0942245 Eh/α   predicted    -0.1375055E-01 ( -27.95%)
   displ. norm   :     0.3635367 α      lambda       -0.1708581E-01
   maximum displ.:     0.3326859 α      in ANC's #1, #6, #2, ...

........................................................................
.............................. CYCLE    4 ..............................
........................................................................
   1     -8.9229359 -0.892294E+01  0.850E-01   11.97       0.0  T
   2     -8.9229636 -0.277254E-04  0.522E-01   11.95       1.0  T
   3     -8.9229833 -0.196391E-04  0.395E-02   11.94       1.3  T
   4     -8.9229839 -0.595538E-06  0.111E-02   11.94       4.5  T
   5     -8.9229839 -0.128726E-07  0.383E-03   11.94      13.1  T
   6     -8.9229836  0.337826E-06  0.974E-03   11.94       5.1  T
   7     -8.9229839 -0.373806E-06  0.376E-04   11.94     132.8  T
   8     -8.9229839 -0.828138E-11  0.173E-05   11.94    2890.8  T
     SCC iter.                  ...        0 min,  0.000 sec
     gradient                   ...        0 min,  0.000 sec
 * total energy  :    -8.8984645 Eh     change       -0.1059363E-01 Eh
   gradient norm :     0.0579020 Eh/α   predicted    -0.9671930E-02 (  -8.70%)
   displ. norm   :     0.1305951 α      lambda       -0.6815544E-02
   maximum displ.:     0.1174883 α      in ANC's #6, #4, #1, ...

........................................................................
.............................. CYCLE    5 ..............................
........................................................................
   1     -8.9378635 -0.893786E+01  0.374E-01   14.51       0.0  T
   2     -8.9379060 -0.424940E-04  0.227E-01   14.47       1.0  T
   3     -8.9379218 -0.158431E-04  0.571E-02   14.43       1.0  T
   4     -8.9379227 -0.875584E-06  0.103E-02   14.44       4.9  T
   5     -8.9379227 -0.586600E-08  0.130E-03   14.44      38.4  T
   6     -8.9379227  0.797879E-08  0.143E-03   14.44      34.9  T
   7     -8.9379227 -0.838547E-08  0.130E-04   14.44     384.3  T
   8     -8.9379227 -0.104361E-10  0.132E-05   14.44    3796.4  T
     SCC iter.                  ...        0 min,  0.000 sec
     gradient                   ...        0 min,  0.000 sec
 * total energy  :    -8.9009638 Eh     change       -0.2499262E-02 Eh
   gradient norm :     0.0241114 Eh/α   predicted    -0.3465892E-02 (  38.68%)
   displ. norm   :     0.1870167 α      lambda       -0.2573025E-02
   maximum displ.:     0.1837062 α      in ANC's #1, #6, #2, ...

........................................................................
.............................. CYCLE    6 ..............................
........................................................................
   1     -8.9315065 -0.893151E+01  0.388E-01   13.35       0.0  T
   2     -8.9315210 -0.145808E-04  0.241E-01   13.37       1.0  T
   3     -8.9315307 -0.964088E-05  0.311E-02   13.38       1.6  T
   4     -8.9315310 -0.345486E-06  0.683E-03   13.37       7.3  T
   5     -8.9315304  0.593886E-06  0.123E-02   13.37       4.1  T
   6     -8.9315310 -0.589798E-06  0.259E-03   13.37      19.3  T
   7     -8.9315310 -0.238022E-07  0.280E-04   13.37     178.4  T
   8     -8.9315310 -0.129745E-10  0.176E-05   13.37    2844.9  T
     SCC iter.                  ...        0 min,  0.000 sec
     gradient                   ...        0 min,  0.000 sec
 * total energy  :    -8.9022585 Eh     change       -0.1294676E-02 Eh
   gradient norm :     0.0238755 Eh/α   predicted    -0.1331510E-02 (   2.85%)
   displ. norm   :     0.0338635 α      lambda       -0.3526066E-03
   maximum displ.:     0.0274164 α      in ANC's #1, #4, #2, ...

........................................................................
.............................. CYCLE    7 ..............................
........................................................................
   1     -8.9327635 -0.893276E+01  0.634E-02   13.52       0.0  T
   2     -8.9327639 -0.432769E-06  0.395E-02   13.52       1.3  T
   3     -8.9327642 -0.255309E-06  0.519E-03   13.52       9.6  T
   4     -8.9327642 -0.949170E-08  0.140E-03   13.52      35.7  T
   5     -8.9327641  0.563845E-07  0.375E-03   13.52      13.3  T
   6     -8.9327642 -0.573884E-07  0.168E-04   13.52     297.9  T
   7     -8.9327642 -0.649543E-10  0.598E-05   13.52     836.6  T
     SCC iter.                  ...        0 min,  0.000 sec
     gradient                   ...        0 min,  0.000 sec
 * total energy  :    -8.9025804 Eh     change       -0.3218986E-03 Eh
   gradient norm :     0.0189960 Eh/α   predicted    -0.1765071E-03 ( -45.17%)
   displ. norm   :     0.2192206 α      lambda       -0.1676474E-02
   maximum displ.:     0.1886311 α      in ANC's #1, #4, #2, ...

........................................................................
.............................. CYCLE    8 ..............................
........................................................................
   1     -8.9346982 -0.893470E+01  0.400E-01   13.63       0.0  T
   2     -8.9347075 -0.935709E-05  0.248E-01   13.63       1.0  T
   3     -8.9347148 -0.728651E-05  0.227E-02   13.63       2.2  T
   4     -8.9347150 -0.156339E-06  0.279E-03   13.63      17.9  T
   5     -8.9347148  0.126925E-06  0.584E-03   13.63       8.6  T
   6     -8.9347150 -0.129456E-06  0.142E-03   13.63      35.2  T
   7     -8.9347150 -0.558680E-08  0.203E-04   13.63     245.8  T
   8     -8.9347150 -0.541256E-11  0.123E-05   13.63    4075.2  T
     SCC iter.                  ...        0 min,  0.000 sec
     gradient                   ...        0 min,  0.000 sec
 * total energy  :    -8.9036267 Eh     change       -0.1046335E-02 Eh
   gradient norm :     0.0110676 Eh/α   predicted    -0.8785235E-03 ( -16.04%)
   displ. norm   :     0.0620942 α      lambda       -0.3086697E-03
   maximum displ.:     0.0422493 α      in ANC's #1, #4, #2, ...

........................................................................
.............................. CYCLE    9 ..............................
........................................................................
   1     -8.9365795 -0.893658E+01  0.138E-01   13.83       0.0  T
   2     -8.9365804 -0.974807E-06  0.849E-02   13.83       1.0  T
   3     -8.9365811 -0.660393E-06  0.781E-03   13.83       6.4  T
   4     -8.9365811 -0.182961E-07  0.176E-03   13.83      28.4  T
   5     -8.9365811  0.381092E-08  0.116E-03   13.83      43.2  T
   6     -8.9365811  0.360093E-08  0.147E-03   13.83      34.0  T
   7     -8.9365811 -0.850242E-08  0.896E-05   13.83     558.2  T
   8     -8.9365811 -0.122391E-11  0.609E-06   13.83    8212.3  T
     SCC iter.                  ...        0 min,  0.000 sec
     gradient                   ...        0 min,  0.000 sec
 * total energy  :    -8.9037985 Eh     change       -0.1717936E-03 Eh
   gradient norm :     0.0030337 Eh/α   predicted    -0.1549287E-03 (  -9.82%)
   displ. norm   :     0.0590853 α      lambda       -0.8154925E-04
   maximum displ.:     0.0520818 α      in ANC's #1, #4, #6, ...

........................................................................
.............................. CYCLE   10 ..............................
........................................................................
   1     -8.9356855 -0.893569E+01  0.110E-01   13.68       0.0  T
   2     -8.9356865 -0.979441E-06  0.683E-02   13.68       1.0  T
   3     -8.9356872 -0.693844E-06  0.751E-03   13.68       6.7  T
   4     -8.9356872 -0.204917E-07  0.173E-03   13.68      28.9  T
   5     -8.9356872  0.615858E-09  0.680E-04   13.68      73.6  T
   6     -8.9356872  0.594077E-08  0.138E-03   13.68      36.3  T
   7     -8.9356872 -0.755545E-08  0.560E-05   13.68     893.3  T
     SCC iter.                  ...        0 min,  0.000 sec
     gradient                   ...        0 min,  0.000 sec
 * total energy  :    -8.9038315 Eh     change       -0.3296424E-04 Eh
   gradient norm :     0.0049771 Eh/α   predicted    -0.4091698E-04 (  24.13%)
   displ. norm   :     0.0130759 α      lambda       -0.4668604E-04
   maximum displ.:     0.0114853 α      in ANC's #2, #4, #1, ...

........................................................................
.............................. CYCLE   11 ..............................
........................................................................
   1     -8.9363493 -0.893635E+01  0.211E-02   13.78       0.0  T
   2     -8.9363494 -0.987644E-07  0.128E-02   13.77       3.9  T
   3     -8.9363494 -0.367254E-07  0.275E-03   13.77      18.2  T
   4     -8.9363494 -0.231332E-08  0.480E-04   13.77     104.1  T
   5     -8.9363494  0.486338E-08  0.111E-03   13.77      45.0  T
   6     -8.9363494 -0.493511E-08  0.163E-05   13.77    3063.2  T
     SCC iter.                  ...        0 min,  0.000 sec
     gradient                   ...        0 min,  0.000 sec
 * total energy  :    -8.9038699 Eh     change       -0.3846772E-04 Eh
   gradient norm :     0.0024373 Eh/α   predicted    -0.2334688E-04 ( -39.31%)
   displ. norm   :     0.0473391 α      lambda       -0.1023544E-03
   maximum displ.:     0.0428233 α      in ANC's #2, #4, #6, ...

........................................................................
.............................. CYCLE   12 ..............................
........................................................................
   1     -8.9372452 -0.893725E+01  0.772E-02   13.89       0.0  T
   2     -8.9372456 -0.431581E-06  0.475E-02   13.89       1.1  T
   3     -8.9372458 -0.235081E-06  0.520E-03   13.88       9.6  T
   4     -8.9372458 -0.116479E-07  0.127E-03   13.88      39.4  T
   5     -8.9372458  0.301418E-08  0.956E-04   13.88      52.3  T
   6     -8.9372458 -0.152137E-08  0.709E-04   13.88      70.5  T
     SCC iter.                  ...        0 min,  0.000 sec
     gradient                   ...        0 min,  0.000 sec
 * total energy  :    -8.9039370 Eh     change       -0.6710263E-04 Eh
   gradient norm :     0.0037020 Eh/α   predicted    -0.5129244E-04 ( -23.56%)
   displ. norm   :     0.0329633 α      lambda       -0.3750964E-04
   maximum displ.:     0.0313324 α      in ANC's #2, #4, #6, ...

........................................................................
.............................. CYCLE   13 ..............................
........................................................................
   1     -8.9372292 -0.893723E+01  0.508E-02   13.86       0.0  T
   2     -8.9372293 -0.109080E-06  0.314E-02   13.86       1.6  T
   3     -8.9372294 -0.751385E-07  0.269E-03   13.86      18.6  T
   4     -8.9372292  0.157108E-06  0.652E-03   13.86       7.7  T
   5     -8.9372294 -0.165444E-06  0.314E-04   13.86     159.1  T
   6     -8.9372294 -0.565414E-10  0.832E-05   13.86     600.7  T
     SCC iter.                  ...        0 min,  0.000 sec
     gradient                   ...        0 min,  0.000 sec
 * total energy  :    -8.9039625 Eh     change       -0.2541460E-04 Eh
   gradient norm :     0.0029317 Eh/α   predicted    -0.1877467E-04 ( -26.13%)
   displ. norm   :     0.0173345 α      lambda       -0.1425052E-04
   maximum displ.:     0.0169963 α      in ANC's #2, #1, #6, ...

........................................................................
.............................. CYCLE   14 ..............................
........................................................................
   1     -8.9370132 -0.893701E+01  0.215E-02   13.80       0.0  T
   2     -8.9370133 -0.238653E-07  0.134E-02   13.80       3.7  T
   3     -8.9370133 -0.149699E-07  0.111E-03   13.80      44.9  T
   4     -8.9370133  0.522178E-10  0.365E-04   13.80     137.1  T
   5     -8.9370133  0.145810E-08  0.684E-04   13.80      73.2  T
     SCC iter.                  ...        0 min,  0.000 sec
     gradient                   ...        0 min,  0.000 sec
 * total energy  :    -8.9039713 Eh     change       -0.8858053E-05 Eh
   gradient norm :     0.0012501 Eh/α   predicted    -0.7128084E-05 ( -19.53%)
   displ. norm   :     0.0097906 α      lambda       -0.3061001E-05
   maximum displ.:     0.0071059 α      in ANC's #1, #4, #6, ...

........................................................................
.............................. CYCLE   15 ..............................
........................................................................
   1     -8.9368171 -0.893682E+01  0.167E-02   13.75       0.0  T
   2     -8.9368171 -0.281688E-07  0.104E-02   13.75       4.8  T
   3     -8.9368171 -0.127773E-07  0.173E-03   13.75      28.9  T
   4     -8.9368171  0.505986E-07  0.382E-03   13.75      13.1  T
   5     -8.9368171 -0.561958E-07  0.305E-04   13.75     164.2  T
   6     -8.9368171 -0.355289E-10  0.218E-05   13.75    2292.5  T
     SCC iter.                  ...        0 min,  0.000 sec
     gradient                   ...        0 min,  0.000 sec
 * total energy  :    -8.9039732 Eh     change       -0.1935113E-05 Eh
   gradient norm :     0.0001994 Eh/α   predicted    -0.1530445E-05 ( -20.91%)
   displ. norm   :     0.0038423 α      lambda       -0.2290732E-06
   maximum displ.:     0.0037640 α      in ANC's #2, #1, #4, ...

   *** GEOMETRY OPTIMIZATION CONVERGED AFTER 15 ITERATIONS ***

------------------------------------------------------------------------
 total energy gain   :        -0.2662834 Eh     -167.0954 kcal/mol
 total RMSD          :         0.7618451 a0        0.4032 Å
 total power (kW/mol):       -46.6084691 (step)********** (real)
------------------------------------------------------------------------

 ANCopt (total)                0 d,  0 h,  0 min,  0.016 sec
 optimizer setup                ...        0 min,  0.000 sec (  0.329%)
 model hessian                  ...        0 min,  0.000 sec (  0.351%)
 ANC generation                 ...        0 min,  0.000 sec (  0.213%)
 coordinate transformation      ...        0 min,  0.000 sec (  0.141%)
 single point calculation       ...        0 min,  0.015 sec ( 91.896%)
 optimization log               ...        0 min,  0.000 sec (  2.285%)
 hessian update                 ...        0 min,  0.000 sec (  0.123%)
 rational function              ...        0 min,  0.000 sec (  2.379%)

================
 final structure:
================
4
 xtb: 6.2.2 (9d81278992624c895f80dd42a50cac0aa55982e2)
O         0.85865103957627   -0.04189990733642    0.38850993875684
O        -0.85864537252660    0.04216218462655   -0.38849326155691
H         1.33548266969273    0.00141135956316   -0.44588975876174
H        -1.33548733674240   -0.00167263685329    0.44587308156181

 Bond Distances (Angstroems)
 ---------------------------
O1-H3=0.9620         O2-H4=0.9620         H3-O1=0.9620         H4-O2=0.9620         
 O  H  Rav=0.9620 sigma=0.0000  Rmin=0.9620  Rmax=0.9620     2

 selected bond angles (degree)
 --------------------


 selected dihedral angles (degree)
 ---------------------------------

           -------------------------------------------------
          |                Final Singlepoint                |
           -------------------------------------------------

          ...................................................
          :                      SETUP                      :
          :.................................................:
          :  # basis functions                  10          :
          :  # atomic orbitals                  10          :
          :  # shells                            6          :
          :  # electrons                        14          :
          :  max. iterations                   250          :
          :  Hamiltonian                  GFN2-xTB          :
          :  restarted?                      false          :
          :  GBSA solvation                  false          :
          :  PC potential                    false          :
          :  electronic temp.          300.0000000     K    :
          :  accuracy                    1.0000000          :
          :  -> integral cutoff          0.2500000E+02      :
          :  -> integral neglect         0.1000000E-07      :
          :  -> SCF convergence          0.1000000E-05 Eh   :
          :  -> wf. convergence          0.1000000E-03 e    :
          :  Broyden damping             0.4000000          :
          ...................................................

 iter      E             dE          RMSdq      gap      omega  full diag
   1     -8.9368171 -0.893682E+01  0.441E-06   13.75       0.0  T
   2     -8.9368171  0.106581E-13  0.304E-06   13.75   16440.5  T
   3     -8.9368171  0.218492E-12  0.760E-06   13.75    6575.5  T

   *** convergence criteria satisfied after 3 iterations ***

         #    Occupation            Energy/Eh            Energy/eV
      -------------------------------------------------------------
         1        2.0000           -0.6969084             -18.9638
         2        2.0000           -0.6902654             -18.7831
         3        2.0000           -0.5873622             -15.9829
         4        2.0000           -0.5632954             -15.3280
         5        2.0000           -0.5396415             -14.6844
         6        2.0000           -0.5020567             -13.6617
         7        1.0000           -0.4687659             -12.7558
         8        1.0000           -0.3897003             -10.6043 (HOMO)
         9                          0.1155579               3.1445 (LUMO)
        10                          0.1669217               4.5422
      -------------------------------------------------------------
                  HL-Gap            0.5052582 Eh           13.7488 eV
             Fermi-level           -0.3112413 Eh           -8.4693 eV

 transition dipole moment (au) for excitation:           7           8
     X       Y       Z   
   0.0012   0.0610   0.0039  total (au/Debye):    0.061   0.155
 dE (eV)             :    2.151
 oscillator strength :  0.27866E-03

 SCC (total)                   0 d,  0 h,  0 min,  0.001 sec
 SCC setup                      ...        0 min,  0.000 sec (  3.136%)
 Dispersion                     ...        0 min,  0.000 sec (  0.383%)
 integral evaluation            ...        0 min,  0.000 sec ( 26.664%)
 zeroth order Hamiltonian       ...        0 min,  0.000 sec (  0.451%)
 iterations                     ...        0 min,  0.000 sec ( 14.009%)
 molecular gradient             ...        0 min,  0.000 sec ( 22.739%)
 printout                       ...        0 min,  0.000 sec ( 32.168%)

         :::::::::::::::::::::::::::::::::::::::::::::::::::::
         ::                     SUMMARY                     ::
         :::::::::::::::::::::::::::::::::::::::::::::::::::::
         :: total energy              -8.903973245024 Eh    ::
         :: gradient norm              0.000200174944 Eh/a0 ::
         :: HOMO-LUMO gap             13.748776300877 eV    ::
         ::.................................................::
         :: SCC energy                -8.936817122836 Eh    ::
         :: -> isotropic ES            0.028290826880 Eh    ::
         :: -> anisotropic ES         -0.004480386311 Eh    ::
         :: -> anisotropic XC         -0.001003319192 Eh    ::
         :: -> dispersion             -0.000477453667 Eh    ::
         :: repulsion energy           0.032843876410 Eh    ::
         :: add. restraining           0.000000000000 Eh    ::
         :::::::::::::::::::::::::::::::::::::::::::::::::::::

           ------------------------------------------------- 
          |                Numerical Hessian                |
           ------------------------------------------------- 
step length          :   0.00500
SCC accuracy         :   0.30000
Hessian scale factor :   1.00000
frozen atoms in %    :   0.00000    0
RMS gradient         :   0.00020
estimated CPU  time      0.00 min
estimated wall time      0.00 min

writing file <hessian>.

 projected vibrational frequencies (cm-1)
eigval :       -0.00    -0.00     0.00     0.00     0.00     0.00
eigval :      521.28   540.34   641.11   656.04  3592.83  3597.46
           -------------------------------------------------
          |                Property Printout                |
           -------------------------------------------------

    * Orbital Energies and Occupations

         #    Occupation            Energy/Eh            Energy/eV
      -------------------------------------------------------------
         1        2.0000           -0.6969084             -18.9638
         2        2.0000           -0.6902654             -18.7831
         3        2.0000           -0.5873622             -15.9829
         4        2.0000           -0.5632954             -15.3280
         5        2.0000           -0.5396415             -14.6844
         6        2.0000           -0.5020567             -13.6617
         7        1.0000           -0.4687659             -12.7558
         8        1.0000           -0.3897003             -10.6043 (HOMO)
         9                          0.1155579               3.1445 (LUMO)
        10                          0.1669217               4.5422
      -------------------------------------------------------------
                  HL-Gap            0.5052582 Eh           13.7488 eV
             Fermi-level           -0.3112413 Eh           -8.4693 eV

     #   Z        covCN         q      C6AA      α(0)
     1   8 O      0.899    -0.332    20.355     6.050
     2   8 O      0.899    -0.332    20.355     6.050
     3   1 H      0.805     0.332     0.631     1.248
     4   1 H      0.805     0.332     0.631     1.248

 Mol. C6AA /au·bohr⁶  :        112.067298
 Mol. C8AA /au·bohr⁸  :       2112.866662
 Mol. α(0) /au        :         14.596031


Wiberg/Mayer (AO) data.
largest (>0.10) Wiberg bond orders for each atom
          total WBO             WBO to atom ...
     1  O   1.390        H    3 0.888    O    2 0.501
     2  O   1.390        H    4 0.888    O    1 0.501
     3  H   0.889        O    1 0.888
     4  H   0.889        O    2 0.888

MOs/occ written to file <molden.input>


molecular dipole:
                 x           y           z       tot (Debye)
 q only:       -0.000      -0.000      -0.000
   full:       -0.000      -0.000      -0.000       0.001
molecular quadrupole (traceless):
                xx          xy          yy          xz          yz          zz
 q only:        2.428       0.136      -1.302      -3.307       0.056      -1.126
  q+dip:        3.142       0.194      -1.625      -4.548       0.085      -1.517
   full:        3.110       0.195      -1.399      -4.482       0.111      -1.712

           -------------------------------------------------
          |                Geometry Summary                 |
           -------------------------------------------------

      molecular mass/u    :       34.0146913
   center of mass at/Å    :        0.0000025       0.0001156       0.0000074
  moments of inertia/u·Å² :        0.1712535E+01   0.3076181E+02   0.3247435E+02
rotational constants/cm⁻¹ :        0.9843671E+01   0.5480052E+00   0.5191061E+00
Molecule has the following symmetry elements: (i) (C2) (sigma) 
It seems to be the C2h point group

           -------------------------------------------------
          |               Frequency Printout                |
           -------------------------------------------------
 projected vibrational frequencies (cm-1)
eigval :       -0.00    -0.00     0.00     0.00     0.00     0.00
eigval :      521.28   540.34   641.11   656.04  3592.83  3597.46
 reduced masses (amu)
   1:  9.14   2: 13.28   3: 14.62   4: 14.89   5: 14.78   6:  9.79   7:  1.90   8:  1.90
   9: 13.04  10:  4.93  11:  1.90  12:  1.90
 IR intensities (amu)
   1:  0.22   2:  0.18   3:  0.20   4:  0.36   5:  0.37   6:  0.10   7:  0.72   8:  0.59
   9:  0.00  10:  0.00  11:  0.49  12:  0.00
 Raman intensities (amu)
   1:  0.00   2:  0.00   3:  0.00   4:  0.00   5:  0.00   6:  0.00   7:  0.00   8:  0.00
   9:  0.00  10:  0.00  11:  0.00  12:  0.00
 output can be read by thermo (or use thermo option).
 writing <g98.out> molden fake output.
 recommended (thermochemical) frequency scaling factor: 1.0
           -------------------------------------------------
          |             Thermodynamic Functions             |
           -------------------------------------------------

c2h symmetry found (for desy threshold:  0.10E+00) used in thermo

          ...................................................
          :                      SETUP                      :
          :.................................................:
          :  # frequencies                           6      :
          :  # imaginary freq.                       0      :
          :  linear?                             false      :
          :  only rotor calc.                    false      :
          :  symmetry                              c2h      :
          :  rotational number                       2      :
          :  scaling factor                  1.0000000      :
          :  rotor cutoff                   50.0000000 cm⁻¹ :
          :  imag. cutoff                  -20.0000000 cm⁻¹ :
          :.................................................:

    mode    ω/cm⁻¹     T·S(HO)/kcal·mol⁻¹    T·S(FR)/kcal·mol⁻¹   T·S(vib)
   ------------------------------------------------------------------------
   ------------------------------------------------------------------------

   temp. (K)  partition function   enthalpy   heat capacity  entropy
                                   cal/mol     cal/K/mol   cal/K/mol   J/K/mol
 298.15  VIB   1.28                  423.644      4.226      1.919
         ROT  0.158E+04              888.752      2.981     17.617
         INT  0.203E+04             1312.396      7.206     19.536
         TR   0.192E+27             1481.254      4.968     36.487
         TOT                        2793.6504    12.1746    56.0227   234.3992

   temp. (K)  partition function   enthalpy   heat capacity  entropy
                                   cal/mol     cal/K/mol   cal/K/mol   J/K/mol
 120.00  VIB   1.00                    6.821      0.380      0.065
         ROT   403.                  357.707      2.981     14.904
         INT   405.                  364.528      3.361     14.970
         TR   0.490E+26              596.178      4.968     31.968
         TOT                         960.7055     8.3291    46.9374   196.3862

   temp. (K)  partition function   enthalpy   heat capacity  entropy
                                   cal/mol     cal/K/mol   cal/K/mol   J/K/mol
 100.00  VIB   1.00                    1.805      0.143      0.020
         ROT   307.                  298.089      2.981     14.361
         INT   307.                  299.894      3.124     14.381
         TR   0.373E+26              496.815      4.968     31.062
         TOT                         796.7086     8.0922    45.4435   190.1355

   temp. (K)  partition function   enthalpy   heat capacity  entropy
                                   cal/mol     cal/K/mol   cal/K/mol   J/K/mol
  80.00  VIB   1.00                    0.252      0.031      0.003
         ROT   220.                  238.471      2.981     13.696
         INT   220.                  238.723      3.012     13.699
         TR   0.267E+26              397.452      4.968     29.954
         TOT                         636.1747     7.9798    43.6533   182.6455

   temp. (K)  partition function   enthalpy   heat capacity  entropy
                                   cal/mol     cal/K/mol   cal/K/mol   J/K/mol
  60.00  VIB   1.00                    0.010      0.002      0.000
         ROT   143.                  178.853      2.981     12.838
         INT   143.                  178.863      2.983     12.838
         TR   0.173E+26              298.089      4.968     28.526
         TOT                         476.9523     7.9512    41.3639   173.0664

   temp. (K)  partition function   enthalpy   heat capacity  entropy
                                   cal/mol     cal/K/mol   cal/K/mol   J/K/mol
  40.00  VIB   1.00                    0.000      0.000     -0.000
         ROT   77.6                  119.236      2.981     11.629
         INT   77.6                  119.236      2.981     11.629
         TR   0.943E+25              198.726      4.968     26.512
         TOT                         317.9616     7.9490    38.1415   159.5841

   temp. (K)  partition function   enthalpy   heat capacity  entropy
                                   cal/mol     cal/K/mol   cal/K/mol   J/K/mol
  20.00  VIB   1.00                    0.000      0.000     -0.000
         ROT   27.4                   59.618      2.981      9.563
         INT   27.4                   59.618      2.981      9.563
         TR   0.333E+25               99.363      4.968     23.070
         TOT                         158.9808     7.9490    32.6332   136.5373

   temp. (K)  partition function   enthalpy   heat capacity  entropy
                                   cal/mol     cal/K/mol   cal/K/mol   J/K/mol
  10.00  VIB   1.00                    0.000      0.000     -0.001
         ROT   9.70                   29.809      2.981      7.497
         INT   9.70                   29.809      2.981      7.497
         TR   0.118E+25               49.681      4.968     19.628
         TOT                          79.4904     7.9490    27.1249   113.4904

       T/K    H(0)-H(T)+PV         H(T)/Eh          T*S/Eh         G(T)/Eh
   ------------------------------------------------------------------------
    298.15    0.445197E-02    0.262063E-01    0.266182E-01   -0.411892E-03
    120.00    0.153098E-02    0.232853E-01    0.897595E-02    0.143094E-01
    100.00    0.126964E-02    0.230240E-01    0.724188E-02    0.157821E-01
     80.00    0.101381E-02    0.227682E-01    0.556528E-02    0.172029E-01
     60.00    0.760072E-03    0.225144E-01    0.395505E-02    0.185594E-01
     40.00    0.506704E-03    0.222611E-01    0.243130E-02    0.198298E-01
     20.00    0.253352E-03    0.220077E-01    0.104009E-02    0.209676E-01
     10.00    0.126676E-03    0.218810E-01    0.432262E-03    0.214488E-01 (used)
   ------------------------------------------------------------------------

         :::::::::::::::::::::::::::::::::::::::::::::::::::::
         ::                  THERMODYNAMIC                  ::
         :::::::::::::::::::::::::::::::::::::::::::::::::::::
         :: total free energy          -8.882524474510 Eh   ::
         ::.................................................::
         :: total energy               -8.903973245022 Eh   ::
         :: zero point energy           0.021754356715 Eh   ::
         :: G(RRHO) w/o ZPVE           -0.000305586203 Eh   ::
         :: G(RRHO) contrib.            0.021448770512 Eh   ::
         :::::::::::::::::::::::::::::::::::::::::::::::::::::

optimized geometry written to: xtbopt.xyz


           -------------------------------------------------
          | TOTAL ENERGY               -8.903973245022 Eh   |
          | TOTAL ENTHALPY             -8.882092212292 Eh   |
          | TOTAL FREE ENERGY          -8.882524474510 Eh   |
          | GRADIENT NORM               0.000200183656 Eh/α |
          | HOMO-LUMO GAP              13.748776342025 eV   |
           -------------------------------------------------

------------------------------------------------------------------------
 * finished run on 2020/05/12 at 11:43:55.077     
------------------------------------------------------------------------
 total:
 * wall-time:     0 d,  0 h,  0 min,  0.057 sec
 *  cpu-time:     0 d,  0 h,  0 min,  0.057 sec
 * ratio c/w:     1.000 speedup
 SCF:
 * wall-time:     0 d,  0 h,  0 min,  0.002 sec
 *  cpu-time:     0 d,  0 h,  0 min,  0.002 sec
 * ratio c/w:     1.000 speedup
 ANC optimizer:
 * wall-time:     0 d,  0 h,  0 min,  0.018 sec
 *  cpu-time:     0 d,  0 h,  0 min,  0.018 sec
 * ratio c/w:     1.000 speedup
 numerical hessian:
 * wall-time:     0 d,  0 h,  0 min,  0.022 sec
 *  cpu-time:     0 d,  0 h,  0 min,  0.022 sec
 * ratio c/w:     1.000 speedup

