 Entering Gaussian System
 *********************************************
 Gaussian 98:
 frequency output generated by the xtb code
 *********************************************
                         Standard orientation:
 --------------------------------------------------------------------
  Center     Atomic     Atomic              Coordinates (Angstroms)
  Number     Number      Type              X           Y           Z
 --------------------------------------------------------------------
    1          8             0        0.858652   -0.041904    0.388507
    2          8             0       -0.858647    0.042166   -0.388490
    3          1             0        1.335481    0.001404   -0.445894
    4          1             0       -1.335486   -0.001665    0.445878
 --------------------------------------------------------------------
     1 basis functions        1 primitive gaussians
     1 alpha electrons        1 beta electrons

 Harmonic frequencies (cm**-1), IR intensities (KM/Mole),
 Raman scattering activities (A**4/amu), Raman depolarization ratios,
 reduced masses (AMU), force constants (mDyne/A) and normal coordinates:
                      1                      2                      3
                        a                      a                      a 
 Frequencies --   521.2773               540.3435               641.1141
 Red. masses --     1.8964                 1.8964                13.0366
 Frc consts  --     0.0000                 0.0000                 0.0000
 IR Inten    --     0.7172                 0.5888                 0.0002
 Raman Activ --     0.0000                 0.0000                 0.0000
 Depolar     --     0.0000                 0.0000                 0.0000
 Atom AN      X      Y      Z        X      Y      Z        X      Y      Z
   1   8     0.00   0.17   0.01    -0.15   0.01  -0.09     0.60  -0.02   0.19
   2   8     0.00   0.17   0.01    -0.15   0.01  -0.09    -0.60   0.02  -0.19
   3   1    -0.01  -0.68  -0.04     0.60  -0.03   0.34     0.29  -0.01   0.12
   4   1    -0.01  -0.68  -0.04     0.60  -0.03   0.34    -0.29   0.01  -0.12
                      4                      5                      6
                        a                      a                      a 
 Frequencies --   656.0355              3592.8315              3597.4569
 Red. masses --     4.9251                 1.8964                 1.8984
 Frc consts  --     0.0000                 0.0000                 0.0000
 IR Inten    --     0.0001                 0.4945                 0.0001
 Raman Activ --     0.0000                 0.0000                 0.0000
 Depolar     --     0.0000                 0.0000                 0.0000
 Atom AN      X      Y      Z        X      Y      Z        X      Y      Z
   1   8     0.23  -0.02   0.28     0.09   0.01  -0.15    -0.09  -0.01   0.15
   2   8    -0.23   0.02  -0.28     0.09   0.01  -0.15     0.09   0.01  -0.15
   3   1    -0.54   0.03  -0.27    -0.34  -0.03   0.59     0.34   0.03  -0.60
   4   1     0.54  -0.03   0.27    -0.34  -0.03   0.59    -0.34  -0.03   0.60
