4
 energy: -8.637689822423 gnorm: 0.942994782866 xtb: 6.2.2 (9d81278992624c895f80dd42a50cac0aa55982e2)
O         0.60583000000000   -0.33250000000000    0.22210400000000
O        -0.61809400000000   -0.27709500000000   -0.26094700000000
H         1.12571600000000    0.30464200000000   -0.33164100000000
H        -1.11345100000000    0.30495400000000    0.37048400000000
4
 energy: -8.868786613646 gnorm: 0.160304571312 xtb: 6.2.2 (9d81278992624c895f80dd42a50cac0aa55982e2)
O         0.78057110361134   -0.33546248985087    0.26544595747051
O        -0.79270197783542   -0.26753189768852   -0.30386841049887
H         1.20781461858953    0.30043131428618   -0.34350892692095
H        -1.19568274436545    0.30256407325321    0.38193137994930
4
 energy: -8.887870903119 gnorm: 0.094240148761 xtb: 6.2.2 (9d81278992624c895f80dd42a50cac0aa55982e2)
O         0.79715352246075   -0.26142333389567    0.32087537581501
O        -0.80616361075942   -0.18645409355166   -0.34941383762809
H         1.25980223155775    0.22441733618972   -0.38959736488902
H        -1.25079114325908    0.22346109125762    0.41813582670210
4
 energy: -8.898464537493 gnorm: 0.058063115189 xtb: 6.2.2 (9d81278992624c895f80dd42a50cac0aa55982e2)
O         0.82512711429199   -0.18677926052835    0.37737011916193
O        -0.83098032371186   -0.10418530354443   -0.39591018262488
H         1.29771661599415    0.14738613554567   -0.42943332429701
H        -1.29186240657428    0.14357942852711    0.44797338775996
4
 energy: -8.900963799872 gnorm: 0.024222122106 xtb: 6.2.2 (9d81278992624c895f80dd42a50cac0aa55982e2)
O         0.86457989514795   -0.17745973857065    0.37961745140803
O        -0.87002233836938   -0.09308306767371   -0.39685626808816
H         1.27665853352423    0.13669428248523   -0.41595125917484
H        -1.27121509030279    0.13384952375913    0.43319007585496
4
 energy: -8.902258475873 gnorm: 0.023937472374 xtb: 6.2.2 (9d81278992624c895f80dd42a50cac0aa55982e2)
O         0.86678776507089   -0.13785661366020    0.40040829705015
O        -0.87058888901974   -0.05110578946833   -0.41244888100956
H         1.30523323457399    0.09651451501802   -0.43741204079477
H        -1.30143111062515    0.09244888811051    0.44945262475417
4
 energy: -8.902580374445 gnorm: 0.019033424610 xtb: 6.2.2 (9d81278992624c895f80dd42a50cac0aa55982e2)
O         0.86799380972924   -0.13029354094284    0.39765890056634
O        -0.87149801836471   -0.04391047471685   -0.40875909440056
H         1.31138029558928    0.08900777041054   -0.43786831858000
H        -1.30787508695381    0.08519724524915    0.44896851241422
4
 energy: -8.903626709093 gnorm: 0.011082075550 xtb: 6.2.2 (9d81278992624c895f80dd42a50cac0aa55982e2)
O         0.86874260219098   -0.08107526616131    0.38422287061291
O        -0.87030892763802    0.00319551651485   -0.38918535733267
H         1.35256515406508    0.04026794587875   -0.44518109604940
H        -1.35099782861805    0.03761280376770    0.45014358276916
4
 energy: -8.903798502658 gnorm: 0.003036270663 xtb: 6.2.2 (9d81278992624c895f80dd42a50cac0aa55982e2)
O         0.86613294843153   -0.06782891173643    0.37463284945310
O        -0.86719525227984    0.01500282889037   -0.37799893409028
H         1.36253243436402    0.02741721723244   -0.44412287184753
H        -1.36146913051571    0.02540986561362    0.44748895648471
4
 energy: -8.903831466895 gnorm: 0.004981675852 xtb: 6.2.2 (9d81278992624c895f80dd42a50cac0aa55982e2)
O         0.86592137492021   -0.05308990932860    0.37414285880416
O        -0.86639469218789    0.02954014572490   -0.37564347559135
H         1.36954608669179    0.01273544783635   -0.44667870045040
H        -1.36907176942411    0.01081531576735    0.44817931723759
4
 energy: -8.903869934610 gnorm: 0.002437308692 xtb: 6.2.2 (9d81278992624c895f80dd42a50cac0aa55982e2)
O         0.86575263637891   -0.05209555504322    0.37524648412752
O        -0.86618344295157    0.03065892010523   -0.37661245336889
H         1.36505804725625    0.01171821185922   -0.44595282307176
H        -1.36462624068359    0.00971942307876    0.44731879231314
4
 energy: -8.903937037240 gnorm: 0.003713071868 xtb: 6.2.2 (9d81278992624c895f80dd42a50cac0aa55982e2)
O         0.86441754127481   -0.04503786842158    0.38086092782016
O        -0.86455237255232    0.03831269865116   -0.38128949295064
H         1.35167260636899    0.00456393340903   -0.44540331353942
H        -1.35153677509148    0.00216223636139    0.44583187866990
4
 energy: -8.903962451838 gnorm: 0.002940833442 xtb: 6.2.2 (9d81278992624c895f80dd42a50cac0aa55982e2)
O         0.86234061169898   -0.04058973273555    0.38547686441890
O        -0.86228709717312    0.04322373735561   -0.38530907613587
H         1.34237532901108    0.00006584728024   -0.44564416330459
H        -1.34242784353694   -0.00269885190030    0.44547637502156
4
 energy: -8.903971309891 gnorm: 0.001253784412 xtb: 6.2.2 (9d81278992624c895f80dd42a50cac0aa55982e2)
O         0.86015714556956   -0.03981913276198    0.38804378384905
O        -0.86006799137315    0.04422569358707   -0.38776303949867
H         1.33694492248686   -0.00070197340172   -0.44585052271617
H        -1.33703307668327   -0.00370358742336    0.44556977836578
4
 energy: -8.903973245003 gnorm: 0.000200085978 xtb: 6.2.2 (9d81278992624c895f80dd42a50cac0aa55982e2)
O         0.85865103957627   -0.04189990733642    0.38850993875684
O        -0.85864537252660    0.04216218462655   -0.38849326155691
H         1.33548266969273    0.00141135956316   -0.44588975876174
H        -1.33548733674240   -0.00167263685329    0.44587308156181
