[Molden Format]
[Title]
[Atoms] AU
C      1     6  0.33683152720109E+01 -0.79347663178187E+00  0.43815935682273E+00
C      2     6  0.11310897019774E+01 -0.42923754005463E+00 -0.18365827058395E+00
C      3     6 -0.11930857095138E+01  0.45211615955941E+00  0.16456995696087E+00
O      4     8 -0.33063211542104E+01  0.77059612256104E+00 -0.41907104318976E+00
[GTO]
           1 0
 s           4   1.0000000000000000     
   51.049363095579913      -0.16312063210127389     
   8.7911227406887544      -0.19911024581000730     
  0.70640422258929825       0.31882047753655751     
  0.26922813413411617       0.12706504184240380     
 p           4   1.0000000000000000     
   5.8263656140800002       0.73716451545209605     
   1.5106896018720002       0.68216371614850257     
  0.53256483288000001       0.35783053929253711     
  0.21202323690600003        5.3983030275847881E-002

           2 0
 s           4   1.0000000000000000     
   51.049363095579913      -0.16312063210127389     
   8.7911227406887544      -0.19911024581000730     
  0.70640422258929825       0.31882047753655751     
  0.26922813413411617       0.12706504184240380     
 p           4   1.0000000000000000     
   5.8263656140800002       0.73716451545209605     
   1.5106896018720002       0.68216371614850257     
  0.53256483288000001       0.35783053929253711     
  0.21202323690600003        5.3983030275847881E-002

           3 0
 s           4   1.0000000000000000     
   51.049363095579913      -0.16312063210127389     
   8.7911227406887544      -0.19911024581000730     
  0.70640422258929825       0.31882047753655751     
  0.26922813413411617       0.12706504184240380     
 p           4   1.0000000000000000     
   5.8263656140800002       0.73716451545209605     
   1.5106896018720002       0.68216371614850257     
  0.53256483288000001       0.35783053929253711     
  0.21202323690600003        5.3983030275847881E-002

           4 0
 s           4   1.0000000000000000     
   69.137961906196551      -0.20478756370077797     
   11.906129132707308      -0.24997023136827334     
  0.95670827744340703       0.40025880240639616     
  0.36462520496073686       0.15952206667693555     
 p           4   1.0000000000000000     
   8.2124193257781641        1.1321556799186829     
   2.1293576997098116        1.0476840782254817     
  0.75066448202360914       0.54956508217158984     
  0.29885246543283073        8.2908486592766617E-002

[MO]
Sym=     1a
Ene=  -0.76988094385209793     
Spin= Alpha
Occup=     2.00000000
           1  -3.2249235398338744E-003
           2  -3.0414958760425800E-003
           3   7.7330112966216512E-004
           4  -2.6853904581356923E-004
           5   2.9139889356175855E-002
           6  -4.0275948049194529E-002
           7   1.1889653432957567E-002
           8  -2.4941486482840609E-004
           9  0.34215903658005875     
          10 -0.21181123809624300     
          11   2.9070333372539090E-002
          12  -6.3936785504487656E-002
          13  0.64660865093434083     
          14  0.22222661412775307     
          15  -3.3909680633316876E-002
          16   6.0356567553146986E-002
Sym=     2a
Ene=  -0.68094742999936841     
Spin= Alpha
Occup=     2.00000000
           1 -0.24249765736231080     
           2  0.14224671487050433     
           3  -3.0278116103882709E-002
           4   2.5476728287233512E-002
           5 -0.49144693325721511     
           6   5.1347927064968629E-002
           7  -3.9839291450659342E-002
           8  -4.8108650066998118E-002
           9 -0.35441721114043828     
          10 -0.23005083860501258     
          11   8.1002411186622311E-002
          12   2.2085204537610224E-002
          13  0.26457517639575828     
          14 -0.19199598840274110     
          15   5.6677612529740067E-002
          16  -1.8564831924654502E-003
Sym=     3a
Ene=  -0.64131197296781828     
Spin= Alpha
Occup=     2.00000000
           1 -0.44270189785281855     
           2  0.13233202800657970     
           3  -1.8002465145709617E-002
           4   4.3859064171097584E-002
           5 -0.21038735114665202     
           6 -0.31349443213778339     
           7   7.4943999087701274E-002
           8  -4.0031645382645795E-002
           9  0.27147736279644274     
          10   4.3616864271407249E-002
          11  -1.8589387573198449E-002
          12  -1.2570708871182076E-002
          13 -0.40895008570340630     
          14  0.34108396414328634     
          15  -6.6442568452699621E-002
          16   6.4551902076580556E-002
Sym=     4a
Ene=  -0.59943702677350819     
Spin= Alpha
Occup=     2.00000000
           1  0.16830355068938163     
           2  -9.8837499996716569E-003
           3   1.3652789909805715E-002
           4   1.9771726530140726E-002
           5  -8.7281379395408643E-002
           6  0.16505338554389709     
           7   1.0083345990846770E-002
           8  0.11490298007037300     
           9   8.7534360615406676E-002
          10 -0.16472117587990798     
          11  0.23634922006186226     
          12  0.35592584169431241     
          13 -0.24388336396841598     
          14  0.21061674599349903     
          15  0.24494891245280384     
          16  0.58330781990155001     
Sym=     5a
Ene=  -0.59441320246608831     
Spin= Alpha
Occup=     2.00000000
           1  -1.3261896496612980E-003
           2  -1.4149157769525085E-002
           3  -4.7001536333390354E-002
           4   2.4937263924669467E-002
           5  -1.1990770093225679E-003
           6  -4.4453359195239558E-002
           7 -0.14356480965529669     
           8   7.5761167127453385E-002
           9  -5.3489882436450799E-004
          10 -0.12984322465696260     
          11 -0.43671318920485680     
          12  0.23039541415846990     
          13   1.5538788767852584E-004
          14 -0.17857326005085999     
          15 -0.60140089312417866     
          16  0.31722049032297034     
Sym=     6a
Ene=  -0.57273545882246257     
Spin= Alpha
Occup=     2.00000000
           1  0.26457106127237451     
           2   2.9585128443332664E-002
           3  -4.0014806555598303E-002
           4  -5.8930837751843615E-002
           5 -0.12608519707183391     
           6  0.24475413562561257     
           7 -0.12999323199813567     
           8 -0.10347256721566353     
           9 -0.10855877334079157     
          10 -0.29537948378058348     
          11  -5.1066029977072241E-002
          12 -0.26252360572125616     
          13 -0.33696312958800634     
          14  0.52383745086567690     
          15 -0.26473316519578510     
          16 -0.20682026042527621     
Sym=     7a
Ene=  -0.48095721923979873     
Spin= Alpha
Occup=     2.00000000
           1 -0.26316107884876344     
           2 -0.13297888013399747     
           3 -0.19363865673948324     
           4 -0.46238248832923379     
           5  0.23422563329184823     
           6  -7.4996422460469588E-003
           7 -0.25315220692207407     
           8 -0.50423007550779853     
           9  -6.0730720535776501E-002
          10  -4.2443107472549348E-002
          11  -3.0217467072539320E-002
          12  -8.3966067043386383E-002
          13  -1.9429019198800371E-002
          14  -4.2266031205218081E-002
          15  0.16987122582418762     
          16  0.31049248032441301     
Sym=     8a
Ene=  -0.47710861885437800     
Spin= Alpha
Occup=     2.00000000
           1  -1.9245746976870235E-003
           2 -0.14552503011290160     
           3 -0.47354389185147555     
           4  0.24070275059847598     
           5   1.1690654775991923E-003
           6 -0.15976541704664254     
           7 -0.52440039187288601     
           8  0.26646775580045762     
           9  -6.5403631904063276E-004
          10  -2.4339885644772855E-002
          11  -8.2314811153144068E-002
          12   4.1811423364386729E-002
          13  -2.5470590408492892E-004
          14   9.3298454754287774E-002
          15  0.32409189215989453     
          16 -0.16437609463277139     
Sym=     9a
Ene=  -0.43493703923961874     
Spin= Alpha
Occup=     1.00000000
           1 -0.57571810726597938     
           2 -0.65932724298929635     
           3  0.22659166774435163     
           4   4.7030451884554320E-002
           5   8.5540286561889764E-002
           6  0.20526171921185710     
           7   4.0795904206669453E-002
           8  0.20010033958597798     
           9 -0.13563087068306473     
          10 -0.13604673748735313     
          11   5.3352992055193615E-002
          12   2.7597552458785549E-002
          13  -2.0310254412502362E-002
          14  0.13191746627023093     
          15  -8.6383764280939676E-002
          16  -9.4789018841608272E-002
Sym=    10a
Ene=  -0.33746951064819897     
Spin= Alpha
Occup=     0.99866181
           1   4.9032499792412525E-002
           2  -3.6248281269264888E-002
           3  0.30847959413127424     
           4  0.56353128825290044     
           5  0.12815856919903684     
           6 -0.10210526328775689     
           7  -5.3361241526827835E-002
           8 -0.16083241376074278     
           9 -0.23472832212493425     
          10  -8.1162217154268385E-002
          11 -0.26196238144423944     
          12 -0.54016884328353343     
          13  -2.0891149119839220E-002
          14  -5.3324966101156793E-003
          15  0.25156443471455220     
          16  0.47201927932761079     
Sym=    11a
Ene=  -0.32490025741189599     
Spin= Alpha
Occup=     0.00133819
           1   3.0726731842953893E-004
           2 -0.17412655097068014     
           3 -0.55822482093702397     
           4  0.29566640717442999     
           5   7.5926227690783902E-004
           6   6.1015858472766492E-002
           7  0.19823286802613696     
           8 -0.10487405750407559     
           9  -2.4211313636298356E-004
          10  0.16152255326040460     
          11  0.54530938236802484     
          12 -0.28769724019318021     
          13   1.6140445975170256E-004
          14 -0.13945016110776587     
          15 -0.47188298013899677     
          16  0.24895964461825409     
Sym=    12a
Ene=  -0.16981616546520920     
Spin= Alpha
Occup=     0.00000000
           1  -1.3802463205727846E-003
           2  -2.2643470213676567E-003
           3 -0.27501247899704617     
           4 -0.53071271111718621     
           5 -0.17680646540303874     
           6   9.4626486677898448E-003
           7  0.35510697041353306     
           8  0.68945322825572997     
           9 -0.12971961439454058     
          10   4.5676894165814615E-002
          11 -0.29562246550784149     
          12 -0.54586540206702883     
          13   2.2077487103454224E-002
          14   1.6046843845555089E-002
          15  0.15471111744904736     
          16  0.30848888179245126     
Sym=    13a
Ene=  -0.14447848763172760     
Spin= Alpha
Occup=     0.00000000
           1   4.3940356544236821E-004
           2  0.14913404063085842     
           3  0.49688681355660924     
           4 -0.25643296595628168     
           5  -4.2942351311263411E-003
           6 -0.21226763501965051     
           7 -0.70300630230733219     
           8  0.36294734932715017     
           9   4.9597643712347280E-003
          10  0.16939323911885987     
          11  0.56700150628932733     
          12 -0.29640850478072323     
          13  -1.0295867104853805E-003
          14  -9.0924498694706965E-002
          15 -0.29786033953391200     
          16  0.15550518928800117     
Sym=    14a
Ene=   0.19970850655803771     
Spin= Alpha
Occup=     0.00000000
           1 -0.23793209623275635     
           2  0.45173024531538430     
           3 -0.12716479912894091     
           4   1.6255133197703026E-002
           5  0.89488196455608404     
           6 -0.28905415896507164     
           7  0.18118303233660743     
           8  0.19334148880284649     
           9 -0.97280095764697505     
          10 -0.12842789468858620     
          11  0.18065525242963901     
          12  0.25924995094066450     
          13  0.31448908516714585     
          14  0.50152455306973809     
          15 -0.13391208750926650     
          16   3.1907004450363104E-002
Sym=    15a
Ene=   0.80127985171539751     
Spin= Alpha
Occup=     0.00000000
           1 -0.57118757013935395     
           2  0.63538136060618400     
           3 -0.12445015251012698     
           4  0.13656912833226892     
           5  0.80554361803964403     
           6  0.48447430624047094     
           7   8.9630648514373457E-003
           8  0.30287738164359013     
           9  0.57291777678861666     
          10 -0.86870547252736352     
          11  0.11970724772902827     
          12 -0.26482605801683151     
          13 -0.66124161111194391     
          14 -0.66481017224804551     
          15  0.10113120571283975     
          16 -0.18077768182214740     
Sym=    16a
Ene=    1.1084100094435891     
Spin= Alpha
Occup=     0.00000000
           1  0.70686171260050035     
           2 -0.63942035603862479     
           3   6.5721460712829624E-002
           4 -0.25282003956268001     
           5  -1.4492934948503301E-002
           6  -1.2590939151303986     
           7  0.36157186735379754     
           8  -4.3318787062388953E-002
           9 -0.23596403935084512     
          10  -1.0483433451976805     
          11  0.32765999170489146     
          12   3.0388594488335925E-002
          13 -0.48378608492324704     
          14 -0.39842704396093565     
          15   2.0072191090800703E-002
          16 -0.18548917042585755     
