$hessian                                                                        
        0.7257663250  -0.1288869170   0.1782447047  -0.6222872647   0.0966044406
       -0.1795006026  -0.0728171150   0.0313644101   0.0189069592  -0.0306619452
        0.0009180663  -0.0176510614
       -0.1288869170   0.0293896765  -0.0279519275   0.1041015549  -0.0230719195
        0.0254576788   0.0221175345  -0.0114260083   0.0002519951   0.0026678276
        0.0051082512   0.0022422535
        0.1782447047  -0.0279519275   0.0560417465  -0.1649049396   0.0211644224
       -0.0616029984   0.0020961146   0.0052322406   0.0068610244  -0.0154358798
        0.0015552644  -0.0012997725
       -0.6222872647   0.1041015549  -0.1649049396   0.9870222506  -0.2271865319
        0.1382138221  -0.3513321927   0.1013669589  -0.0088815406  -0.0134027932
        0.0217180181   0.0355726581
        0.0966044406  -0.0230719195   0.0211644224  -0.2271865319   0.0711927541
       -0.0038604471   0.1199769287  -0.0372109025  -0.0117267239   0.0106051627
       -0.0109099321  -0.0055772515
       -0.1795006026   0.0254576788  -0.0616029984   0.1382138221  -0.0038604471
        0.0794896718   0.0252866105  -0.0217321898  -0.0227747870   0.0160001700
        0.0001349581   0.0048881136
       -0.0728171150   0.0221175345   0.0020961146  -0.3513321927   0.1199769287
        0.0252866105   1.2848689312  -0.2620564505   0.2264656199  -0.8607196234
        0.1199619873  -0.2538483450
        0.0313644101  -0.0114260083   0.0052322406   0.1013669589  -0.0372109025
       -0.0217321898  -0.2620564505   0.0729518965  -0.0192529114   0.1293250815
       -0.0243149857   0.0357528606
        0.0189069592   0.0002519951   0.0068610244  -0.0088815406  -0.0117267239
       -0.0227747870   0.2264656199  -0.0192529114   0.0953787035  -0.2364910385
        0.0307276401  -0.0794649409
       -0.0306619452   0.0026678276  -0.0154358798  -0.0134027932   0.0106051627
        0.0160001700  -0.8607196234   0.1293250815  -0.2364910385   0.9047843618
       -0.1425980718   0.2359267483
        0.0009180663   0.0051082512   0.0015552644   0.0217180181  -0.0109099321
        0.0001349581   0.1199619873  -0.0243149857   0.0307276401  -0.1425980718
        0.0301166666  -0.0324178627
       -0.0176510614   0.0022422535  -0.0012997725   0.0355726581  -0.0055772515
        0.0048881136  -0.2538483450   0.0357528606  -0.0794649409   0.2359267483
       -0.0324178627   0.0758765998
