      -----------------------------------------------------------      
     |                   =====================                   |     
     |                           x T B                           |     
     |                   =====================                   |     
     |                         S. Grimme                         |     
     |          Mulliken Center for Theoretical Chemistry        |     
     |                    University of Bonn                     |     
      -----------------------------------------------------------      

   * xtb version 6.2.2 (9d81278992624c895f80dd42a50cac0aa55982e2) compiled by '@Darwin' on 04/03/2020

   xtb is free software: you can redistribute it and/or modify it under
   the terms of the GNU Lesser General Public License as published by
   the Free Software Foundation, either version 3 of the License, or
   (at your option) any later version.
   
   xtb is distributed in the hope that it will be useful,
   but WITHOUT ANY WARRANTY; without even the implied warranty of
   MERCHANTABILITY or FITNESS FOR A PARTICULAR PURPOSE.  See the
   GNU Lesser General Public License for more details.
   
   Cite this work as:
   * S. Grimme, C. Bannwarth, P. Shushkov, J. Chem. Theory Comput., 2017,
     13, 1989-2009. DOI: 10.1021/acs.jctc.7b00118
   * C. Bannwarth, S. Ehlert and S. Grimme., J. Chem. Theory Comput., 2019,
     15, 1652-1671. DOI: 10.1021/acs.jctc.8b01176
   * P. Pracht, E. Caldeweyher, S. Ehlert, S. Grimme, ChemRxiv, 2019, preprint.
     DOI: 10.26434/chemrxiv.8326202.v1
   
   for DFT-D4:
   * E. Caldeweyher, C. Bannwarth and S. Grimme, J. Chem. Phys., 2017,
     147, 034112. DOI: 10.1063/1.4993215
   * E. Caldeweyher, S. Ehlert, A. Hansen, H. Neugebauer, S. Spicher,
     C. Bannwarth and S. Grimme, J. Chem. Phys., 2019, 150, 154122.
     DOI: 10.1063/1.5090222
   
   for sTDA-xTB:
   * S. Grimme and C. Bannwarth, J. Chem. Phys., 2016, 145, 054103.
     DOI: 10.1063/1.4959605
   
   in the mass-spec context:
   * V. Asgeirsson, C. Bauer and S. Grimme, Chem. Sci., 2017, 8, 4879.
     DOI: 10.1039/c7sc00601b
   
   for metadynamics refer to:
   * S. Grimme, J. Chem. Theory Comput., 2019, 155, 2847-2862
     DOI: 10.1021/acs.jctc.9b00143
   
   with help from (in alphabetical order)
   C. Bannwarth, F. Bohle, G. Brandenburg, E. Caldeweyher, M. Checinski,
   S. Dohm, S. Ehlert, S. Ehrlich, F. März, H. Neugebauer, J. Pisarek,
   P. Pracht, P. Shushkov, and S. Spicher.
   
 * started run on 2020/05/12 at 11:45:18.484     

           -------------------------------------------------
          |                Calculation Setup                |
           -------------------------------------------------

          program call               : xtb --input C3O1_3_S_2.input C3O1_3_S_2.xyz --ohess --molden --namespace C3O1_3_S_2 output.out
          calculation namespace      : C3O1_3_S_2
          coordinate file            : C3O1_3_S_2.xyz
          number of atoms            :                     4
          number of electrons        :                    18
          charge                     :                     0
          spin                       :                   1.0
          first test random number   :      0.23810534300554

   ID    Z sym.   atoms
    1    6 C      1-3
    2    8 O      4

           -------------------------------------------------
          |                 G F N 2 - x T B                 |
           -------------------------------------------------

        Reference                      10.1021/acs.jctc.8b01176
      * Hamiltonian:
        H0-scaling (s, p, d)           1.850000    2.230000    2.230000
        zeta-weighting                 0.500000
      * Dispersion:
        s8                             2.700000
        a1                             0.520000
        a2                             5.000000
        s9                             5.000000
      * Repulsion:
        kExp                           1.500000    1.000000
        rExp                           1.000000
      * Coulomb:
        alpha                          2.000000
        third order                    shell-resolved
        anisotropic                    true
        a3                             3.000000
        a5                             4.000000
        cn-shift                       1.200000
        cn-exp                         4.000000
        max-rad                        5.000000


          ...................................................
          :                      SETUP                      :
          :.................................................:
          :  # basis functions                  16          :
          :  # atomic orbitals                  16          :
          :  # shells                            8          :
          :  # electrons                        18          :
          :  max. iterations                   250          :
          :  Hamiltonian                  GFN2-xTB          :
          :  restarted?                      false          :
          :  GBSA solvation                  false          :
          :  PC potential                    false          :
          :  electronic temp.          300.0000000     K    :
          :  accuracy                    1.0000000          :
          :  -> integral cutoff          0.2500000E+02      :
          :  -> integral neglect         0.1000000E-07      :
          :  -> SCF convergence          0.1000000E-05 Eh   :
          :  -> wf. convergence          0.1000000E-03 e    :
          :  Broyden damping             0.4000000          :
          ...................................................

 iter      E             dE          RMSdq      gap      omega  full diag
   1    -10.0758458 -0.100758E+02  0.972E+00    0.74       0.0  T
   2    -10.0195493  0.562965E-01  0.629E+00    0.94       1.0  T
   3     -8.9668529  0.105270E+01  0.122E+01    1.87       1.0  T
   4    -10.0786336 -0.111178E+01  0.217E+00    0.70       1.0  T
   5    -10.0912042 -0.125706E-01  0.923E-01    0.76       1.0  T
   6    -10.0924138 -0.120964E-02  0.682E-01    0.75       1.0  T
   7    -10.0924724 -0.585036E-04  0.264E-01    0.73       1.0  T
   8    -10.0924747 -0.237592E-05  0.114E-01    0.72       1.0  T
   9    -10.0925089 -0.341246E-04  0.760E-02    0.73       1.0  T
  10    -10.0925210 -0.121314E-04  0.243E-02    0.73       2.1  T
  11    -10.0925216 -0.613443E-06  0.118E-02    0.73       4.3  T
  12    -10.0925224 -0.764004E-06  0.196E-03    0.73      25.5  T
  13    -10.0925224  0.173084E-08  0.126E-03    0.73      39.7  T
  14    -10.0925224 -0.647953E-08  0.675E-05    0.73     741.2  T
  15    -10.0925224  0.806288E-11  0.731E-05    0.73     684.2  T

   *** convergence criteria satisfied after 15 iterations ***

         #    Occupation            Energy/Eh            Energy/eV
      -------------------------------------------------------------
         1        2.0000           -0.8100804             -22.0434
       ...           ...                  ...                  ...
         4        2.0000           -0.6543099             -17.8047
         5        2.0000           -0.6029348             -16.4067
         6        2.0000           -0.5525907             -15.0368
         7        2.0000           -0.5231676             -14.2361
         8        2.0000           -0.4945578             -13.4576
         9        1.0000           -0.4464744             -12.1492
        10        1.0000           -0.4037995             -10.9879 (HOMO)
        11        0.0000           -0.3770359             -10.2597 (LUMO)
        12                         -0.3720158             -10.1231
        13                         -0.1473847              -4.0105
        14                          0.0251988               0.6857
        15                          0.0680326               1.8513
        16                          0.1763882               4.7998
      -------------------------------------------------------------
                  HL-Gap            0.0267636 Eh            0.7283 eV
             Fermi-level           -0.4304681 Eh          -11.7136 eV

 transition dipole moment (au) for excitation:           9          10
     X       Y       Z   
   0.5298  -0.0659  -0.0239  total (au/Debye):    0.534   1.358
 dE (eV)             :    1.161
 oscillator strength :  0.11490E-01

 SCC (total)                   0 d,  0 h,  0 min,  0.005 sec
 SCC setup                      ...        0 min,  0.000 sec (  1.853%)
 Dispersion                     ...        0 min,  0.000 sec (  0.272%)
 integral evaluation            ...        0 min,  0.001 sec ( 23.276%)
 zeroth order Hamiltonian       ...        0 min,  0.000 sec (  0.390%)
 iterations                     ...        0 min,  0.002 sec ( 33.354%)
 molecular gradient             ...        0 min,  0.001 sec ( 22.583%)
 printout                       ...        0 min,  0.001 sec ( 18.025%)

         :::::::::::::::::::::::::::::::::::::::::::::::::::::
         ::                     SUMMARY                     ::
         :::::::::::::::::::::::::::::::::::::::::::::::::::::
         :: total energy             -10.043698424165 Eh    ::
         :: gradient norm              0.172836658844 Eh/a0 ::
         :: HOMO-LUMO gap              0.728274917014 eV    ::
         ::.................................................::
         :: SCC energy               -10.092522364319 Eh    ::
         :: -> isotropic ES           -0.012319937693 Eh    ::
         :: -> anisotropic ES          0.001279933129 Eh    ::
         :: -> anisotropic XC          0.002095892751 Eh    ::
         :: -> dispersion             -0.001674700042 Eh    ::
         :: repulsion energy           0.048823926369 Eh    ::
         :: add. restraining           0.000000000000 Eh    ::
         :::::::::::::::::::::::::::::::::::::::::::::::::::::

      ----------------------------------------------------------- 
     |                   =====================                   |
     |                        A N C O P T                        |
     |                   =====================                   |
     |               Approximate Normal Coordinate               |
     |                Rational Function Optimizer                |
      ----------------------------------------------------------- 

          ...................................................
          :                      SETUP                      :
          :.................................................:
          :   optimization level            normal          :
          :   max. optcycles                   200          :
          :   ANC micro-cycles                  20          :
          :   degrees of freedom                 6          :
          :.................................................:
          :   RF solver                   davidson          :
          :   write xtbopt.log                true          :
          :   linear?                        false          :
          :   energy convergence         0.5000000E-05 Eh   :
          :   grad. convergence          0.1000000E-02 Eh/α :
          :   maximium RF displ.         1.0000000          :
          :   Hlow (freq-cutoff)         0.1000000E-01      :
          :   Hmax (freq-cutoff)         5.0000000          :
          :   S6 in model hess.         20.0000000          :
          ...................................................

generating ANC from model Hessian ...
Using Lindh-Hessian (1995)
 Shifting diagonal of input Hessian by    0.0000000000000000     
 Lowest  eigenvalues of input Hessian
   -0.000000   -0.000000   -0.000000   -0.000000    0.000000    0.000000
    0.068702    0.130876    0.740909    0.896297    1.040512    1.615162
 Highest eigenvalues
    0.068702    0.130876    0.740909    0.896297    1.040512    1.615162


........................................................................
.............................. CYCLE    1 ..............................
........................................................................
   1    -10.0925224 -0.100925E+02  0.435E-06    0.73       0.0  T
   2    -10.0925224  0.895284E-12  0.112E-05    0.73    4454.8  T
   3    -10.0925224 -0.905942E-12  0.326E-06    0.73   15354.9  T
     SCC iter.                  ...        0 min,  0.000 sec
     gradient                   ...        0 min,  0.001 sec
 * total energy  :   -10.0436984 Eh     change        0.2537739E-09 Eh
   gradient norm :     0.1728369 Eh/α   predicted     0.0000000E+00 (-100.00%)
   displ. norm   :     0.2569269 α      lambda       -0.3656894E-01
   maximum displ.:     0.1742447 α      in ANC's #2, #3, #5, ...

........................................................................
.............................. CYCLE    2 ..............................
........................................................................
   1    -10.1386200 -0.101386E+02  0.184E+00    0.78       0.0  T
   2    -10.0215400  0.117080E+00  0.459E+00    0.57       1.0  T
   3    -10.1430015 -0.121462E+00  0.118E+00    0.79       1.0  T
   4    -10.1438186 -0.817049E-03  0.765E-01    0.72       1.0  T
   5    -10.1456017 -0.178307E-02  0.296E-01    0.74       1.0  T
   6    -10.1456769 -0.752461E-04  0.237E-01    0.74       1.0  T
   7    -10.1458876 -0.210660E-03  0.804E-02    0.72       1.0  T
   8    -10.1459089 -0.213582E-04  0.274E-02    0.72       1.8  T
   9    -10.1459112 -0.226068E-05  0.483E-03    0.72      10.4  T
  10    -10.1459113 -0.747175E-07  0.298E-04    0.72     167.6  T
  11    -10.1459113 -0.156710E-10  0.816E-05    0.72     612.8  T
     SCC iter.                  ...        0 min,  0.001 sec
     gradient                   ...        0 min,  0.001 sec
 * total energy  :   -10.0740293 Eh     change       -0.3033085E-01 Eh
   gradient norm :     0.1115402 Eh/α   predicted    -0.1949146E-01 ( -35.74%)
   displ. norm   :     0.3978849 α      lambda       -0.3861548E-01
   maximum displ.:     0.2564035 α      in ANC's #3, #2, #5, ...

........................................................................
.............................. CYCLE    3 ..............................
........................................................................
   1    -10.2242528 -0.102243E+02  0.287E+00    0.63       0.0  T
   2    -10.1059954  0.118257E+00  0.530E+00    0.41       1.0  T
   3    -10.2241983 -0.118203E+00  0.204E+00    0.69       1.0  T
   4    -10.2255451 -0.134682E-02  0.130E+00    0.61       1.0  T
   5    -10.2295912 -0.404605E-02  0.879E-01    0.61       1.0  T
   6    -10.2304745 -0.883362E-03  0.668E-01    0.59       1.0  T
   7    -10.2317865 -0.131197E-02  0.193E-01    0.53       1.0  T
   8    -10.2318712 -0.846960E-04  0.706E-02    0.52       1.0  T
   9    -10.2318835 -0.123024E-04  0.157E-02    0.51       3.2  T
  10    -10.2318843 -0.738840E-06  0.113E-02    0.51       4.4  T
  11    -10.2318845 -0.285783E-06  0.300E-03    0.51      16.7  T
  12    -10.2318846 -0.280794E-07  0.190E-04    0.51     263.4  T
  13    -10.2318846  0.483098E-10  0.161E-04    0.51     310.5  T
     SCC iter.                  ...        0 min,  0.001 sec
     gradient                   ...        0 min,  0.001 sec
 * total energy  :   -10.0861538 Eh     change       -0.1212455E-01 Eh
   gradient norm :     0.1315518 Eh/α   predicted    -0.2236439E-01 (  84.46%)
   displ. norm   :     0.2693316 α      lambda       -0.2076777E-01
   maximum displ.:     0.2288841 α      in ANC's #2, #1, #3, ...

........................................................................
.............................. CYCLE    4 ..............................
........................................................................
   1    -10.1925116 -0.101925E+02  0.164E+00    0.56       0.0  T
   2    -10.1728464  0.196651E-01  0.213E+00    0.24       1.0  T
   3    -10.1845721 -0.117257E-01  0.159E+00    0.68       1.0  T
   4    -10.1936905 -0.911844E-02  0.778E-01    0.48       1.0  T
   5    -10.1944001 -0.709533E-03  0.355E-01    0.45       1.0  T
   6    -10.1945071 -0.107006E-03  0.270E-01    0.44       1.0  T
   7    -10.1946742 -0.167120E-03  0.207E-02    0.41       2.4  T
   8    -10.1946746 -0.393729E-06  0.842E-03    0.41       5.9  T
   9    -10.1946746 -0.426606E-07  0.194E-03    0.41      25.8  T
  10    -10.1946746  0.886010E-08  0.220E-03    0.41      22.7  T
  11    -10.1946746 -0.127037E-07  0.105E-04    0.41     475.6  T
  12    -10.1946746 -0.196057E-10  0.311E-05    0.41    1605.3  T
     SCC iter.                  ...        0 min,  0.001 sec
     gradient                   ...        0 min,  0.001 sec
 * total energy  :   -10.0940446 Eh     change       -0.7890739E-02 Eh
   gradient norm :     0.0384546 Eh/α   predicted    -0.1113712E-01 (  41.14%)
   displ. norm   :     0.0476215 α      lambda       -0.1490032E-02
   maximum displ.:     0.0367639 α      in ANC's #3, #5, #2, ...

........................................................................
.............................. CYCLE    5 ..............................
........................................................................
   1    -10.2045463 -0.102045E+02  0.409E-01    0.45       0.0  T
   2    -10.2042644  0.281924E-03  0.327E-01    0.40       1.0  T
   3    -10.2039575  0.306823E-03  0.400E-01    0.50       1.0  T
   4    -10.2045926 -0.635047E-03  0.904E-02    0.44       1.0  T
   5    -10.2046093 -0.167257E-04  0.321E-02    0.44       1.6  T
   6    -10.2046098 -0.457029E-06  0.204E-02    0.44       2.4  T
   7    -10.2046106 -0.816643E-06  0.197E-03    0.44      25.3  T
   8    -10.2046106 -0.573683E-08  0.129E-03    0.44      38.8  T
   9    -10.2046106 -0.242332E-08  0.144E-04    0.44     347.3  T
  10    -10.2046106 -0.191935E-10  0.918E-05    0.44     544.5  T
     SCC iter.                  ...        0 min,  0.001 sec
     gradient                   ...        0 min,  0.001 sec
 * total energy  :   -10.0952479 Eh     change       -0.1203325E-02 Eh
   gradient norm :     0.0226711 Eh/α   predicted    -0.7467052E-03 ( -37.95%)
   displ. norm   :     0.1521920 α      lambda       -0.2207779E-02
   maximum displ.:     0.0922619 α      in ANC's #3, #1, #2, ...

........................................................................
.............................. CYCLE    6 ..............................
........................................................................
   1    -10.2191744 -0.102192E+02  0.103E+00    0.54       0.0  T
   2    -10.2191356  0.388513E-04  0.612E-01    0.44       1.0  T
   3    -10.2177702  0.136536E-02  0.635E-01    0.62       1.0  T
   4    -10.2189280 -0.115780E-02  0.348E-01    0.46       1.0  T
   5    -10.2194973 -0.569329E-03  0.596E-02    0.50       1.0  T
   6    -10.2194981 -0.732796E-06  0.368E-02    0.50       1.4  T
   7    -10.2194998 -0.169455E-05  0.552E-03    0.50       9.1  T
   8    -10.2194999 -0.967073E-07  0.204E-03    0.50      24.5  T
   9    -10.2194999 -0.293569E-08  0.173E-04    0.50     289.2  T
  10    -10.2194999 -0.796359E-10  0.103E-04    0.50     483.8  T
     SCC iter.                  ...        0 min,  0.001 sec
     gradient                   ...        0 min,  0.001 sec
 * total energy  :   -10.0967934 Eh     change       -0.1545569E-02 Eh
   gradient norm :     0.0182284 Eh/α   predicted    -0.1129458E-02 ( -26.92%)
   displ. norm   :     0.1973141 α      lambda       -0.1713244E-02
   maximum displ.:     0.1122974 α      in ANC's #3, #2, #1, ...

........................................................................
.............................. CYCLE    7 ..............................
........................................................................
   1    -10.2265050 -0.102265E+02  0.126E+00    0.64       0.0  T
   2    -10.2267023 -0.197299E-03  0.769E-01    0.60       1.0  T
   3    -10.2265083  0.193957E-03  0.611E-01    0.60       1.0  T
   4    -10.2262128  0.295482E-03  0.387E-01    0.69       1.0  T
   5    -10.2272241 -0.101129E-02  0.419E-02    0.61       1.2  T
   6    -10.2272239  0.236420E-06  0.233E-02    0.62       2.1  T
   7    -10.2272247 -0.841742E-06  0.362E-03    0.62      13.8  T
   8    -10.2272247 -0.923021E-08  0.178E-03    0.62      28.0  T
   9    -10.2272247 -0.302450E-08  0.236E-04    0.62     212.3  T
  10    -10.2272247 -0.140666E-09  0.603E-05    0.62     828.5  T
     SCC iter.                  ...        0 min,  0.001 sec
     gradient                   ...        0 min,  0.001 sec
 * total energy  :   -10.0984694 Eh     change       -0.1675932E-02 Eh
   gradient norm :     0.0234352 Eh/α   predicted    -0.8899724E-03 ( -46.90%)
   displ. norm   :     0.1776896 α      lambda       -0.1927485E-02
   maximum displ.:     0.1102017 α      in ANC's #3, #2, #1, ...

........................................................................
.............................. CYCLE    8 ..............................
........................................................................
   1    -10.2326517 -0.102327E+02  0.113E+00    0.77       0.0  T
   2    -10.2328030 -0.151283E-03  0.722E-01    0.75       1.0  T
   3    -10.2322382  0.564815E-03  0.570E-01    0.72       1.0  T
   4    -10.2305564  0.168183E-02  0.619E-01    0.84       1.0  T
   5    -10.2332167 -0.266030E-02  0.388E-02    0.74       1.3  T
   6    -10.2332239 -0.726625E-05  0.153E-02    0.75       3.3  T
   7    -10.2332239  0.732637E-07  0.707E-03    0.75       7.1  T
   8    -10.2332240 -0.116581E-06  0.108E-03    0.75      46.2  T
   9    -10.2332240 -0.213295E-08  0.125E-04    0.75     400.2  T
  10    -10.2332240 -0.584244E-11  0.541E-05    0.75     924.3  T
     SCC iter.                  ...        0 min,  0.001 sec
     gradient                   ...        0 min,  0.001 sec
 * total energy  :   -10.1006796 Eh     change       -0.2210180E-02 Eh
   gradient norm :     0.0310310 Eh/α   predicted    -0.9941687E-03 ( -55.02%)
   displ. norm   :     0.2036443 α      lambda       -0.3162737E-02
   maximum displ.:     0.1303276 α      in ANC's #3, #2, #4, ...

........................................................................
.............................. CYCLE    9 ..............................
........................................................................
   1    -10.2370388 -0.102370E+02  0.124E+00    0.97       0.0  T
   2    -10.2368528  0.186004E-03  0.850E-01    0.96       1.0  T
   3    -10.2327015  0.415132E-02  0.905E-01    0.86       1.0  T
   4    -10.2321337  0.567768E-03  0.929E-01    1.04       1.0  T
   5    -10.2375903 -0.545664E-02  0.705E-02    0.93       1.0  T
   6    -10.2376095 -0.191544E-04  0.358E-02    0.94       1.4  T
   7    -10.2376101 -0.616171E-06  0.201E-02    0.94       2.5  T
   8    -10.2376102 -0.141019E-06  0.734E-03    0.93       6.8  T
   9    -10.2376104 -0.172703E-06  0.907E-04    0.93      55.1  T
  10    -10.2376104 -0.111602E-08  0.477E-04    0.93     104.7  T
     SCC iter.                  ...        0 min,  0.001 sec
     gradient                   ...        0 min,  0.001 sec
 * total energy  :   -10.1041189 Eh     change       -0.3439362E-02 Eh
   gradient norm :     0.0422575 Eh/α   predicted    -0.1646951E-02 ( -52.11%)
   displ. norm   :     0.1629783 α      lambda       -0.4478087E-02
   maximum displ.:     0.1084825 α      in ANC's #3, #4, #5, ...

........................................................................
.............................. CYCLE   10 ..............................
........................................................................
   1    -10.2506049 -0.102506E+02  0.114E+00    1.16       0.0  T
   2    -10.2500344  0.570506E-03  0.864E-01    1.15       1.0  T
   3    -10.2413769  0.865746E-02  0.112E+00    1.05       1.0  T
   4    -10.2472764 -0.589951E-02  0.853E-01    1.19       1.0  T
   5    -10.2510232 -0.374682E-02  0.834E-02    1.12       1.0  T
   6    -10.2510322 -0.894368E-05  0.584E-02    1.13       1.0  T
   7    -10.2510382 -0.598434E-05  0.330E-02    1.13       1.5  T
   8    -10.2510395 -0.132673E-05  0.101E-02    1.12       4.9  T
   9    -10.2510398 -0.263611E-06  0.126E-03    1.12      39.8  T
  10    -10.2510398 -0.286689E-08  0.333E-04    1.12     150.2  T
  11    -10.2510398 -0.110829E-09  0.225E-05    1.12    2220.3  T
     SCC iter.                  ...        0 min,  0.001 sec
     gradient                   ...        0 min,  0.001 sec
 * total energy  :   -10.1086171 Eh     change       -0.4498170E-02 Eh
   gradient norm :     0.0482349 Eh/α   predicted    -0.2298516E-02 ( -48.90%)
   displ. norm   :     0.3121134 α      lambda       -0.6456105E-02
   maximum displ.:     0.1884159 α      in ANC's #2, #3, #1, ...

........................................................................
.............................. CYCLE   11 ..............................
........................................................................
   1    -10.2247894 -0.102248E+02  0.166E+00    1.48       0.0  T
   2    -10.2110062  0.137832E-01  0.197E+00    1.48       1.0  T
   3    -10.2192002 -0.819404E-02  0.122E+00    1.40       1.0  T
   4    -10.2220095 -0.280921E-02  0.111E+00    1.51       1.0  T
   5    -10.2267679 -0.475843E-02  0.142E-01    1.45       1.0  T
   6    -10.2267930 -0.251251E-04  0.970E-02    1.45       1.0  T
   7    -10.2267924  0.559718E-06  0.417E-02    1.45       1.2  T
   8    -10.2267911  0.132851E-05  0.374E-02    1.45       1.3  T
   9    -10.2267950 -0.390215E-05  0.870E-03    1.45       5.8  T
  10    -10.2267952 -0.221760E-06  0.172E-03    1.45      29.0  T
  11    -10.2267952 -0.200125E-08  0.140E-04    1.45     356.7  T
  12    -10.2267952 -0.228226E-10  0.933E-05    1.45     535.7  T
     SCC iter.                  ...        0 min,  0.001 sec
     gradient                   ...        0 min,  0.001 sec
 * total energy  :   -10.1104310 Eh     change       -0.1813908E-02 Eh
   gradient norm :     0.0922515 Eh/α   predicted    -0.3542505E-02 (  95.30%)
   displ. norm   :     0.3843278 α      lambda       -0.1806675E-01
   maximum displ.:     0.2189428 α      in ANC's #4, #3, #5, ...

........................................................................
.............................. CYCLE   12 ..............................
........................................................................
   1    -10.2489347 -0.102489E+02  0.346E+00    1.75       0.0  T
   2    -10.2436330  0.530176E-02  0.189E+00    1.64       1.0  T
   3    -10.2340592  0.957374E-02  0.331E+00    1.69       1.0  T
   4    -10.2388042 -0.474498E-02  0.186E+00    1.74       1.0  T
   5    -10.2526403 -0.138361E-01  0.450E-01    1.67       1.0  T
   6    -10.2525197  0.120561E-03  0.507E-01    1.67       1.0  T
   7    -10.2525631 -0.433836E-04  0.443E-01    1.67       1.0  T
   8    -10.2529064 -0.343307E-03  0.667E-02    1.67       1.0  T
   9    -10.2529057  0.705284E-06  0.665E-02    1.67       1.0  T
  10    -10.2529084 -0.270639E-05  0.212E-02    1.67       2.4  T
  11    -10.2529092 -0.739366E-06  0.789E-03    1.67       6.3  T
  12    -10.2529092 -0.666299E-08  0.617E-03    1.67       8.1  T
  13    -10.2529092 -0.201260E-07  0.700E-04    1.67      71.4  T
  14    -10.2529092 -0.249686E-09  0.504E-05    1.67     992.7  T
     SCC iter.                  ...        0 min,  0.001 sec
     gradient                   ...        0 min,  0.001 sec
 * total energy  :   -10.1265696 Eh     change       -0.1613860E-01 Eh
   gradient norm :     0.1073808 Eh/α   predicted    -0.1036767E-01 ( -35.76%)
   displ. norm   :     0.8547481 α      lambda       -0.5378165E-01
   maximum displ.:     0.4961292 α      in ANC's #1, #4, #5, ...

........................................................................
.............................. CYCLE   13 ..............................
........................................................................
   1    -10.2571186 -0.102571E+02  0.527E+00    1.71       0.0  T
   2     -9.9739561  0.283163E+00  0.767E+00    1.23       1.0  T
   3    -10.2974372 -0.323481E+00  0.285E+00    1.61       1.0  T
   4    -10.3133020 -0.158648E-01  0.856E-01    1.50       1.0  T
   5    -10.3153159 -0.201399E-02  0.329E-01    1.49       1.0  T
   6    -10.3152116  0.104350E-03  0.274E-01    1.49       1.0  T
   7    -10.3155917 -0.380058E-03  0.697E-02    1.50       1.0  T
   8    -10.3156081 -0.164491E-04  0.149E-02    1.50       3.3  T
   9    -10.3156080  0.710552E-07  0.889E-03    1.50       5.6  T
  10    -10.3156083 -0.217694E-06  0.821E-04    1.50      60.9  T
  11    -10.3156083 -0.103888E-09  0.448E-04    1.50     111.6  T
     SCC iter.                  ...        0 min,  0.001 sec
     gradient                   ...        0 min,  0.001 sec
 * total energy  :   -10.1241305 Eh     change        0.2439087E-02 Eh
   gradient norm :     0.2875897 Eh/α   predicted    -0.4653713E-01 (*******%)
   displ. norm   :     0.3638993 α      lambda       -0.6071727E-01
   maximum displ.:     0.3345447 α      in ANC's #1, #4, #5, ...

........................................................................
.............................. CYCLE   14 ..............................
........................................................................
   1    -10.2568102 -0.102568E+02  0.194E+00    1.74       0.0  T
   2    -10.2431898  0.136204E-01  0.209E+00    1.86       1.0  T
   3    -10.2585788 -0.153890E-01  0.130E+00    1.76       1.0  T
   4    -10.2626230 -0.404413E-02  0.743E-01    1.81       1.0  T
   5    -10.2645495 -0.192654E-02  0.876E-02    1.81       1.0  T
   6    -10.2645509 -0.137612E-05  0.751E-02    1.81       1.0  T
   7    -10.2645692 -0.182663E-04  0.246E-02    1.81       2.0  T
   8    -10.2645706 -0.141272E-05  0.573E-03    1.81       8.7  T
   9    -10.2645706 -0.274046E-07  0.625E-04    1.81      80.0  T
  10    -10.2645706 -0.913841E-09  0.212E-04    1.81     235.7  T
     SCC iter.                  ...        0 min,  0.001 sec
     gradient                   ...        0 min,  0.001 sec
 * total energy  :   -10.1476978 Eh     change       -0.2356724E-01 Eh
   gradient norm :     0.1972612 Eh/α   predicted    -0.3437880E-01 (  45.88%)
   displ. norm   :     0.8488208 α      lambda       -0.6409136E-01
   maximum displ.:     0.5172867 α      in ANC's #2, #3, #4, ...

........................................................................
.............................. CYCLE   15 ..............................
........................................................................
   1    -10.3508294 -0.103508E+02  0.397E+00    1.61       0.0  T
   2    -10.3510428 -0.213440E-03  0.293E+00    1.73       1.0  T
   3    -10.3417129  0.932996E-02  0.238E+00    1.62       1.0  T
   4    -10.3600696 -0.183567E-01  0.781E-01    1.70       1.0  T
   5    -10.3613013 -0.123170E-02  0.221E-01    1.69       1.0  T
   6    -10.3614172 -0.115906E-03  0.137E-01    1.69       1.0  T
   7    -10.3614358 -0.186483E-04  0.148E-02    1.70       3.4  T
   8    -10.3614357  0.118976E-06  0.128E-02    1.70       3.9  T
   9    -10.3614361 -0.408832E-06  0.245E-03    1.70      20.4  T
  10    -10.3614361 -0.583945E-08  0.291E-04    1.70     171.8  T
  11    -10.3614361 -0.210392E-10  0.103E-04    1.70     484.7  T
     SCC iter.                  ...        0 min,  0.001 sec
     gradient                   ...        0 min,  0.001 sec
 * total energy  :   -10.1179515 Eh     change        0.2974624E-01 Eh
   gradient norm :     0.2732665 Eh/α   predicted    -0.5513443E-01 (-285.35%)
   displ. norm   :     0.3976550 α      lambda       -0.4983443E-01
   maximum displ.:     0.2246048 α      in ANC's #4, #2, #3, ...

........................................................................
.............................. CYCLE   16 ..............................
........................................................................
   1    -10.3427906 -0.103428E+02  0.230E+00    1.62       0.0  T
   2    -10.3414773  0.131323E-02  0.173E+00    1.55       1.0  T
   3    -10.3411504  0.326914E-03  0.132E+00    1.62       1.0  T
   4    -10.3452889 -0.413846E-02  0.624E-01    1.57       1.0  T
   5    -10.3468456 -0.155673E-02  0.144E-01    1.58       1.0  T
   6    -10.3469391 -0.935346E-04  0.540E-02    1.58       1.0  T
   7    -10.3469411 -0.195077E-05  0.583E-03    1.58       8.6  T
   8    -10.3469411 -0.214180E-07  0.289E-03    1.58      17.3  T
   9    -10.3469411 -0.668943E-08  0.205E-04    1.58     244.0  T
  10    -10.3469411 -0.229292E-10  0.783E-05    1.58     638.8  T
     SCC iter.                  ...        0 min,  0.001 sec
     gradient                   ...        0 min,  0.001 sec
 * total energy  :   -10.1563060 Eh     change       -0.3835453E-01 Eh
   gradient norm :     0.0873031 Eh/α   predicted    -0.2885736E-01 ( -24.76%)
   displ. norm   :     0.7012084 α      lambda       -0.3640201E-01
   maximum displ.:     0.4148090 α      in ANC's #4, #5, #3, ...

........................................................................
.............................. CYCLE   17 ..............................
........................................................................
   1    -10.2847469 -0.102847E+02  0.318E+00    1.97       0.0  T
   2    -10.2711609  0.135860E-01  0.272E+00    1.87       1.0  T
   3    -10.2760471 -0.488615E-02  0.210E+00    1.98       1.0  T
   4    -10.2926537 -0.166067E-01  0.986E-01    1.93       1.0  T
   5    -10.2961664 -0.351270E-02  0.180E-01    1.94       1.0  T
   6    -10.2962437 -0.773077E-04  0.104E-01    1.94       1.0  T
   7    -10.2962605 -0.167928E-04  0.153E-02    1.94       3.3  T
   8    -10.2962610 -0.463327E-06  0.706E-03    1.94       7.1  T
   9    -10.2962610 -0.333541E-07  0.716E-04    1.94      69.9  T
  10    -10.2962610 -0.135471E-08  0.217E-04    1.94     230.5  T
     SCC iter.                  ...        0 min,  0.001 sec
     gradient                   ...        0 min,  0.001 sec
 * total energy  :   -10.1505998 Eh     change        0.5706239E-02 Eh
   gradient norm :     0.2002787 Eh/α   predicted    -0.2715032E-01 (-575.80%)
   displ. norm   :     0.3560970 α      lambda       -0.3364721E-01
   maximum displ.:     0.1908717 α      in ANC's #4, #5, #3, ...

........................................................................
.............................. CYCLE   18 ..............................
........................................................................
   1    -10.3296535 -0.103297E+02  0.164E+00    1.69       0.0  T
   2    -10.3282279  0.142567E-02  0.131E+00    1.74       1.0  T
   3    -10.3274750  0.752835E-03  0.109E+00    1.69       1.0  T
   4    -10.3322614 -0.478633E-02  0.491E-01    1.72       1.0  T
   5    -10.3330210 -0.759697E-03  0.556E-02    1.71       1.0  T
   6    -10.3330184  0.269212E-05  0.352E-02    1.71       1.4  T
   7    -10.3330230 -0.459718E-05  0.710E-03    1.71       7.0  T
   8    -10.3330230 -0.915537E-07  0.282E-03    1.71      17.7  T
   9    -10.3330230 -0.549294E-08  0.189E-04    1.71     264.5  T
  10    -10.3330230 -0.913403E-11  0.673E-05    1.71     743.4  T
     SCC iter.                  ...        0 min,  0.001 sec
     gradient                   ...        0 min,  0.001 sec
 * total energy  :   -10.1688666 Eh     change       -0.1826677E-01 Eh
   gradient norm :     0.1007501 Eh/α   predicted    -0.1895690E-01 (   3.78%)
   displ. norm   :     0.0500726 α      lambda       -0.3162614E-02
   maximum displ.:     0.0432558 α      in ANC's #3, #2, #6, ...

........................................................................
.............................. CYCLE   19 ..............................
........................................................................
   1    -10.3393639 -0.103394E+02  0.267E-01    1.66       0.0  T
   2    -10.3393127  0.511171E-04  0.214E-01    1.67       1.0  T
   3    -10.3393429 -0.301520E-04  0.176E-01    1.66       1.0  T
   4    -10.3394695 -0.126631E-03  0.752E-02    1.67       1.0  T
   5    -10.3394819 -0.124104E-04  0.649E-03    1.66       7.7  T
   6    -10.3394820 -0.224420E-07  0.163E-03    1.66      30.7  T
   7    -10.3394820 -0.567016E-08  0.624E-04    1.66      80.2  T
   8    -10.3394820 -0.152979E-08  0.244E-04    1.66     204.9  T
     SCC iter.                  ...        0 min,  0.001 sec
     gradient                   ...        0 min,  0.001 sec
 * total energy  :   -10.1716509 Eh     change       -0.2784290E-02 Eh
   gradient norm :     0.0776888 Eh/α   predicted    -0.1585272E-02 ( -43.06%)
   displ. norm   :     0.2371468 α      lambda       -0.1298254E-01
   maximum displ.:     0.1602565 α      in ANC's #3, #5, #4, ...

........................................................................
.............................. CYCLE   20 ..............................
........................................................................
   1    -10.3573905 -0.103574E+02  0.127E+00    1.41       0.0  T
   2    -10.3567645  0.626002E-03  0.850E-01    1.45       1.0  T
   3    -10.3531267  0.363780E-02  0.102E+00    1.39       1.0  T
   4    -10.3583359 -0.520920E-02  0.299E-01    1.42       1.0  T
   5    -10.3585618 -0.225895E-03  0.355E-02    1.42       1.4  T
   6    -10.3585634 -0.155509E-05  0.232E-02    1.42       2.2  T
   7    -10.3585638 -0.466104E-06  0.334E-03    1.42      15.0  T
   8    -10.3585639 -0.350838E-07  0.117E-03    1.42      42.8  T
   9    -10.3585639 -0.211017E-09  0.985E-05    1.42     507.6  T
  10    -10.3585639 -0.753175E-11  0.198E-05    1.42    2527.1  T
     SCC iter.                  ...        0 min,  0.001 sec
     gradient                   ...        0 min,  0.001 sec
 * total energy  :   -10.1807429 Eh     change       -0.9092067E-02 Eh
   gradient norm :     0.0410848 Eh/α   predicted    -0.6856314E-02 ( -24.59%)
   displ. norm   :     0.3128718 α      lambda       -0.1041115E-01
   maximum displ.:     0.1681902 α      in ANC's #5, #4, #1, ...
 * RMSD in coord.:     1.3579193 α      energy gain  -0.1370445E+00 Eh

generating ANC from model Hessian ...
Using Lindh-Hessian (1995)
 Shifting diagonal of input Hessian by    0.0000000000000000     
 Lowest  eigenvalues of input Hessian
   -0.000000   -0.000000   -0.000000    0.000000    0.000000    0.000000
    0.097764    0.329708    0.469909    1.003910    1.844540    2.387937
 Highest eigenvalues
    0.097764    0.329708    0.469909    1.003910    1.844540    2.387937


........................................................................
.............................. CYCLE   21 ..............................
........................................................................
   1    -10.3604301 -0.103604E+02  0.144E+00    1.17       0.0  T
   2    -10.3604231  0.691548E-05  0.902E-01    1.16       1.0  T
   3    -10.3570354  0.338777E-02  0.752E-01    1.17       1.0  T
   4    -10.3605400 -0.350459E-02  0.771E-02    1.15       1.0  T
   5    -10.3605517 -0.116899E-04  0.507E-02    1.15       1.0  T
   6    -10.3605565 -0.479473E-05  0.582E-03    1.15       8.6  T
   7    -10.3605565 -0.603528E-07  0.326E-03    1.15      15.4  T
   8    -10.3605565 -0.710238E-08  0.143E-03    1.15      35.0  T
   9    -10.3605565 -0.235292E-08  0.153E-04    1.15     327.0  T
  10    -10.3605565 -0.968647E-11  0.129E-05    1.15    3863.9  T
     SCC iter.                  ...        0 min,  0.001 sec
     gradient                   ...        0 min,  0.001 sec
 * total energy  :   -10.1889213 Eh     change       -0.8178323E-02 Eh
   gradient norm :     0.0468047 Eh/α   predicted     0.0000000E+00 (-100.00%)
   displ. norm   :     0.2224122 α      lambda       -0.6087172E-02
   maximum displ.:     0.2191777 α      in ANC's #1, #2, #3, ...

........................................................................
.............................. CYCLE   22 ..............................
........................................................................
   1    -10.3613222 -0.103613E+02  0.801E-01    1.04       0.0  T
   2    -10.3613442 -0.219513E-04  0.506E-01    1.05       1.0  T
   3    -10.3598727  0.147145E-02  0.502E-01    1.03       1.0  T
   4    -10.3612447 -0.137195E-02  0.211E-01    1.04       1.0  T
   5    -10.3614746 -0.229922E-03  0.236E-02    1.04       2.1  T
   6    -10.3614743  0.319910E-06  0.137E-02    1.04       3.6  T
   7    -10.3614749 -0.589667E-06  0.195E-03    1.04      25.7  T
   8    -10.3614749 -0.246764E-08  0.939E-04    1.04      53.3  T
   9    -10.3614749 -0.187784E-09  0.834E-05    1.04     599.3  T
     SCC iter.                  ...        0 min,  0.001 sec
     gradient                   ...        0 min,  0.001 sec
 * total energy  :   -10.1939514 Eh     change       -0.5030183E-02 Eh
   gradient norm :     0.0347233 Eh/α   predicted    -0.3194142E-02 ( -36.50%)
   displ. norm   :     0.4321145 α      lambda       -0.8575204E-02
   maximum displ.:     0.4249731 α      in ANC's #1, #4, #2, ...

........................................................................
.............................. CYCLE   23 ..............................
........................................................................
   1    -10.3508489 -0.103508E+02  0.148E+00    0.78       0.0  T
   2    -10.3506908  0.158169E-03  0.919E-01    0.77       1.0  T
   3    -10.3427708  0.791999E-02  0.115E+00    0.78       1.0  T
   4    -10.3509767 -0.820587E-02  0.115E-01    0.77       1.0  T
   5    -10.3510395 -0.628183E-04  0.466E-02    0.77       1.1  T
   6    -10.3510400 -0.490552E-06  0.139E-02    0.77       3.6  T
   7    -10.3510407 -0.722319E-06  0.443E-03    0.77      11.3  T
   8    -10.3510407 -0.201474E-07  0.219E-03    0.77      22.8  T
   9    -10.3510407 -0.160219E-08  0.164E-04    0.77     304.8  T
  10    -10.3510407 -0.150333E-10  0.429E-05    0.77    1165.5  T
     SCC iter.                  ...        0 min,  0.001 sec
     gradient                   ...        0 min,  0.001 sec
 * total energy  :   -10.1990744 Eh     change       -0.5122921E-02 Eh
   gradient norm :     0.0703750 Eh/α   predicted    -0.5088180E-02 (  -0.68%)
   displ. norm   :     0.1309162 α      lambda       -0.3909254E-02
   maximum displ.:     0.1072196 α      in ANC's #1, #4, #6, ...

........................................................................
.............................. CYCLE   24 ..............................
........................................................................
   1    -10.3634657 -0.103635E+02  0.567E-01    0.68       0.0  T
   2    -10.3631859  0.279859E-03  0.431E-01    0.68       1.0  T
   3    -10.3627197  0.466149E-03  0.437E-01    0.67       1.0  T
   4    -10.3636669 -0.947175E-03  0.161E-01    0.68       1.0  T
   5    -10.3637437 -0.768249E-04  0.203E-02    0.67       2.5  T
   6    -10.3637438 -0.122577E-06  0.149E-02    0.67       3.4  T
   7    -10.3637443 -0.476321E-06  0.171E-03    0.67      29.2  T
   8    -10.3637443 -0.725381E-08  0.764E-04    0.67      65.5  T
   9    -10.3637443 -0.104291E-08  0.436E-05    0.67    1146.5  T
     SCC iter.                  ...        0 min,  0.001 sec
     gradient                   ...        0 min,  0.001 sec
 * total energy  :   -10.2022186 Eh     change       -0.3144237E-02 Eh
   gradient norm :     0.0410949 Eh/α   predicted    -0.1988126E-02 ( -36.77%)
   displ. norm   :     0.2846829 α      lambda       -0.4916010E-02
   maximum displ.:     0.2427147 α      in ANC's #1, #4, #6, ...

........................................................................
.............................. CYCLE   25 ..............................
........................................................................
   1    -10.3729447 -0.103729E+02  0.110E+00    0.48       0.0  T
   2    -10.3728870  0.576903E-04  0.681E-01    0.48       1.0  T
   3    -10.3697817  0.310529E-02  0.741E-01    0.48       1.0  T
   4    -10.3729833 -0.320165E-02  0.103E-01    0.47       1.0  T
   5    -10.3730425 -0.592114E-04  0.316E-02    0.47       1.6  T
   6    -10.3730426 -0.655853E-07  0.800E-03    0.47       6.3  T
   7    -10.3730428 -0.207260E-06  0.292E-03    0.47      17.1  T
   8    -10.3730428 -0.126899E-07  0.125E-03    0.47      39.9  T
   9    -10.3730428 -0.131350E-08  0.119E-04    0.47     420.1  T
  10    -10.3730428 -0.236078E-11  0.143E-05    0.47    3497.8  T
     SCC iter.                  ...        0 min,  0.001 sec
     gradient                   ...        0 min,  0.001 sec
 * total energy  :   -10.2056039 Eh     change       -0.3385347E-02 Eh
   gradient norm :     0.0363591 Eh/α   predicted    -0.2657214E-02 ( -21.51%)
   displ. norm   :     0.1471283 α      lambda       -0.3585505E-02
   maximum displ.:     0.1254524 α      in ANC's #4, #1, #6, ...

........................................................................
.............................. CYCLE   26 ..............................
........................................................................
   1    -10.4032014 -0.104032E+02  0.749E-01    0.37       0.0  T
   2    -10.4028822  0.319217E-03  0.534E-01    0.37       1.0  T
   3    -10.4020474  0.834792E-03  0.556E-01    0.36       1.0  T
   4    -10.4035371 -0.148973E-02  0.147E-01    0.36       1.0  T
   5    -10.4035893 -0.521373E-04  0.289E-02    0.36       1.7  T
   6    -10.4035894 -0.163920E-06  0.171E-02    0.36       2.9  T
   7    -10.4035901 -0.698908E-06  0.323E-03    0.36      15.5  T
   8    -10.4035901 -0.188581E-07  0.128E-03    0.36      39.1  T
   9    -10.4035901 -0.405809E-08  0.878E-05    0.36     569.4  T
  10    -10.4035901 -0.266276E-11  0.116E-05    0.36    4303.2  T
     SCC iter.                  ...        0 min,  0.001 sec
     gradient                   ...        0 min,  0.001 sec
 * total energy  :   -10.2064821 Eh     change       -0.8781917E-03 Eh
   gradient norm :     0.0402046 Eh/α   predicted    -0.1831560E-02 ( 108.56%)
   displ. norm   :     0.2870751 α      lambda       -0.3206724E-02
   maximum displ.:     0.2517352 α      in ANC's #1, #4, #6, ...

........................................................................
.............................. CYCLE   27 ..............................
........................................................................
   1    -10.3812800 -0.103813E+02  0.125E+00    0.24       0.0  T
   2    -10.3786915  0.258850E-02  0.102E+00    0.24       1.0  T
   3    -10.3786088  0.826825E-04  0.910E-01    0.24       1.0  T
   4    -10.3823965 -0.378772E-02  0.156E-01    0.24       1.0  T
   5    -10.3824693 -0.727560E-04  0.457E-02    0.24       1.1  T
   6    -10.3824703 -0.103101E-05  0.925E-03    0.24       5.4  T
   7    -10.3824704 -0.865091E-07  0.497E-03    0.24      10.1  T
   8    -10.3824704  0.812400E-08  0.304E-03    0.24      16.5  T
   9    -10.3824704 -0.279947E-07  0.284E-04    0.24     175.8  T
  10    -10.3824704 -0.506137E-10  0.167E-05    0.24    2997.3  T
     SCC iter.                  ...        0 min,  0.001 sec
     gradient                   ...        0 min,  0.001 sec
 * total energy  :   -10.2069138 Eh     change       -0.4316228E-03 Eh
   gradient norm :     0.0581766 Eh/α   predicted    -0.1735498E-02 ( 302.09%)
   displ. norm   :     0.1579823 α      lambda       -0.2090514E-02
   maximum displ.:     0.1329800 α      in ANC's #1, #4, #6, ...

........................................................................
.............................. CYCLE   28 ..............................
........................................................................
   1    -10.3925381 -0.103925E+02  0.721E-01    0.31       0.0  T
   2    -10.3919118  0.626263E-03  0.582E-01    0.30       1.0  T
   3    -10.3918353  0.765815E-04  0.496E-01    0.31       1.0  T
   4    -10.3928880 -0.105272E-02  0.102E-01    0.31       1.0  T
   5    -10.3929227 -0.347089E-04  0.228E-02    0.31       2.2  T
   6    -10.3929228 -0.136736E-06  0.639E-03    0.31       7.8  T
   7    -10.3929230 -0.142847E-06  0.271E-03    0.31      18.4  T
   8    -10.3929230 -0.365068E-08  0.100E-03    0.31      49.8  T
   9    -10.3929230 -0.766622E-09  0.103E-04    0.31     484.1  T
  10    -10.3929230 -0.202149E-11  0.468E-06    0.31   10685.6  T
     SCC iter.                  ...        0 min,  0.001 sec
     gradient                   ...        0 min,  0.001 sec
 * total energy  :   -10.2076019 Eh     change       -0.6881272E-03 Eh
   gradient norm :     0.0046840 Eh/α   predicted    -0.1071347E-02 (  55.69%)
   displ. norm   :     0.0497902 α      lambda       -0.1510869E-03
   maximum displ.:     0.0403014 α      in ANC's #1, #4, #6, ...

........................................................................
.............................. CYCLE   29 ..............................
........................................................................
   1    -10.3919976 -0.103920E+02  0.216E-01    0.29       0.0  T
   2    -10.3919786  0.189818E-04  0.145E-01    0.29       1.0  T
   3    -10.3918183  0.160263E-03  0.181E-01    0.29       1.0  T
   4    -10.3920085 -0.190130E-03  0.167E-02    0.29       3.0  T
   5    -10.3920092 -0.719832E-06  0.699E-03    0.29       7.1  T
   6    -10.3920092 -0.120817E-07  0.134E-03    0.29      37.4  T
   7    -10.3920092 -0.206855E-09  0.888E-04    0.29      56.3  T
   8    -10.3920092 -0.137875E-08  0.158E-04    0.29     316.3  T
     SCC iter.                  ...        0 min,  0.001 sec
     gradient                   ...        0 min,  0.001 sec
 * total energy  :   -10.2077178 Eh     change       -0.1158782E-03 Eh
   gradient norm :     0.0059978 Eh/α   predicted    -0.7573163E-04 ( -34.65%)
   displ. norm   :     0.0694999 α      lambda       -0.1321782E-03
   maximum displ.:     0.0547239 α      in ANC's #1, #4, #6, ...

........................................................................
.............................. CYCLE   30 ..............................
........................................................................
   1    -10.3911453 -0.103911E+02  0.296E-01    0.27       0.0  T
   2    -10.3911304  0.148762E-04  0.185E-01    0.27       1.0  T
   3    -10.3908045  0.325876E-03  0.237E-01    0.27       1.0  T
   4    -10.3911553 -0.350813E-03  0.166E-02    0.27       3.0  T
   5    -10.3911556 -0.308589E-06  0.913E-03    0.27       5.5  T
   6    -10.3911557 -0.466360E-07  0.178E-03    0.27      28.0  T
   7    -10.3911557 -0.411578E-09  0.788E-04    0.27      63.5  T
   8    -10.3911557 -0.844171E-09  0.237E-04    0.27     210.6  T
     SCC iter.                  ...        0 min,  0.001 sec
     gradient                   ...        0 min,  0.001 sec
 * total energy  :   -10.2077896 Eh     change       -0.7181986E-04 Eh
   gradient norm :     0.0097503 Eh/α   predicted    -0.6640825E-04 (  -7.53%)
   displ. norm   :     0.0130116 α      lambda       -0.3832610E-04
   maximum displ.:     0.0080341 α      in ANC's #1, #2, #6, ...

........................................................................
.............................. CYCLE   31 ..............................
........................................................................
   1    -10.3920009 -0.103920E+02  0.540E-02    0.27       0.0  T
   2    -10.3920003  0.635366E-06  0.353E-02    0.27       1.4  T
   3    -10.3919902  0.100287E-04  0.434E-02    0.27       1.2  T
   4    -10.3920013 -0.110795E-04  0.437E-03    0.27      11.4  T
   5    -10.3920014 -0.692186E-07  0.162E-03    0.27      30.8  T
   6    -10.3920014 -0.178638E-08  0.352E-04    0.27     142.2  T
   7    -10.3920014 -0.860183E-10  0.240E-04    0.27     208.5  T
     SCC iter.                  ...        0 min,  0.001 sec
     gradient                   ...        0 min,  0.001 sec
 * total energy  :   -10.2078220 Eh     change       -0.3238707E-04 Eh
   gradient norm :     0.0063700 Eh/α   predicted    -0.1916659E-04 ( -40.82%)
   displ. norm   :     0.0352328 α      lambda       -0.8624796E-04
   maximum displ.:     0.0209283 α      in ANC's #2, #1, #6, ...

........................................................................
.............................. CYCLE   32 ..............................
........................................................................
   1    -10.3932537 -0.103933E+02  0.142E-01    0.30       0.0  T
   2    -10.3932410  0.126311E-04  0.105E-01    0.30       1.0  T
   3    -10.3932004  0.405956E-04  0.109E-01    0.30       1.0  T
   4    -10.3932609 -0.604375E-04  0.149E-02    0.30       3.4  T
   5    -10.3932617 -0.829710E-06  0.332E-03    0.30      15.1  T
   6    -10.3932617 -0.218842E-08  0.482E-04    0.30     103.7  T
   7    -10.3932617  0.328448E-10  0.259E-04    0.30     193.3  T
     SCC iter.                  ...        0 min,  0.001 sec
     gradient                   ...        0 min,  0.001 sec
 * total energy  :   -10.2078750 Eh     change       -0.5305689E-04 Eh
   gradient norm :     0.0031467 Eh/α   predicted    -0.4317802E-04 ( -18.62%)
   displ. norm   :     0.0212035 α      lambda       -0.2517798E-04
   maximum displ.:     0.0153374 α      in ANC's #2, #1, #6, ...

........................................................................
.............................. CYCLE   33 ..............................
........................................................................
   1    -10.3930476 -0.103930E+02  0.949E-02    0.32       0.0  T
   2    -10.3930481 -0.577146E-06  0.569E-02    0.32       1.0  T
   3    -10.3930474  0.702216E-06  0.192E-02    0.32       2.6  T
   4    -10.3930484 -0.100152E-05  0.270E-03    0.32      18.5  T
   5    -10.3930484  0.185636E-08  0.153E-03    0.32      32.8  T
   6    -10.3930484 -0.325910E-09  0.755E-04    0.32      66.3  T
   7    -10.3930484 -0.366677E-08  0.267E-04    0.32     187.2  T
     SCC iter.                  ...        0 min,  0.001 sec
     gradient                   ...        0 min,  0.001 sec
 * total energy  :   -10.2078926 Eh     change       -0.1753564E-04 Eh
   gradient norm :     0.0030403 Eh/α   predicted    -0.1259464E-04 ( -28.18%)
   displ. norm   :     0.0156943 α      lambda       -0.1619939E-04
   maximum displ.:     0.0124180 α      in ANC's #2, #4, #3, ...

........................................................................
.............................. CYCLE   34 ..............................
........................................................................
   1    -10.3922481 -0.103922E+02  0.833E-02    0.34       0.0  T
   2    -10.3922472  0.939567E-06  0.535E-02    0.34       1.0  T
   3    -10.3922239  0.232343E-04  0.642E-02    0.34       1.0  T
   4    -10.3922487 -0.247408E-04  0.592E-03    0.34       8.4  T
   5    -10.3922488 -0.120165E-06  0.263E-03    0.34      19.0  T
   6    -10.3922488 -0.248406E-08  0.482E-04    0.34     103.7  T
   7    -10.3922488 -0.417996E-09  0.225E-04    0.34     222.2  T
     SCC iter.                  ...        0 min,  0.001 sec
     gradient                   ...        0 min,  0.001 sec
 * total energy  :   -10.2079020 Eh     change       -0.9390708E-05 Eh
   gradient norm :     0.0019851 Eh/α   predicted    -0.8101697E-05 ( -13.73%)
   displ. norm   :     0.0102016 α      lambda       -0.2961802E-05
   maximum displ.:     0.0069660 α      in ANC's #4, #1, #6, ...

........................................................................
.............................. CYCLE   35 ..............................
........................................................................
   1    -10.3917312 -0.103917E+02  0.476E-02    0.34       0.0  T
   2    -10.3917313 -0.545510E-07  0.290E-02    0.34       1.7  T
   3    -10.3917278  0.342407E-05  0.234E-02    0.34       2.1  T
   4    -10.3917313 -0.346329E-05  0.621E-03    0.34       8.1  T
   5    -10.3917315 -0.169693E-06  0.175E-03    0.34      28.6  T
   6    -10.3917315 -0.103763E-08  0.545E-04    0.34      91.7  T
   7    -10.3917315 -0.905080E-09  0.221E-04    0.34     226.4  T
     SCC iter.                  ...        0 min,  0.001 sec
     gradient                   ...        0 min,  0.001 sec
 * total energy  :   -10.2079041 Eh     change       -0.2103230E-05 Eh
   gradient norm :     0.0004491 Eh/α   predicted    -0.1479752E-05 ( -29.64%)
   displ. norm   :     0.0032227 α      lambda       -0.5207867E-06
   maximum displ.:     0.0028894 α      in ANC's #2, #1, #6, ...

   *** GEOMETRY OPTIMIZATION CONVERGED AFTER 35 ITERATIONS ***

------------------------------------------------------------------------
 total energy gain   :        -0.1642056 Eh     -103.0406 kcal/mol
 total RMSD          :         1.4312116 a0        0.7574 Å
 total power (kW/mol):       -12.3177666 (step)-4059.8382 (real)
------------------------------------------------------------------------

 ANCopt (total)                0 d,  0 h,  0 min,  0.106 sec
 optimizer setup                ...        0 min,  0.000 sec (  0.072%)
 model hessian                  ...        0 min,  0.000 sec (  0.097%)
 ANC generation                 ...        0 min,  0.000 sec (  0.084%)
 coordinate transformation      ...        0 min,  0.000 sec (  0.078%)
 single point calculation       ...        0 min,  0.103 sec ( 97.065%)
 optimization log               ...        0 min,  0.001 sec (  0.811%)
 hessian update                 ...        0 min,  0.000 sec (  0.071%)
 rational function              ...        0 min,  0.001 sec (  0.756%)

================
 final structure:
================
4
 xtb: 6.2.2 (9d81278992624c895f80dd42a50cac0aa55982e2)
C         1.78243723560347   -0.41988086175152    0.23186945693793
C         0.59854847786077   -0.22713944172626   -0.09718608750947
C        -0.63135538339095    0.23924613276174    0.08708489262077
O        -1.74963133007329    0.40777317071605   -0.22176826204923

 Bond Distances (Angstroems)
 ---------------------------
C1-C2=1.2438         C2-C1=1.2438         C2-C3=1.3282         C3-C2=1.3282         C3-O4=1.1723         O4-C3=1.1723         
 C  C  Rav=1.2860 sigma=0.0422  Rmin=1.2438  Rmax=1.3282     2
 O  C  Rav=1.1723 sigma=0.0000  Rmin=1.1723  Rmax=1.1723     1

 selected bond angles (degree)
 --------------------
C3-C2-C1=154.04                O4-C3-C2=153.80                

 selected dihedral angles (degree)
 ---------------------------------
O4-C3-C2-C1=181.38            
           -------------------------------------------------
          |                Final Singlepoint                |
           -------------------------------------------------

          ...................................................
          :                      SETUP                      :
          :.................................................:
          :  # basis functions                  16          :
          :  # atomic orbitals                  16          :
          :  # shells                            8          :
          :  # electrons                        18          :
          :  max. iterations                   250          :
          :  Hamiltonian                  GFN2-xTB          :
          :  restarted?                      false          :
          :  GBSA solvation                  false          :
          :  PC potential                    false          :
          :  electronic temp.          300.0000000     K    :
          :  accuracy                    1.0000000          :
          :  -> integral cutoff          0.2500000E+02      :
          :  -> integral neglect         0.1000000E-07      :
          :  -> SCF convergence          0.1000000E-05 Eh   :
          :  -> wf. convergence          0.1000000E-03 e    :
          :  Broyden damping             0.4000000          :
          ...................................................

 iter      E             dE          RMSdq      gap      omega  full diag
   1    -10.3917315 -0.103917E+02  0.365E-05    0.34       0.0  T
   2    -10.3917315  0.442313E-12  0.274E-05    0.34    1824.7  T
   3    -10.3917315  0.542322E-11  0.296E-05    0.34    1688.2  T

   *** convergence criteria satisfied after 3 iterations ***

         #    Occupation            Energy/Eh            Energy/eV
      -------------------------------------------------------------
         1        2.0000           -0.7698809             -20.9495
       ...           ...                  ...                  ...
         4        2.0000           -0.5994370             -16.3115
         5        2.0000           -0.5944132             -16.1748
         6        2.0000           -0.5727355             -15.5849
         7        2.0000           -0.4809572             -13.0875
         8        2.0000           -0.4771086             -12.9828
         9        1.0000           -0.4349370             -11.8352
        10        0.9987           -0.3374695              -9.1830 (HOMO)
        11        0.0013           -0.3249003              -8.8410 (LUMO)
        12                         -0.1698162              -4.6209
        13                         -0.1444785              -3.9315
        14                          0.1997085               5.4343
        15                          0.8012799              21.8039
        16                          1.1084100              30.1614
      -------------------------------------------------------------
                  HL-Gap            0.0125693 Eh            0.3420 eV
             Fermi-level           -0.3935998 Eh          -10.7104 eV

 transition dipole moment (au) for excitation:           9          10
     X       Y       Z   
  -0.4877   0.1857   0.0716  total (au/Debye):    0.527   1.339
 dE (eV)             :    2.652
 oscillator strength :  0.25499E-01

 SCC (total)                   0 d,  0 h,  0 min,  0.003 sec
 SCC setup                      ...        0 min,  0.000 sec (  1.594%)
 Dispersion                     ...        0 min,  0.000 sec (  0.332%)
 integral evaluation            ...        0 min,  0.001 sec ( 31.502%)
 zeroth order Hamiltonian       ...        0 min,  0.000 sec (  0.388%)
 iterations                     ...        0 min,  0.001 sec ( 15.257%)
 molecular gradient             ...        0 min,  0.001 sec ( 28.807%)
 printout                       ...        0 min,  0.001 sec ( 21.866%)

         :::::::::::::::::::::::::::::::::::::::::::::::::::::
         ::                     SUMMARY                     ::
         :::::::::::::::::::::::::::::::::::::::::::::::::::::
         :: total energy             -10.207904056808 Eh    ::
         :: gradient norm              0.000905031350 Eh/a0 ::
         :: HOMO-LUMO gap              0.342026717581 eV    ::
         ::.................................................::
         :: SCC energy               -10.391731472243 Eh    ::
         :: -> isotropic ES            0.009837901829 Eh    ::
         :: -> anisotropic ES          0.001695420581 Eh    ::
         :: -> anisotropic XC          0.004973132808 Eh    ::
         :: -> dispersion             -0.001629933984 Eh    ::
         :: repulsion energy           0.183827488359 Eh    ::
         :: add. restraining           0.000000000000 Eh    ::
         :::::::::::::::::::::::::::::::::::::::::::::::::::::

           ------------------------------------------------- 
          |                Numerical Hessian                |
           ------------------------------------------------- 
step length          :   0.00500
SCC accuracy         :   0.30000
Hessian scale factor :   1.00000
frozen atoms in %    :   0.00000    0
RMS gradient         :   0.00091
estimated CPU  time      0.00 min
estimated wall time      0.00 min

writing file <hessian>.

 projected vibrational frequencies (cm-1)
eigval :       -0.00    -0.00    -0.00     0.00     0.00     0.00
eigval :      194.61   283.15   365.53   986.97  1838.80  2132.45
           -------------------------------------------------
          |                Property Printout                |
           -------------------------------------------------

    * Orbital Energies and Occupations

         #    Occupation            Energy/Eh            Energy/eV
      -------------------------------------------------------------
         1        2.0000           -0.7698809             -20.9495
         2        2.0000           -0.6809474             -18.5295
         3        2.0000           -0.6413120             -17.4510
         4        2.0000           -0.5994370             -16.3115
         5        2.0000           -0.5944132             -16.1748
         6        2.0000           -0.5727355             -15.5849
         7        2.0000           -0.4809572             -13.0875
         8        2.0000           -0.4771086             -12.9828
         9        1.0000           -0.4349370             -11.8352
        10        0.9987           -0.3374695              -9.1830 (HOMO)
        11        0.0013           -0.3249003              -8.8410 (LUMO)
        12                         -0.1698162              -4.6209
        13                         -0.1444785              -3.9315
        14                          0.1997085               5.4343
        15                          0.8012799              21.8039
        16                          1.1084100              30.1614
      -------------------------------------------------------------
                  HL-Gap            0.0125693 Eh            0.3420 eV
             Fermi-level           -0.3935998 Eh          -10.7104 eV

     #   Z        covCN         q      C6AA      α(0)
     1   6 C      0.984    -0.029    36.835    10.196
     2   6 C      1.962    -0.015    31.473     9.060
     3   6 C      1.840     0.230    25.784     8.203
     4   8 O      0.856    -0.185    17.829     5.661

 Mol. C6AA /au·bohr⁶  :        437.477549
 Mol. C8AA /au·bohr⁸  :      11835.249287
 Mol. α(0) /au        :         33.119652


Wiberg/Mayer (AO) data.
largest (>0.10) Wiberg bond orders for each atom
          total WBO             WBO to atom ...
Molecule has the following symmetry elements: (sigma) 
It seems to be the Cs point group
     1  C   2.495        C    2 2.287    O    4 0.127
     2  C   3.772        C    1 2.287    C    3 1.395
     3  C   3.458        O    4 1.982    C    2 1.395
     4  O   2.199        C    3 1.982    C    1 0.127

MOs/occ written to file <molden.input>


molecular dipole:
                 x           y           z       tot (Debye)
 q only:        0.222      -0.009       0.105
   full:        0.319      -0.067       0.049       0.837
molecular quadrupole (traceless):
                xx          xy          yy          xz          yz          zz
 q only:       -1.994       0.651       0.958      -0.513       0.129       1.036
  q+dip:       -0.243      -0.167       0.199      -0.460       0.116       0.045
   full:       -2.456       0.695       1.593      -1.150      -0.206       0.863

           -------------------------------------------------
          |                Geometry Summary                 |
           -------------------------------------------------

      molecular mass/u    :       52.0316126
   center of mass at/Å    :       -0.1341244       0.0312597      -0.0170000
  moments of inertia/u·Å² :        0.8084817E+00   0.1021395E+03   0.1029469E+03
rotational constants/cm⁻¹ :        0.2085097E+02   0.1650452E+00   0.1637507E+00

 * 2 selected distances

     #   Z        #   Z                                     value/Å
     1   6 C      2   6 C                                 1.2437923 (max)
     3   6 C      4   8 O                                 1.1723194 (min)

 * 2 distinct bonds (by element types)

   Z      Z             #   av. dist./Å        max./Å        min./Å
   6 C    6 C           1     1.2437923     1.2437923     1.2437923
   6 C    8 O           1     1.1723194     1.1723194     1.1723194

           -------------------------------------------------
          |               Frequency Printout                |
           -------------------------------------------------
 projected vibrational frequencies (cm-1)
eigval :       -0.00    -0.00    -0.00     0.00     0.00     0.00
eigval :      194.61   283.15   365.53   986.97  1838.80  2132.45
 reduced masses (amu)
   1: 14.46   2: 13.43   3: 12.23   4: 12.14   5: 13.25   6: 13.89   7: 12.85   8: 12.90
   9: 12.39  10: 13.29  11: 12.36  12: 12.91
 IR intensities (amu)
   1:  0.09   2:  0.10   3:  0.03   4:  0.04   5:  0.04   6:  0.09   7:  0.24   8:  0.24
   9:  0.47  10:  0.14  11:  1.49  12:  2.12
 Raman intensities (amu)
   1:  0.00   2:  0.00   3:  0.00   4:  0.00   5:  0.00   6:  0.00   7:  0.00   8:  0.00
   9:  0.00  10:  0.00  11:  0.00  12:  0.00
 output can be read by thermo (or use thermo option).
 writing <g98.out> molden fake output.
 recommended (thermochemical) frequency scaling factor: 1.0
           -------------------------------------------------
          |             Thermodynamic Functions             |
           -------------------------------------------------

cs  symmetry found (for desy threshold:  0.10E+00) used in thermo

          ...................................................
          :                      SETUP                      :
          :.................................................:
          :  # frequencies                           6      :
          :  # imaginary freq.                       0      :
          :  linear?                             false      :
          :  only rotor calc.                    false      :
          :  symmetry                               cs      :
          :  rotational number                       1      :
          :  scaling factor                  1.0000000      :
          :  rotor cutoff                   50.0000000 cm⁻¹ :
          :  imag. cutoff                  -20.0000000 cm⁻¹ :
          :.................................................:

    mode    ω/cm⁻¹     T·S(HO)/kcal·mol⁻¹    T·S(FR)/kcal·mol⁻¹   T·S(vib)
   ------------------------------------------------------------------------
       1    194.61    -0.00000 ( 99.57%)     0.01181 (  0.43%)     0.00005
       2    283.15    -0.00000 ( 99.90%)     0.01553 (  0.10%)     0.00002
   ------------------------------------------------------------------------

   temp. (K)  partition function   enthalpy   heat capacity  entropy
                                   cal/mol     cal/K/mol   cal/K/mol   J/K/mol
 298.15  VIB   2.68                  875.751      5.516      4.899
         ROT  0.704E+04              888.752      2.981     20.588
         INT  0.189E+05             1764.503      8.497     25.487
         TR   0.363E+27             1481.254      4.968     37.753
         TOT                        3245.7572    13.4654    63.2404   264.5980

   temp. (K)  partition function   enthalpy   heat capacity  entropy
                                   cal/mol     cal/K/mol   cal/K/mol   J/K/mol
 120.00  VIB   1.16                  101.094      2.600      1.141
         ROT  0.180E+04              357.707      2.981     17.875
         INT  0.209E+04              458.801      5.581     19.016
         TR   0.927E+26              596.178      4.968     33.234
         TOT                        1054.9787    10.5492    52.2502   218.6148

   temp. (K)  partition function   enthalpy   heat capacity  entropy
                                   cal/mol     cal/K/mol   cal/K/mol   J/K/mol
 100.00  VIB   1.09                   55.503      1.944      0.728
         ROT  0.137E+04              298.089      2.981     17.331
         INT  0.149E+04              353.592      4.925     18.059
         TR   0.705E+26              496.815      4.968     32.329
         TOT                         850.4067     9.8928    50.3876   210.8218

   temp. (K)  partition function   enthalpy   heat capacity  entropy
                                   cal/mol     cal/K/mol   cal/K/mol   J/K/mol
  80.00  VIB   1.04                   23.792      1.222      0.376
         ROT   979.                  238.471      2.981     16.666
         INT  0.102E+04              262.263      4.203     17.043
         TR   0.505E+26              397.452      4.968     31.221
         TOT                         659.7151     9.1714    48.2633   201.9338

   temp. (K)  partition function   enthalpy   heat capacity  entropy
                                   cal/mol     cal/K/mol   cal/K/mol   J/K/mol
  60.00  VIB   1.01                    6.357      0.542      0.130
         ROT   636.                  178.853      2.981     15.809
         INT   643.                  185.211      3.523     15.938
         TR   0.328E+26              298.089      4.968     29.792
         TOT                         483.2996     8.4909    45.7303   191.3357

   temp. (K)  partition function   enthalpy   heat capacity  entropy
                                   cal/mol     cal/K/mol   cal/K/mol   J/K/mol
  40.00  VIB   1.00                    0.540      0.097      0.016
         ROT   346.                  119.236      2.981     14.600
         INT   346.                  119.776      3.078     14.616
         TR   0.178E+26              198.726      4.968     27.779
         TOT                         318.5021     8.0464    42.3945   177.3787

   temp. (K)  partition function   enthalpy   heat capacity  entropy
                                   cal/mol     cal/K/mol   cal/K/mol   J/K/mol
  20.00  VIB   1.00                    0.000      0.000     -0.003
         ROT   122.                   59.618      2.981     12.534
         INT   122.                   59.618      2.981     12.530
         TR   0.631E+25               99.363      4.968     24.337
         TOT                         158.9813     7.9494    36.8671   154.2521

   temp. (K)  partition function   enthalpy   heat capacity  entropy
                                   cal/mol     cal/K/mol   cal/K/mol   J/K/mol
  10.00  VIB   1.00                    0.000      0.000     -0.007
         ROT   43.3                   29.809      2.981     10.468
         INT   43.3                   29.809      2.981     10.460
         TR   0.223E+25               49.681      4.968     20.895
         TOT                          79.4904     7.9490    31.3550   131.1895

       T/K    H(0)-H(T)+PV         H(T)/Eh          T*S/Eh         G(T)/Eh
   ------------------------------------------------------------------------
    298.15    0.517244E-02    0.183893E-01    0.300476E-01   -0.116583E-01
    120.00    0.168122E-02    0.148980E-01    0.999192E-02    0.490611E-02
    100.00    0.135521E-02    0.145720E-01    0.802978E-02    0.654224E-02
     80.00    0.105132E-02    0.142681E-01    0.615300E-02    0.811513E-02
     60.00    0.770187E-03    0.139870E-01    0.437256E-02    0.961444E-02
     40.00    0.507565E-03    0.137244E-01    0.270240E-02    0.110220E-01
     20.00    0.253353E-03    0.134702E-01    0.117503E-02    0.122951E-01
     10.00    0.126676E-03    0.133435E-01    0.499674E-03    0.128438E-01 (used)
   ------------------------------------------------------------------------

         :::::::::::::::::::::::::::::::::::::::::::::::::::::
         ::                  THERMODYNAMIC                  ::
         :::::::::::::::::::::::::::::::::::::::::::::::::::::
         :: total free energy         -10.195060244621 Eh   ::
         ::.................................................::
         :: total energy              -10.207904056799 Eh   ::
         :: zero point energy           0.013216810389 Eh   ::
         :: G(RRHO) w/o ZPVE           -0.000372998210 Eh   ::
         :: G(RRHO) contrib.            0.012843812179 Eh   ::
         :::::::::::::::::::::::::::::::::::::::::::::::::::::

optimized geometry written to: xtbopt.xyz


           -------------------------------------------------
          | TOTAL ENERGY              -10.207904056799 Eh   |
          | TOTAL ENTHALPY            -10.194560570395 Eh   |
          | TOTAL FREE ENERGY         -10.195060244621 Eh   |
          | GRADIENT NORM               0.000905028984 Eh/α |
          | HOMO-LUMO GAP               0.342026789604 eV   |
           -------------------------------------------------

------------------------------------------------------------------------
 * finished run on 2020/05/12 at 11:45:18.684     
------------------------------------------------------------------------
 total:
 * wall-time:     0 d,  0 h,  0 min,  0.199 sec
 *  cpu-time:     0 d,  0 h,  0 min,  0.198 sec
 * ratio c/w:     0.995 speedup
 SCF:
 * wall-time:     0 d,  0 h,  0 min,  0.005 sec
 *  cpu-time:     0 d,  0 h,  0 min,  0.005 sec
 * ratio c/w:     1.000 speedup
 ANC optimizer:
 * wall-time:     0 d,  0 h,  0 min,  0.110 sec
 *  cpu-time:     0 d,  0 h,  0 min,  0.110 sec
 * ratio c/w:     0.999 speedup
 numerical hessian:
 * wall-time:     0 d,  0 h,  0 min,  0.065 sec
 *  cpu-time:     0 d,  0 h,  0 min,  0.065 sec
 * ratio c/w:     0.998 speedup

