5
 energy: -10.081510193287 gnorm: 0.178775205020 xtb: 6.2.2 (9d81278992624c895f80dd42a50cac0aa55982e2)
C         1.59070800000000   -0.18134800000000    0.26663100000000
C         0.27316400000000   -0.04030200000000   -0.46576000000000
C        -0.78475600000000    0.10280700000000    0.61344000000000
C        -0.39477100000000    1.29689500000000   -0.22932400000000
C        -0.68434500000000   -1.17805200000000   -0.18498800000000
5
 energy: -10.116835542308 gnorm: 0.114853679032 xtb: 6.2.2 (9d81278992624c895f80dd42a50cac0aa55982e2)
C         1.56851621873589   -0.17975915102838    0.21033154045878
C         0.32924776087740   -0.04635926393964   -0.43757602437649
C        -0.85795452643864    0.11049968750225    0.56473266693867
C        -0.38021894020611    1.25167977592316   -0.19013132721112
C        -0.65959051296855   -1.13606104845739   -0.14735785580984
5
 energy: -10.135115729485 gnorm: 0.096335518054 xtb: 6.2.2 (9d81278992624c895f80dd42a50cac0aa55982e2)
C         1.57522111532033   -0.18203227664629    0.12729323188983
C         0.43417416412865   -0.05740276623396   -0.36881068136790
C        -0.94823176455481    0.11938563376757    0.47106190300705
C        -0.39698768569057    1.20183629592431   -0.13522726071747
C        -0.66417582920360   -1.08178688681163   -0.09431819281152
5
 energy: -10.156566293825 gnorm: 0.076875535552 xtb: 6.2.2 (9d81278992624c895f80dd42a50cac0aa55982e2)
C         1.67921549638865   -0.19561322376964    0.04857428987293
C         0.46440407148895   -0.05978132424494   -0.30429560091735
C        -1.10669671978029    0.13597736043957    0.36226075520930
C        -0.38292844600317    1.21810556994119   -0.07402320894993
C        -0.65399440209414   -1.09868838236619   -0.03251723521494
5
 energy: -10.162491995298 gnorm: 0.125119388778 xtb: 6.2.2 (9d81278992624c895f80dd42a50cac0aa55982e2)
C         1.87504787664374   -0.22046608474576   -0.05947206078094
C         0.55371338354125   -0.06795920829870   -0.17773490822243
C        -1.29843259848845    0.15551308952323    0.20051848859406
C        -0.43356052717115    1.19128623829662   -0.00180999740562
C        -0.69676813452539   -1.05837403477538    0.03849747781492
5
 energy: -10.170559074930 gnorm: 0.047684901145 xtb: 6.2.2 (9d81278992624c895f80dd42a50cac0aa55982e2)
C         1.80344783499211   -0.21139077465659   -0.02079349129249
C         0.54154483176554   -0.06729653163824   -0.22007693667563
C        -1.21146865333993    0.14587711183561    0.23068933989324
C        -0.43554743722492    1.18787898688113   -0.01500264256270
C        -0.69797657619280   -1.05506879242191    0.02518273063757
5
 energy: -10.168021491187 gnorm: 0.127717888630 xtb: 6.2.2 (9d81278992624c895f80dd42a50cac0aa55982e2)
C         1.73723043882282   -0.20414068469552   -0.04881358882220
C         0.53873479466743   -0.06690376190373   -0.21637939276668
C        -1.23146920673358    0.14751376593819    0.19143049153395
C        -0.38865583718248    1.20353643987853    0.01642529234517
C        -0.65584018957419   -1.08000575921747    0.05733619770975
5
 energy: -10.173812124715 gnorm: 0.033744060338 xtb: 6.2.2 (9d81278992624c895f80dd42a50cac0aa55982e2)
C         1.78316764590223   -0.20943899933111   -0.04451613751656
C         0.53873866738697   -0.06649665709266   -0.19364460916006
C        -1.22531805896976    0.14685429918107    0.19477759655285
C        -0.41655749484577    1.19045431111670    0.00151967731804
C        -0.68003075947367   -1.06137295387400    0.04186247280573
5
 energy: -10.175240233099 gnorm: 0.023245626927 xtb: 6.2.2 (9d81278992624c895f80dd42a50cac0aa55982e2)
C         1.79098886012962   -0.21056953103279   -0.05659592105920
C         0.53824877335650   -0.06595185802772   -0.16640402897555
C        -1.22818357319502    0.14681923524881    0.17408058255149
C        -0.41930812330553    1.18633421732241    0.00436745291139
C        -0.68174593698558   -1.05663206351071    0.04455091457186
5
 energy: -10.177592569300 gnorm: 0.025133461094 xtb: 6.2.2 (9d81278992624c895f80dd42a50cac0aa55982e2)
C         1.79616757667279   -0.21184697269437   -0.09472816304710
C         0.52891608972892   -0.06343697188833   -0.08659986238967
C        -1.23554741556185    0.14656188190877    0.11210116035730
C        -0.41392862355841    1.18252759087280    0.01458041272760
C        -0.67560762728145   -1.05380552819888    0.05464545235187
5
 energy: -10.178186485391 gnorm: 0.015886803517 xtb: 6.2.2 (9d81278992624c895f80dd42a50cac0aa55982e2)
C         1.78362873653720   -0.21058416636624   -0.10490756556526
C         0.52432282184803   -0.06245839594107   -0.06252885515145
C        -1.22585699094943    0.14505099320642    0.09039642426604
C        -0.40979717711807    1.18581524602981    0.01842018083927
C        -0.67229739031773   -1.05782367692892    0.05861881561141
5
 energy: -10.178437847313 gnorm: 0.006399399122 xtb: 6.2.2 (9d81278992624c895f80dd42a50cac0aa55982e2)
C         1.77691437104091   -0.20995552140481   -0.11419134587507
C         0.52421214052473   -0.06208196106105   -0.04195167143769
C        -1.22027707672663    0.14406837856297    0.07212958126098
C        -0.40840756579883    1.19230349906392    0.02179186753310
C        -0.67244186904018   -1.06433439516102    0.06222056851869
5
 energy: -10.178522279878 gnorm: 0.005537393183 xtb: 6.2.2 (9d81278992624c895f80dd42a50cac0aa55982e2)
C         1.77423635822337   -0.20966155944716   -0.11533647016695
C         0.52439693082567   -0.06195546092209   -0.03362273701299
C        -1.21260738148353    0.14312440644078    0.06948985804673
C        -0.41042790577538    1.19741422603897    0.01943350438455
C        -0.67559800179013   -1.06892161211050    0.06003484474867
5
 energy: -10.178570248149 gnorm: 0.002280855052 xtb: 6.2.2 (9d81278992624c895f80dd42a50cac0aa55982e2)
C         1.77489781875210   -0.20973831595610   -0.11551477612321
C         0.52460847596358   -0.06186497917760   -0.02702854448670
C        -1.20707144485900    0.14248669862754    0.07021613601378
C        -0.41303135479392    1.20284039312710    0.01577084344124
C        -0.67940349506277   -1.07372379662095    0.05655534115489
5
 energy: -10.178580463924 gnorm: 0.001618799975 xtb: 6.2.2 (9d81278992624c895f80dd42a50cac0aa55982e2)
C         1.77520061752534   -0.20972915378204   -0.11267402425947
C         0.52429626522154   -0.06188410869179   -0.03028823178514
C        -1.20471455304854    0.14230566336929    0.07528881419799
C        -0.41403423574746    1.20443807170304    0.01341688011159
C        -0.68074809395087   -1.07513047259850    0.05425556173504
5
 energy: -10.178581734552 gnorm: 0.000619856174 xtb: 6.2.2 (9d81278992624c895f80dd42a50cac0aa55982e2)
C         1.77617946550614   -0.20982115708317   -0.11154346535894
C         0.52399726362520   -0.06189030711108   -0.03252057861607
C        -1.20519721534166    0.14239465809599    0.07712120659072
C        -0.41411306079441    1.20459798230991    0.01304925192782
C        -0.68086645299528   -1.07528117621165    0.05389258545648
