 Entering Gaussian System
 *********************************************
 Gaussian 98:
 frequency output generated by the xtb code
 *********************************************
                         Standard orientation:
 --------------------------------------------------------------------
  Center     Atomic     Atomic              Coordinates (Angstroms)
  Number     Number      Type              X           Y           Z
 --------------------------------------------------------------------
    1          6             0        1.776178   -0.209831   -0.111549
    2          6             0        0.523997   -0.061893   -0.032522
    3          6             0       -1.205196    0.142401    0.077125
    4          6             0       -0.414107    1.204600    0.013049
    5          6             0       -0.680872   -1.075278    0.053897
 --------------------------------------------------------------------
     1 basis functions        1 primitive gaussians
     1 alpha electrons        1 beta electrons

 Harmonic frequencies (cm**-1), IR intensities (KM/Mole),
 Raman scattering activities (A**4/amu), Raman depolarization ratios,
 reduced masses (AMU), force constants (mDyne/A) and normal coordinates:
                      1                      2                      3
                        a                      a                      a 
 Frequencies --   247.2394               328.7285               376.3540
 Red. masses --    12.0107                12.0107                12.0107
 Frc consts  --     0.0000                 0.0000                 0.0000
 IR Inten    --     0.3794                 0.0509                 0.4067
 Raman Activ --     0.0000                 0.0000                 0.0000
 Depolar     --     0.0000                 0.0000                 0.0000
 Atom AN      X      Y      Z        X      Y      Z        X      Y      Z
   1   6    -0.07  -0.63   0.01     0.03   0.00   0.43    -0.00  -0.02  -0.00
   2   6     0.06   0.47  -0.01    -0.04  -0.01  -0.56     0.09   0.73  -0.00
   3   6    -0.01  -0.08   0.00     0.04   0.01   0.62    -0.02  -0.20   0.01
   4   6    -0.39   0.17   0.02    -0.02  -0.00  -0.24     0.35  -0.30  -0.03
   5   6     0.42   0.07  -0.03    -0.02  -0.00  -0.24    -0.41  -0.21   0.02
                      4                      5                      6
                        a                      a                      a 
 Frequencies --   388.3828               452.1760               685.4204
 Red. masses --    12.0107                12.0107                12.0107
 Frc consts  --     0.0000                 0.0000                 0.0000
 IR Inten    --     0.2433                 0.0540                 0.3026
 Raman Activ --     0.0000                 0.0000                 0.0000
 Depolar     --     0.0000                 0.0000                 0.0000
 Atom AN      X      Y      Z        X      Y      Z        X      Y      Z
   1   6    -0.01  -0.00  -0.19    -0.22   0.03   0.01    -0.51   0.06   0.03
   2   6     0.04  -0.00   0.66    -0.21   0.03   0.02    -0.47   0.05   0.03
   3   6     0.02   0.01   0.39     0.70  -0.08  -0.04     0.01  -0.00  -0.00
   4   6    -0.03  -0.00  -0.43    -0.08   0.44  -0.00     0.47  -0.17  -0.03
   5   6    -0.02   0.00  -0.43    -0.18  -0.41   0.01     0.50   0.05  -0.03
                      7                      8                      9
                        a                      a                      a 
 Frequencies --  1418.9289              1419.4324              1782.5301
 Red. masses --    12.0107                12.0107                12.0107
 Frc consts  --     0.0000                 0.0000                 0.0000
 IR Inten    --     1.5347                 0.6114                 0.2965
 Raman Activ --     0.0000                 0.0000                 0.0000
 Depolar     --     0.0000                 0.0000                 0.0000
 Atom AN      X      Y      Z        X      Y      Z        X      Y      Z
   1   6    -0.04  -0.01   0.00     0.18  -0.02  -0.01    -0.66   0.08   0.04
   2   6     0.00  -0.08   0.00    -0.06  -0.01   0.00     0.72  -0.09  -0.05
   3   6     0.01  -0.75   0.01    -0.54  -0.07   0.04    -0.10   0.01   0.01
   4   6     0.16   0.31  -0.01     0.30   0.58  -0.03     0.03   0.09  -0.00
   5   6    -0.14   0.54   0.00     0.11  -0.47  -0.00     0.01  -0.10   0.00
