$hessian                                                                        
        0.7228527180  -0.0840476143  -0.0448763362  -0.6398038746   0.0746272478
        0.0390614734  -0.0125278029   0.0028643436   0.0011275588  -0.0341914665
        0.0079138360   0.0022282732  -0.0363295740  -0.0013578132   0.0024590308
       -0.0840476143   0.0214878541   0.0053127096   0.0746353094  -0.0170675753
       -0.0048557395   0.0027320364   0.0110984024  -0.0001942383   0.0078280253
       -0.0087874371  -0.0003965064  -0.0011477568  -0.0067312441   0.0001337745
       -0.0448763362   0.0053127096   0.0145893573   0.0391033308  -0.0048216886
       -0.0231272996   0.0012574375  -0.0001140348   0.0078084421   0.0021295713
       -0.0004833609   0.0003759731   0.0023859966   0.0001063746   0.0003535270
       -0.6398038746   0.0746353094   0.0391033308   0.8026143694  -0.0892579888
       -0.0476621336  -0.0900585582   0.0161959815   0.0059466816  -0.0276019973
        0.0738570905  -0.0000255238  -0.0451499393  -0.0754303926   0.0026376450
        0.0746272478  -0.0170675753  -0.0048216886  -0.0892579888   0.0575471370
        0.0055412641   0.0162624055   0.0451120711  -0.0015552837  -0.0017412569
       -0.0516623330   0.0006404310   0.0001095924  -0.0339292998   0.0001952772
        0.0390614734  -0.0048557395  -0.0231272996  -0.0476621336   0.0055412641
        0.0483563340   0.0057533397  -0.0017670070   0.0005189802   0.0009116290
       -0.0040578702  -0.0127949201   0.0019356916   0.0051393526  -0.0129530945
       -0.0125278029   0.0027320364   0.0012574375  -0.0900585582   0.0162624055
        0.0057533397   0.3270599972   0.0231496247  -0.0201664222  -0.1551408778
       -0.2688628531   0.0119745658  -0.0693327582   0.2267187865   0.0011810791
        0.0028643436   0.0110984024  -0.0001140348   0.0161959815   0.0451120711
       -0.0017670070   0.0231496247   0.5245647854  -0.0066085478  -0.1344004665
       -0.2470993882   0.0116146755   0.0921905166  -0.3336758708  -0.0031250860
        0.0011275588  -0.0001942383   0.0078084421   0.0059466816  -0.0015552837
        0.0005189802  -0.0201664222  -0.0066085478   0.0306892140   0.0105803594
        0.0204448135  -0.0199464279   0.0025118224  -0.0120867436  -0.0190702084
       -0.0341914665   0.0078280253   0.0021295713  -0.0276019973  -0.0017412569
        0.0009116290  -0.1551408778  -0.1344004665   0.0105803594   0.1674698697
        0.1789268875  -0.0119417478   0.0494644719  -0.0506131894  -0.0016798118
        0.0079138360  -0.0087874371  -0.0004833609   0.0738570905  -0.0516623330
       -0.0040578702  -0.2688628531  -0.2470993882   0.0204448135   0.1789268875
        0.4367690781  -0.0166794912   0.0081650391  -0.1292199198   0.0007759088
        0.0022282732  -0.0003965064   0.0003759731  -0.0000255238   0.0006404310
       -0.0127949201   0.0119745658   0.0116146755  -0.0199464279  -0.0119417478
       -0.0166794912   0.0166195314  -0.0022355675   0.0048208911   0.0157458434
       -0.0363295740  -0.0011477568   0.0023859966  -0.0451499393   0.0001095924
        0.0019356916  -0.0693327582   0.0921905166   0.0025118224   0.0494644719
        0.0081650391  -0.0022355675   0.1013477995  -0.0993173913  -0.0045979431
       -0.0013578132  -0.0067312441   0.0001063746  -0.0754303926  -0.0339292998
        0.0051393526   0.2267187865  -0.3336758708  -0.0120867436  -0.0506131894
       -0.1292199198   0.0048208911  -0.0993173913   0.5035563344   0.0020201254
        0.0024590308   0.0001337745   0.0003535270   0.0026376450   0.0001952772
       -0.0129530945   0.0011810791  -0.0031250860  -0.0190702084  -0.0016798118
        0.0007759088   0.0157458434  -0.0045979431   0.0020201254   0.0159239325
