      -----------------------------------------------------------      
     |                   =====================                   |     
     |                           x T B                           |     
     |                   =====================                   |     
     |                         S. Grimme                         |     
     |          Mulliken Center for Theoretical Chemistry        |     
     |                    University of Bonn                     |     
      -----------------------------------------------------------      

   * xtb version 6.2.2 (9d81278992624c895f80dd42a50cac0aa55982e2) compiled by '@Darwin' on 04/03/2020

   xtb is free software: you can redistribute it and/or modify it under
   the terms of the GNU Lesser General Public License as published by
   the Free Software Foundation, either version 3 of the License, or
   (at your option) any later version.
   
   xtb is distributed in the hope that it will be useful,
   but WITHOUT ANY WARRANTY; without even the implied warranty of
   MERCHANTABILITY or FITNESS FOR A PARTICULAR PURPOSE.  See the
   GNU Lesser General Public License for more details.
   
   Cite this work as:
   * S. Grimme, C. Bannwarth, P. Shushkov, J. Chem. Theory Comput., 2017,
     13, 1989-2009. DOI: 10.1021/acs.jctc.7b00118
   * C. Bannwarth, S. Ehlert and S. Grimme., J. Chem. Theory Comput., 2019,
     15, 1652-1671. DOI: 10.1021/acs.jctc.8b01176
   * P. Pracht, E. Caldeweyher, S. Ehlert, S. Grimme, ChemRxiv, 2019, preprint.
     DOI: 10.26434/chemrxiv.8326202.v1
   
   for DFT-D4:
   * E. Caldeweyher, C. Bannwarth and S. Grimme, J. Chem. Phys., 2017,
     147, 034112. DOI: 10.1063/1.4993215
   * E. Caldeweyher, S. Ehlert, A. Hansen, H. Neugebauer, S. Spicher,
     C. Bannwarth and S. Grimme, J. Chem. Phys., 2019, 150, 154122.
     DOI: 10.1063/1.5090222
   
   for sTDA-xTB:
   * S. Grimme and C. Bannwarth, J. Chem. Phys., 2016, 145, 054103.
     DOI: 10.1063/1.4959605
   
   in the mass-spec context:
   * V. Asgeirsson, C. Bauer and S. Grimme, Chem. Sci., 2017, 8, 4879.
     DOI: 10.1039/c7sc00601b
   
   for metadynamics refer to:
   * S. Grimme, J. Chem. Theory Comput., 2019, 155, 2847-2862
     DOI: 10.1021/acs.jctc.9b00143
   
   with help from (in alphabetical order)
   C. Bannwarth, F. Bohle, G. Brandenburg, E. Caldeweyher, M. Checinski,
   S. Dohm, S. Ehlert, S. Ehrlich, F. März, H. Neugebauer, J. Pisarek,
   P. Pracht, P. Shushkov, and S. Spicher.
   
 * started run on 2020/05/12 at 11:44:13.194     

           -------------------------------------------------
          |                Calculation Setup                |
           -------------------------------------------------

          program call               : xtb --input C4N1_34_S_1.input C4N1_34_S_1.xyz --ohess --molden --namespace C4N1_34_S_1 output.out
          calculation namespace      : C4N1_34_S_1
          coordinate file            : C4N1_34_S_1.xyz
          number of atoms            :                     5
          number of electrons        :                    21
          charge                     :                     0
          spin                       :                   0.5
          first test random number   :      0.85155662220998

   ID    Z sym.   atoms
    1    6 C      1, 3-5
    2    7 N      2

           -------------------------------------------------
          |                 G F N 2 - x T B                 |
           -------------------------------------------------

        Reference                      10.1021/acs.jctc.8b01176
      * Hamiltonian:
        H0-scaling (s, p, d)           1.850000    2.230000    2.230000
        zeta-weighting                 0.500000
      * Dispersion:
        s8                             2.700000
        a1                             0.520000
        a2                             5.000000
        s9                             5.000000
      * Repulsion:
        kExp                           1.500000    1.000000
        rExp                           1.000000
      * Coulomb:
        alpha                          2.000000
        third order                    shell-resolved
        anisotropic                    true
        a3                             3.000000
        a5                             4.000000
        cn-shift                       1.200000
        cn-exp                         4.000000
        max-rad                        5.000000


          ...................................................
          :                      SETUP                      :
          :.................................................:
          :  # basis functions                  20          :
          :  # atomic orbitals                  20          :
          :  # shells                           10          :
          :  # electrons                        21          :
          :  max. iterations                   250          :
          :  Hamiltonian                  GFN2-xTB          :
          :  restarted?                      false          :
          :  GBSA solvation                  false          :
          :  PC potential                    false          :
          :  electronic temp.          300.0000000     K    :
          :  accuracy                    1.0000000          :
          :  -> integral cutoff          0.2500000E+02      :
          :  -> integral neglect         0.1000000E-07      :
          :  -> SCF convergence          0.1000000E-05 Eh   :
          :  -> wf. convergence          0.1000000E-03 e    :
          :  Broyden damping             0.4000000          :
          ...................................................

 iter      E             dE          RMSdq      gap      omega  full diag
   1    -10.9365588 -0.109366E+02  0.105E+01    1.61       0.0  T
   2    -10.0738049  0.862754E+00  0.110E+01    1.48       1.0  T
   3     -9.3105539  0.763251E+00  0.123E+01    1.36       1.0  T
   4    -11.0077313 -0.169718E+01  0.478E+00    1.30       1.0  T
   5    -11.0167750 -0.904374E-02  0.276E+00    1.30       1.0  T
   6    -11.0451323 -0.283573E-01  0.154E+00    1.28       1.0  T
   7    -11.0457061 -0.573840E-03  0.136E+00    1.28       1.0  T
   8    -11.0427699  0.293621E-02  0.997E-01    1.28       1.0  T
   9    -11.0436908 -0.920899E-03  0.703E-01    1.26       1.0  T
  10    -11.0464997 -0.280892E-02  0.296E-01    1.25       1.0  T
  11    -11.0464810  0.187234E-04  0.175E-01    1.25       1.0  T
  12    -11.0466517 -0.170736E-03  0.353E-02    1.25       1.3  T
  13    -11.0466557 -0.397891E-05  0.940E-03    1.25       4.8  T
  14    -11.0466559 -0.186195E-06  0.491E-03    1.25       9.1  T
  15    -11.0466561 -0.158918E-06  0.160E-03    1.25      28.0  T
  16    -11.0466561 -0.112502E-07  0.230E-04    1.25     194.7  T
  17    -11.0466561 -0.216460E-09  0.485E-05    1.25     922.0  T

   *** convergence criteria satisfied after 17 iterations ***

         #    Occupation            Energy/Eh            Energy/eV
      -------------------------------------------------------------
         1        2.0000           -0.7729784             -21.0338
       ...           ...                  ...                  ...
         5        2.0000           -0.5787338             -15.7481
         6        2.0000           -0.5502680             -14.9736
         7        2.0000           -0.5301485             -14.4261
         8        2.0000           -0.4992572             -13.5855
         9        2.0000           -0.4911665             -13.3653
        10        1.9849           -0.4449772             -12.1084
        11        1.0151           -0.4370403             -11.8925 (HOMO)
        12                         -0.3910196             -10.6402 (LUMO)
        13                         -0.3756576             -10.2222
        14                         -0.3477539              -9.4629
        15                         -0.2610555              -7.1037
        16                         -0.0396223              -1.0782
       ...                                ...                  ...
        20                          0.2134272               5.8076
      -------------------------------------------------------------
                  HL-Gap            0.0460207 Eh            1.2523 eV
             Fermi-level           -0.4275193 Eh          -11.6334 eV

 SCC (total)                   0 d,  0 h,  0 min,  0.004 sec
 SCC setup                      ...        0 min,  0.000 sec (  1.632%)
 Dispersion                     ...        0 min,  0.000 sec (  0.314%)
 integral evaluation            ...        0 min,  0.001 sec ( 26.951%)
 zeroth order Hamiltonian       ...        0 min,  0.000 sec (  0.447%)
 iterations                     ...        0 min,  0.002 sec ( 39.581%)
 molecular gradient             ...        0 min,  0.001 sec ( 29.120%)
 printout                       ...        0 min,  0.000 sec (  1.765%)

         :::::::::::::::::::::::::::::::::::::::::::::::::::::
         ::                     SUMMARY                     ::
         :::::::::::::::::::::::::::::::::::::::::::::::::::::
         :: total energy             -10.961971161442 Eh    ::
         :: gradient norm              0.213860637381 Eh/a0 ::
         :: HOMO-LUMO gap              1.252287911812 eV    ::
         ::.................................................::
         :: SCC energy               -11.046656079167 Eh    ::
         :: -> isotropic ES           -0.022074526345 Eh    ::
         :: -> anisotropic ES          0.002718889038 Eh    ::
         :: -> anisotropic XC          0.011642149617 Eh    ::
         :: -> dispersion             -0.002955496591 Eh    ::
         :: repulsion energy           0.084684848998 Eh    ::
         :: add. restraining           0.000000000000 Eh    ::
         :::::::::::::::::::::::::::::::::::::::::::::::::::::

      ----------------------------------------------------------- 
     |                   =====================                   |
     |                        A N C O P T                        |
     |                   =====================                   |
     |               Approximate Normal Coordinate               |
     |                Rational Function Optimizer                |
      ----------------------------------------------------------- 

          ...................................................
          :                      SETUP                      :
          :.................................................:
          :   optimization level            normal          :
          :   max. optcycles                   200          :
          :   ANC micro-cycles                  20          :
          :   degrees of freedom                 9          :
          :.................................................:
          :   RF solver                   davidson          :
          :   write xtbopt.log                true          :
          :   linear?                        false          :
          :   energy convergence         0.5000000E-05 Eh   :
          :   grad. convergence          0.1000000E-02 Eh/α :
          :   maximium RF displ.         1.0000000          :
          :   Hlow (freq-cutoff)         0.1000000E-01      :
          :   Hmax (freq-cutoff)         5.0000000          :
          :   S6 in model hess.         20.0000000          :
          ...................................................

generating ANC from model Hessian ...
Using Lindh-Hessian (1995)
 Shifting diagonal of input Hessian by    0.0000000000000000     
 Lowest  eigenvalues of input Hessian
   -0.000000   -0.000000    0.000000    0.000000    0.000000    0.000000
    0.038039    0.067760    0.153766    0.614432    0.748391    0.840340
    0.986784    1.418984    1.494247
 Highest eigenvalues
    0.614432    0.748391    0.840340    0.986784    1.418984    1.494247


........................................................................
.............................. CYCLE    1 ..............................
........................................................................
   1    -11.0466561 -0.110467E+02  0.120E-05    1.25       0.0  T
   2    -11.0466561  0.122391E-10  0.379E-05    1.25    1180.2  T
   3    -11.0466561 -0.112710E-10  0.136E-05    1.25    3290.1  T
     SCC iter.                  ...        0 min,  0.000 sec
     gradient                   ...        0 min,  0.001 sec
 * total energy  :   -10.9619712 Eh     change        0.2124221E-09 Eh
   gradient norm :     0.2138608 Eh/α   predicted     0.0000000E+00 (-100.00%)
   displ. norm   :     0.3117244 α      lambda       -0.5679573E-01
   maximum displ.:     0.2138280 α      in ANC's #4, #1, #6, ...

........................................................................
.............................. CYCLE    2 ..............................
........................................................................
   1    -11.1109646 -0.111110E+02  0.248E+00    1.54       0.0  T
   2    -10.8774784  0.233486E+00  0.531E+00    1.71       1.0  T
   3    -11.1017301 -0.224252E+00  0.204E+00    1.46       1.0  T
   4    -11.1238403 -0.221102E-01  0.104E+00    1.57       1.0  T
   5    -11.1278354 -0.399510E-02  0.465E-01    1.51       1.0  T
   6    -11.1288671 -0.103170E-02  0.316E-01    1.52       1.0  T
   7    -11.1290758 -0.208778E-03  0.151E-01    1.51       1.0  T
   8    -11.1291976 -0.121745E-03  0.425E-02    1.52       1.1  T
   9    -11.1291989 -0.128417E-05  0.247E-02    1.52       1.8  T
  10    -11.1292010 -0.213550E-05  0.880E-03    1.52       5.1  T
  11    -11.1292011 -0.822424E-07  0.954E-04    1.52      46.9  T
  12    -11.1292011  0.332987E-09  0.783E-04    1.52      57.1  T
     SCC iter.                  ...        0 min,  0.002 sec
     gradient                   ...        0 min,  0.002 sec
 * total energy  :   -11.0093736 Eh     change       -0.4740249E-01 Eh
   gradient norm :     0.1333342 Eh/α   predicted    -0.3115733E-01 ( -34.27%)
   displ. norm   :     0.4412492 α      lambda       -0.5277845E-01
   maximum displ.:     0.3001929 α      in ANC's #4, #6, #3, ...

........................................................................
.............................. CYCLE    3 ..............................
........................................................................
   1    -11.2115405 -0.112115E+02  0.309E+00    1.84       0.0  T
   2    -10.9408436  0.270697E+00  0.579E+00    1.86       1.0  T
   3    -11.1880103 -0.247167E+00  0.269E+00    1.74       1.0  T
   4    -11.2255007 -0.374904E-01  0.129E+00    1.87       1.0  T
   5    -11.2254026  0.981587E-04  0.102E+00    1.80       1.0  T
   6    -11.2266928 -0.129025E-02  0.905E-01    1.82       1.0  T
   7    -11.2269957 -0.302862E-03  0.809E-01    1.82       1.0  T
   8    -11.2301235 -0.312781E-02  0.228E-01    1.85       1.0  T
   9    -11.2301084  0.150888E-04  0.239E-01    1.85       1.0  T
  10    -11.2300886  0.198332E-04  0.269E-01    1.85       1.0  T
  11    -11.2301964 -0.107879E-03  0.303E-02    1.85       1.5  T
  12    -11.2301987 -0.228823E-05  0.864E-03    1.85       5.2  T
  13    -11.2301988 -0.626684E-07  0.216E-03    1.85      20.7  T
  14    -11.2301988 -0.252325E-08  0.113E-03    1.85      39.6  T
  15    -11.2301988 -0.727216E-09  0.116E-04    1.85     385.4  T
  16    -11.2301988  0.862599E-11  0.745E-05    1.85     599.9  T
     SCC iter.                  ...        0 min,  0.002 sec
     gradient                   ...        0 min,  0.001 sec
 * total energy  :   -11.0248716 Eh     change       -0.1549793E-01 Eh
   gradient norm :     0.1839817 Eh/α   predicted    -0.3152722E-01 ( 103.43%)
   displ. norm   :     0.4718464 α      lambda       -0.3743954E-01
   maximum displ.:     0.4231214 α      in ANC's #1, #3, #6, ...

........................................................................
.............................. CYCLE    4 ..............................
........................................................................
   1    -11.1735803 -0.111736E+02  0.200E+00    1.47       0.0  T
   2    -11.0898441  0.837362E-01  0.323E+00    1.29       1.0  T
   3    -11.1582297 -0.683857E-01  0.191E+00    1.52       1.0  T
   4    -11.1798958 -0.216660E-01  0.812E-01    1.41       1.0  T
   5    -11.1824356 -0.253988E-02  0.210E-01    1.40       1.0  T
   6    -11.1824694 -0.337285E-04  0.177E-01    1.40       1.0  T
   7    -11.1824810 -0.116272E-04  0.138E-01    1.40       1.0  T
   8    -11.1824990 -0.180269E-04  0.497E-02    1.40       1.0  T
   9    -11.1825100 -0.109457E-04  0.897E-03    1.39       5.0  T
  10    -11.1825102 -0.284630E-06  0.169E-03    1.39      26.5  T
  11    -11.1825103 -0.462591E-08  0.846E-04    1.39      52.9  T
  12    -11.1825103 -0.769488E-09  0.804E-05    1.39     556.3  T
     SCC iter.                  ...        0 min,  0.001 sec
     gradient                   ...        0 min,  0.001 sec
 * total energy  :   -11.0386027 Eh     change       -0.1373109E-01 Eh
   gradient norm :     0.0763387 Eh/α   predicted    -0.2288752E-01 (  66.68%)
   displ. norm   :     0.1316650 α      lambda       -0.5588486E-02
   maximum displ.:     0.0898521 α      in ANC's #3, #1, #6, ...

........................................................................
.............................. CYCLE    5 ..............................
........................................................................
   1    -11.1870510 -0.111871E+02  0.709E-01    1.39       0.0  T
   2    -11.1789238  0.812729E-02  0.114E+00    1.44       1.0  T
   3    -11.1870663 -0.814253E-02  0.497E-01    1.37       1.0  T
   4    -11.1870610  0.532565E-05  0.389E-01    1.43       1.0  T
   5    -11.1883465 -0.128553E-02  0.780E-02    1.39       1.0  T
   6    -11.1883667 -0.202546E-04  0.461E-02    1.39       1.0  T
   7    -11.1883744 -0.762692E-05  0.195E-02    1.39       2.3  T
   8    -11.1883759 -0.149077E-05  0.437E-03    1.39      10.2  T
   9    -11.1883759 -0.675179E-07  0.191E-03    1.39      23.4  T
  10    -11.1883759 -0.124338E-07  0.210E-04    1.39     213.2  T
  11    -11.1883759 -0.621725E-10  0.821E-05    1.39     544.6  T
     SCC iter.                  ...        0 min,  0.001 sec
     gradient                   ...        0 min,  0.001 sec
 * total energy  :   -11.0422640 Eh     change       -0.3661328E-02 Eh
   gradient norm :     0.0391190 Eh/α   predicted    -0.2842686E-02 ( -22.36%)
   displ. norm   :     0.1784774 α      lambda       -0.3732892E-02
   maximum displ.:     0.1191415 α      in ANC's #1, #4, #2, ...

........................................................................
.............................. CYCLE    6 ..............................
........................................................................
   1    -11.1991569 -0.111992E+02  0.780E-01    1.37       0.0  T
   2    -11.1979193  0.123762E-02  0.636E-01    1.41       1.0  T
   3    -11.1939552  0.396407E-02  0.852E-01    1.32       1.0  T
   4    -11.1990813 -0.512609E-02  0.214E-01    1.38       1.0  T
   5    -11.1993994 -0.318091E-03  0.545E-02    1.37       1.0  T
   6    -11.1994014 -0.199285E-05  0.390E-02    1.37       1.1  T
   7    -11.1994066 -0.528853E-05  0.205E-02    1.37       2.2  T
   8    -11.1994083 -0.167002E-05  0.594E-03    1.37       7.5  T
   9    -11.1994086 -0.252991E-06  0.237E-03    1.37      18.9  T
  10    -11.1994086 -0.208861E-07  0.305E-04    1.37     146.4  T
  11    -11.1994086 -0.385466E-09  0.723E-05    1.37     618.4  T
     SCC iter.                  ...        0 min,  0.001 sec
     gradient                   ...        0 min,  0.001 sec
 * total energy  :   -11.0448694 Eh     change       -0.2605455E-02 Eh
   gradient norm :     0.0220462 Eh/α   predicted    -0.1925899E-02 ( -26.08%)
   displ. norm   :     0.1809189 α      lambda       -0.2108270E-02
   maximum displ.:     0.1113857 α      in ANC's #1, #4, #2, ...

........................................................................
.............................. CYCLE    7 ..............................
........................................................................
   1    -11.2017484 -0.112017E+02  0.812E-01    1.31       0.0  T
   2    -11.1994219  0.232648E-02  0.726E-01    1.30       1.0  T
   3    -11.1984326  0.989290E-03  0.811E-01    1.34       1.0  T
   4    -11.1999399 -0.150730E-02  0.488E-01    1.25       1.0  T
   5    -11.2022225 -0.228264E-02  0.555E-02    1.31       1.0  T
   6    -11.2022233 -0.806808E-06  0.417E-02    1.30       1.1  T
   7    -11.2022279 -0.455147E-05  0.191E-02    1.30       2.3  T
   8    -11.2022290 -0.106565E-05  0.423E-03    1.30      10.6  T
   9    -11.2022291 -0.117716E-06  0.116E-03    1.30      38.7  T
  10    -11.2022291 -0.180863E-08  0.226E-04    1.30     198.1  T
  11    -11.2022291 -0.108500E-09  0.943E-05    1.30     474.3  T
     SCC iter.                  ...        0 min,  0.001 sec
     gradient                   ...        0 min,  0.001 sec
 * total energy  :   -11.0463252 Eh     change       -0.1455754E-02 Eh
   gradient norm :     0.0219212 Eh/α   predicted    -0.1088638E-02 ( -25.22%)
   displ. norm   :     0.1497533 α      lambda       -0.1966999E-02
   maximum displ.:     0.1219730 α      in ANC's #4, #6, #2, ...

........................................................................
.............................. CYCLE    8 ..............................
........................................................................
   1    -11.2149897 -0.112150E+02  0.110E+00    1.26       0.0  T
   2    -11.2103493  0.464045E-02  0.999E-01    1.34       1.0  T
   3    -11.2138747 -0.352544E-02  0.849E-01    1.26       1.0  T
   4    -11.2136650  0.209706E-03  0.577E-01    1.23       1.0  T
   5    -11.2166187 -0.295369E-02  0.844E-02    1.29       1.0  T
   6    -11.2166498 -0.310843E-04  0.656E-02    1.28       1.0  T
   7    -11.2166660 -0.162177E-04  0.295E-02    1.28       1.5  T
   8    -11.2166688 -0.280195E-05  0.113E-02    1.28       4.0  T
   9    -11.2166697 -0.907854E-06  0.360E-03    1.28      12.4  T
  10    -11.2166698 -0.585759E-07  0.691E-04    1.28      64.7  T
  11    -11.2166698 -0.326140E-08  0.209E-04    1.28     214.4  T
     SCC iter.                  ...        0 min,  0.001 sec
     gradient                   ...        0 min,  0.001 sec
 * total energy  :   -11.0474381 Eh     change       -0.1112906E-02 Eh
   gradient norm :     0.0289605 Eh/α   predicted    -0.1005558E-02 (  -9.65%)
   displ. norm   :     0.1448556 α      lambda       -0.1173339E-02
   maximum displ.:     0.1024605 α      in ANC's #4, #1, #6, ...

........................................................................
.............................. CYCLE    9 ..............................
........................................................................
   1    -11.2090833 -0.112091E+02  0.931E-01    1.19       0.0  T
   2    -11.1972465  0.118368E-01  0.131E+00    1.12       1.0  T
   3    -11.2050307 -0.778415E-02  0.877E-01    1.25       1.0  T
   4    -11.2080896 -0.305889E-02  0.528E-01    1.11       1.0  T
   5    -11.2104769 -0.238737E-02  0.121E-01    1.18       1.0  T
   6    -11.2105683 -0.913338E-04  0.363E-02    1.18       1.2  T
   7    -11.2105713 -0.302730E-05  0.222E-02    1.18       2.0  T
   8    -11.2105715 -0.203652E-06  0.871E-03    1.18       5.1  T
   9    -11.2105721 -0.644741E-06  0.149E-03    1.18      29.9  T
  10    -11.2105721 -0.527267E-08  0.258E-04    1.18     173.5  T
  11    -11.2105722 -0.226789E-09  0.933E-05    1.18     479.5  T
     SCC iter.                  ...        0 min,  0.001 sec
     gradient                   ...        0 min,  0.001 sec
 * total energy  :   -11.0479196 Eh     change       -0.4815112E-03 Eh
   gradient norm :     0.0166850 Eh/α   predicted    -0.5989791E-03 (  24.40%)
   displ. norm   :     0.0715086 α      lambda       -0.7104010E-03
   maximum displ.:     0.0644178 α      in ANC's #1, #7, #6, ...

........................................................................
.............................. CYCLE   10 ..............................
........................................................................
   1    -11.2161494 -0.112161E+02  0.408E-01    1.18       0.0  T
   2    -11.2153385  0.810891E-03  0.348E-01    1.25       1.0  T
   3    -11.2142003  0.113819E-02  0.472E-01    1.15       1.0  T
   4    -11.2160584 -0.185813E-02  0.234E-01    1.20       1.0  T
   5    -11.2162798 -0.221338E-03  0.740E-02    1.20       1.0  T
   6    -11.2163168 -0.369713E-04  0.171E-02    1.20       2.6  T
   7    -11.2163166  0.124185E-06  0.120E-02    1.20       3.7  T
   8    -11.2163176 -0.921447E-06  0.166E-03    1.20      27.0  T
   9    -11.2163176 -0.376688E-08  0.109E-03    1.20      41.1  T
  10    -11.2163176 -0.455770E-08  0.158E-04    1.20     283.9  T
  11    -11.2163176 -0.726033E-10  0.401E-05    1.20    1114.9  T
     SCC iter.                  ...        0 min,  0.001 sec
     gradient                   ...        0 min,  0.001 sec
 * total energy  :   -11.0483325 Eh     change       -0.4128906E-03 Eh
   gradient norm :     0.0159863 Eh/α   predicted    -0.3570155E-03 ( -13.53%)
   displ. norm   :     0.0685681 α      lambda       -0.3953407E-03
   maximum displ.:     0.0554238 α      in ANC's #1, #2, #6, ...

........................................................................
.............................. CYCLE   11 ..............................
........................................................................
   1    -11.2161565 -0.112162E+02  0.376E-01    1.19       0.0  T
   2    -11.2156793  0.477269E-03  0.325E-01    1.20       1.0  T
   3    -11.2156359  0.433946E-04  0.344E-01    1.21       1.0  T
   4    -11.2156787 -0.428144E-04  0.243E-01    1.16       1.0  T
   5    -11.2162822 -0.603488E-03  0.455E-02    1.20       1.0  T
   6    -11.2162981 -0.158942E-04  0.139E-02    1.20       3.2  T
   7    -11.2162978  0.288888E-06  0.975E-03    1.20       4.6  T
   8    -11.2162984 -0.571115E-06  0.957E-04    1.20      46.7  T
   9    -11.2162984 -0.176319E-08  0.619E-04    1.20      72.2  T
     SCC iter.                  ...        0 min,  0.001 sec
     gradient                   ...        0 min,  0.001 sec
 * total energy  :   -11.0486661 Eh     change       -0.3335779E-03 Eh
   gradient norm :     0.0158150 Eh/α   predicted    -0.1985980E-03 ( -40.46%)
   displ. norm   :     0.1641919 α      lambda       -0.9092717E-03
   maximum displ.:     0.1243714 α      in ANC's #1, #6, #2, ...

........................................................................
.............................. CYCLE   12 ..............................
........................................................................
   1    -11.2092960 -0.112093E+02  0.837E-01    1.18       0.0  T
   2    -11.2068575  0.243848E-02  0.687E-01    1.15       1.0  T
   3    -11.2043328  0.252470E-02  0.875E-01    1.25       1.0  T
   4    -11.2081072 -0.377441E-02  0.427E-01    1.12       1.0  T
   5    -11.2097498 -0.164255E-02  0.993E-02    1.19       1.0  T
   6    -11.2098146 -0.647766E-04  0.327E-02    1.19       1.4  T
   7    -11.2098134  0.117073E-05  0.213E-02    1.18       2.1  T
   8    -11.2098153 -0.187310E-05  0.460E-03    1.19       9.7  T
   9    -11.2098154 -0.120044E-06  0.212E-03    1.19      21.1  T
  10    -11.2098154 -0.974667E-08  0.260E-04    1.19     171.7  T
  11    -11.2098154 -0.805738E-10  0.933E-05    1.19     479.3  T
     SCC iter.                  ...        0 min,  0.001 sec
     gradient                   ...        0 min,  0.001 sec
 * total energy  :   -11.0490826 Eh     change       -0.4164969E-03 Eh
   gradient norm :     0.0086505 Eh/α   predicted    -0.4668917E-03 (  12.10%)
   displ. norm   :     0.0314923 α      lambda       -0.1397474E-03
   maximum displ.:     0.0259155 α      in ANC's #4, #1, #2, ...

........................................................................
.............................. CYCLE   13 ..............................
........................................................................
   1    -11.2119645 -0.112120E+02  0.152E-01    1.16       0.0  T
   2    -11.2119427  0.217610E-04  0.109E-01    1.16       1.0  T
   3    -11.2119044  0.382821E-04  0.121E-01    1.16       1.0  T
   4    -11.2119310 -0.265628E-04  0.759E-02    1.15       1.0  T
   5    -11.2119708 -0.397802E-04  0.271E-02    1.16       1.7  T
   6    -11.2119785 -0.769901E-05  0.679E-03    1.16       6.6  T
   7    -11.2119787 -0.241995E-06  0.301E-03    1.16      14.9  T
   8    -11.2119787 -0.266781E-07  0.732E-04    1.16      61.1  T
   9    -11.2119787 -0.232886E-08  0.272E-04    1.16     164.4  T
     SCC iter.                  ...        0 min,  0.001 sec
     gradient                   ...        0 min,  0.001 sec
 * total energy  :   -11.0491759 Eh     change       -0.9328882E-04 Eh
   gradient norm :     0.0049725 Eh/α   predicted    -0.6994375E-04 ( -25.02%)
   displ. norm   :     0.0265186 α      lambda       -0.9478478E-04
   maximum displ.:     0.0178131 α      in ANC's #2, #4, #1, ...

........................................................................
.............................. CYCLE   14 ..............................
........................................................................
   1    -11.2122376 -0.112122E+02  0.155E-01    1.14       0.0  T
   2    -11.2122222  0.153859E-04  0.102E-01    1.13       1.0  T
   3    -11.2120024  0.219803E-03  0.162E-01    1.16       1.0  T
   4    -11.2122107 -0.208270E-03  0.700E-02    1.14       1.0  T
   5    -11.2122483 -0.375617E-04  0.981E-03    1.14       4.6  T
   6    -11.2122486 -0.358757E-06  0.540E-03    1.14       8.3  T
   7    -11.2122486  0.881751E-08  0.452E-03    1.14       9.9  T
   8    -11.2122487 -0.119644E-06  0.619E-04    1.14      72.2  T
   9    -11.2122487 -0.684928E-09  0.314E-04    1.14     142.6  T
     SCC iter.                  ...        0 min,  0.001 sec
     gradient                   ...        0 min,  0.001 sec
 * total energy  :   -11.0492316 Eh     change       -0.5571463E-04 Eh
   gradient norm :     0.0043878 Eh/α   predicted    -0.4742605E-04 ( -14.88%)
   displ. norm   :     0.0187070 α      lambda       -0.3558066E-04
   maximum displ.:     0.0106585 α      in ANC's #4, #2, #1, ...

........................................................................
.............................. CYCLE   15 ..............................
........................................................................
   1    -11.2120751 -0.112121E+02  0.146E-01    1.12       0.0  T
   2    -11.2120231  0.520629E-04  0.103E-01    1.11       1.0  T
   3    -11.2118488  0.174292E-03  0.176E-01    1.13       1.0  T
   4    -11.2120473 -0.198553E-03  0.632E-02    1.11       1.0  T
   5    -11.2120844 -0.370994E-04  0.883E-03    1.12       5.1  T
   6    -11.2120848 -0.390487E-06  0.392E-03    1.12      11.4  T
   7    -11.2120848  0.724754E-10  0.192E-03    1.12      23.3  T
   8    -11.2120849 -0.245550E-07  0.447E-04    1.12     100.0  T
   9    -11.2120849 -0.296685E-09  0.221E-04    1.12     201.9  T
     SCC iter.                  ...        0 min,  0.001 sec
     gradient                   ...        0 min,  0.001 sec
 * total energy  :   -11.0492560 Eh     change       -0.2436801E-04 Eh
   gradient norm :     0.0034098 Eh/α   predicted    -0.1779466E-04 ( -26.98%)
   displ. norm   :     0.0212495 α      lambda       -0.2792973E-04
   maximum displ.:     0.0184938 α      in ANC's #2, #6, #7, ...

........................................................................
.............................. CYCLE   16 ..............................
........................................................................
   1    -11.2115330 -0.112115E+02  0.104E-01    1.10       0.0  T
   2    -11.2115148  0.182347E-04  0.726E-02    1.10       1.0  T
   3    -11.2113909  0.123820E-03  0.128E-01    1.12       1.0  T
   4    -11.2115257 -0.134730E-03  0.363E-02    1.10       1.2  T
   5    -11.2115367 -0.110470E-04  0.811E-03    1.10       5.5  T
   6    -11.2115370 -0.299672E-06  0.342E-03    1.10      13.1  T
   7    -11.2115370 -0.283617E-07  0.119E-03    1.10      37.6  T
   8    -11.2115370 -0.830776E-08  0.218E-04    1.10     205.4  T
   9    -11.2115370 -0.142464E-11  0.117E-04    1.10     382.1  T
     SCC iter.                  ...        0 min,  0.001 sec
     gradient                   ...        0 min,  0.001 sec
 * total energy  :   -11.0492722 Eh     change       -0.1625029E-04 Eh
   gradient norm :     0.0011172 Eh/α   predicted    -0.1397047E-04 ( -14.03%)
   displ. norm   :     0.0077240 α      lambda       -0.3077602E-05
   maximum displ.:     0.0053208 α      in ANC's #2, #3, #5, ...

........................................................................
.............................. CYCLE   17 ..............................
........................................................................
   1    -11.2113892 -0.112114E+02  0.359E-02    1.10       0.0  T
   2    -11.2113882  0.101057E-05  0.281E-02    1.10       1.6  T
   3    -11.2113844  0.382612E-05  0.288E-02    1.10       1.6  T
   4    -11.2113834  0.930103E-06  0.253E-02    1.10       1.8  T
   5    -11.2113901 -0.666775E-05  0.273E-03    1.10      16.4  T
   6    -11.2113901 -0.552303E-07  0.139E-03    1.10      32.2  T
   7    -11.2113901 -0.235708E-09  0.920E-04    1.10      48.6  T
   8    -11.2113902 -0.559648E-08  0.163E-04    1.10     274.4  T
     SCC iter.                  ...        0 min,  0.001 sec
     gradient                   ...        0 min,  0.001 sec
 * total energy  :   -11.0492742 Eh     change       -0.1975364E-05 Eh
   gradient norm :     0.0008754 Eh/α   predicted    -0.1536652E-05 ( -22.21%)
   displ. norm   :     0.0012755 α      lambda       -0.5274788E-06
   maximum displ.:     0.0008911 α      in ANC's #9, #4, #6, ...

   *** GEOMETRY OPTIMIZATION CONVERGED AFTER 17 ITERATIONS ***

------------------------------------------------------------------------
 total energy gain   :        -0.0873030 Eh      -54.7835 kcal/mol
 total RMSD          :         0.6689924 a0        0.3540 Å
 total power (kW/mol):       -13.4831793 (step)-3427.6474 (real)
------------------------------------------------------------------------

 ANCopt (total)                0 d,  0 h,  0 min,  0.067 sec
 optimizer setup                ...        0 min,  0.000 sec (  0.081%)
 model hessian                  ...        0 min,  0.000 sec (  0.149%)
 ANC generation                 ...        0 min,  0.000 sec (  0.069%)
 coordinate transformation      ...        0 min,  0.000 sec (  0.057%)
 single point calculation       ...        0 min,  0.065 sec ( 97.671%)
 optimization log               ...        0 min,  0.000 sec (  0.594%)
 hessian update                 ...        0 min,  0.000 sec (  0.053%)
 rational function              ...        0 min,  0.000 sec (  0.594%)

================
 final structure:
================
5
 xtb: 6.2.2 (9d81278992624c895f80dd42a50cac0aa55982e2)
C        -1.37845693707075    0.39763909156266   -0.03479167574296
N        -0.56220139674897   -0.10794398142955    0.87465144339150
C         0.60808393429297   -0.05475725269342    0.07497123527477
C        -0.51933198372932   -0.41734051594644   -0.79985447844451
C         1.85190638325608    0.18240365850674   -0.11497552447881

 Bond Distances (Angstroems)
 ---------------------------
C1-N2=1.3225         C1-C4=1.4098         N2-C1=1.3225         N2-C3=1.4184         N2-C4=1.7034         C3-N2=1.4184         
C3-C4=1.4724         C3-C5=1.2804         C4-C1=1.4098         C4-N2=1.7034         C4-C3=1.4724         C5-C3=1.2804         
 C  C  Rav=1.3875 sigma=0.0799  Rmin=1.2804  Rmax=1.4724     3
 N  C  Rav=1.4814 sigma=0.1618  Rmin=1.3225  Rmax=1.7034     3

 selected bond angles (degree)
 --------------------
C4-C1-N2= 77.06                C3-N2-C1= 96.15                C4-N2-C1= 53.77                C4-N2-C3= 55.38                
C4-C3-N2= 72.18                C5-C3-N2=153.14                C5-C3-C4=134.53                N2-C4-C1= 49.17                
C3-C4-C1= 90.10                C3-C4-N2= 52.44                

 selected dihedral angles (degree)
 ---------------------------------
C3-N2-C1-C4= 38.05            C4-C3-N2-C1=322.83            C5-C3-N2-C1=137.48            C5-C3-N2-C4=174.65            
C3-C4-C1-N2=323.82            C1-C4-N2-C3=228.13            C3-C4-N2-C1=131.87            C1-C4-C3-N2= 34.30            
C1-C4-C3-C5=217.69            N2-C4-C3-C5=183.39            
           -------------------------------------------------
          |                Final Singlepoint                |
           -------------------------------------------------

          ...................................................
          :                      SETUP                      :
          :.................................................:
          :  # basis functions                  20          :
          :  # atomic orbitals                  20          :
          :  # shells                           10          :
          :  # electrons                        21          :
          :  max. iterations                   250          :
          :  Hamiltonian                  GFN2-xTB          :
          :  restarted?                      false          :
          :  GBSA solvation                  false          :
          :  PC potential                    false          :
          :  electronic temp.          300.0000000     K    :
          :  accuracy                    1.0000000          :
          :  -> integral cutoff          0.2500000E+02      :
          :  -> integral neglect         0.1000000E-07      :
          :  -> SCF convergence          0.1000000E-05 Eh   :
          :  -> wf. convergence          0.1000000E-03 e    :
          :  Broyden damping             0.4000000          :
          ...................................................

 iter      E             dE          RMSdq      gap      omega  full diag
   1    -11.2113902 -0.112114E+02  0.465E-05    1.10       0.0  T
   2    -11.2113902  0.137774E-10  0.626E-05    1.10     714.9  T
   3    -11.2113902 -0.163691E-10  0.265E-05    1.10    1685.5  T

   *** convergence criteria satisfied after 3 iterations ***

         #    Occupation            Energy/Eh            Energy/eV
      -------------------------------------------------------------
         1        2.0000           -0.7722624             -21.0143
       ...           ...                  ...                  ...
         5        2.0000           -0.5947110             -16.1829
         6        2.0000           -0.5645058             -15.3610
         7        2.0000           -0.5080051             -13.8235
         8        2.0000           -0.4928947             -13.4123
         9        2.0000           -0.4712774             -12.8241
        10        2.0000           -0.4555695             -12.3967
        11        1.0000           -0.4276554             -11.6371 (HOMO)
        12                         -0.3872332             -10.5372 (LUMO)
        13                         -0.3219606              -8.7610
        14                         -0.2941744              -8.0049
        15                         -0.2267243              -6.1695
        16                          0.0058255               0.1585
       ...                                ...                  ...
        20                          0.7818839              21.2761
      -------------------------------------------------------------
                  HL-Gap            0.0404222 Eh            1.0999 eV
             Fermi-level           -0.4245283 Eh          -11.5520 eV

 SCC (total)                   0 d,  0 h,  0 min,  0.003 sec
 SCC setup                      ...        0 min,  0.000 sec (  1.923%)
 Dispersion                     ...        0 min,  0.000 sec (  0.435%)
 integral evaluation            ...        0 min,  0.001 sec ( 40.853%)
 zeroth order Hamiltonian       ...        0 min,  0.000 sec (  0.494%)
 iterations                     ...        0 min,  0.000 sec ( 11.059%)
 molecular gradient             ...        0 min,  0.001 sec ( 43.542%)
 printout                       ...        0 min,  0.000 sec (  1.429%)

         :::::::::::::::::::::::::::::::::::::::::::::::::::::
         ::                     SUMMARY                     ::
         :::::::::::::::::::::::::::::::::::::::::::::::::::::
         :: total energy             -11.049274181428 Eh    ::
         :: gradient norm              0.000886861644 Eh/a0 ::
         :: HOMO-LUMO gap              1.099943923789 eV    ::
         ::.................................................::
         :: SCC energy               -11.211390152729 Eh    ::
         :: -> isotropic ES           -0.011804036475 Eh    ::
         :: -> anisotropic ES          0.004275598530 Eh    ::
         :: -> anisotropic XC          0.011508120644 Eh    ::
         :: -> dispersion             -0.002874891403 Eh    ::
         :: repulsion energy           0.162115939095 Eh    ::
         :: add. restraining           0.000000000000 Eh    ::
         :::::::::::::::::::::::::::::::::::::::::::::::::::::

           ------------------------------------------------- 
          |                Numerical Hessian                |
           ------------------------------------------------- 
step length          :   0.00500
SCC accuracy         :   0.30000
Hessian scale factor :   1.00000
frozen atoms in %    :   0.00000    0
RMS gradient         :   0.00089
estimated CPU  time      0.00 min
estimated wall time      0.00 min

writing file <hessian>.

 projected vibrational frequencies (cm-1)
eigval :       -0.00    -0.00    -0.00    -0.00    -0.00     0.00
eigval :      217.66   256.51   431.70   498.22   782.62   971.64
eigval :     1031.67  1426.46  1708.82
           -------------------------------------------------
          |                Property Printout                |
           -------------------------------------------------

    * Orbital Energies and Occupations

         #    Occupation            Energy/Eh            Energy/eV
      -------------------------------------------------------------
         1        2.0000           -0.7722621             -21.0143
         2        2.0000           -0.6988152             -19.0157
         3        2.0000           -0.6493117             -17.6687
         4        2.0000           -0.6447016             -17.5432
         5        2.0000           -0.5947108             -16.1829
         6        2.0000           -0.5645056             -15.3610
         7        2.0000           -0.5080049             -13.8235
         8        2.0000           -0.4928947             -13.4123
         9        2.0000           -0.4712777             -12.8241
        10        2.0000           -0.4555694             -12.3967
        11        1.0000           -0.4276553             -11.6371 (HOMO)
        12                         -0.3872333             -10.5372 (LUMO)
        13                         -0.3219604              -8.7610
        14                         -0.2941743              -8.0049
        15                         -0.2267245              -6.1695
        16                          0.0058255               0.1585
        17                          0.0809408               2.2025
        18                          0.1395474               3.7973
        19                          0.3791833              10.3181
        20                          0.7818838              21.2761
      -------------------------------------------------------------
                  HL-Gap            0.0404219 Eh            1.0999 eV
             Fermi-level           -0.4245283 Eh          -11.5520 eV

     #   Z        covCN         q      C6AA      α(0)
     1   6 C      2.298     0.032    28.862     8.720
     2   7 N      2.645    -0.067    22.552     7.053
     3   6 C      3.275     0.164    23.254     7.768
     4   6 C      2.787    -0.019    28.459     8.738
     5   6 C      0.983    -0.111    39.467    10.553

 Mol. C6AA /au·bohr⁶  :        704.210037
 Mol. C8AA /au·bohr⁸  :      19457.573966
 Mol. α(0) /au        :         42.832339


Wiberg/Mayer (AO) data.
largest (>0.10) Wiberg bond orders for each atom
          total WBO             WBO to atom ...
     1  C   2.865        N    2 1.413    C    4 1.172    C    5 0.156    C    3 0.125
     2  N   3.114        C    1 1.413    C    3 0.906    C    4 0.628    C    5 0.168
     3  C   3.862        C    5 1.942    N    2 0.906    C    4 0.889    C    1 0.125
     4  C   2.910        C    1 1.172    C    3 0.889    N    2 0.628    C    5 0.221
     5  C   2.486        C    3 1.942    C    4 0.221    N    2 0.168    C    1 0.156

MOs/occ written to file <molden.input>


molecular dipole:
                 x           y           z       tot (Debye)
 q only:       -0.193      -0.002      -0.038
   full:       -0.400       0.060       0.253       1.213
molecular quadrupole (traceless):
                xx          xy          yy          xz          yz          zz
 q only:       -0.894      -0.368       0.613       0.310       0.007       0.281
Molecule has no symmetry elements
It seems to be the C1 point group
  q+dip:       -2.390      -0.138       2.227       0.141      -0.210       0.163
   full:       -4.023       0.329       3.116       0.315      -0.262       0.907

           -------------------------------------------------
          |                Geometry Summary                 |
           -------------------------------------------------

      molecular mass/u    :       62.0496468
   center of mass at/Å    :       -0.0180844      -0.0034719       0.0281354
  moments of inertia/u·Å² :        0.2298926E+02   0.8052114E+02   0.9505203E+02
rotational constants/cm⁻¹ :        0.7332831E+00   0.2093566E+00   0.1773516E+00

 * 3 selected distances

     #   Z        #   Z                                     value/Å
     1   6 C      2   7 N                                 1.3224879
     2   7 N      3   6 C                                 1.4184093 (max)
     3   6 C      5   6 C                                 1.2803981 (min)

 * 2 distinct bonds (by element types)

   Z      Z             #   av. dist./Å        max./Å        min./Å
   6 C    6 C           1     1.2803981     1.2803981     1.2803981
   6 C    7 N           2     1.3704486     1.4184093     1.3224879

           -------------------------------------------------
          |               Frequency Printout                |
           -------------------------------------------------
 projected vibrational frequencies (cm-1)
eigval :       -0.00    -0.00    -0.00    -0.00    -0.00     0.00
eigval :      217.66   256.51   431.70   498.22   782.62   971.64
eigval :     1031.67  1426.46  1708.82
 reduced masses (amu)
   1: 12.27   2: 12.49   3: 12.40   4: 12.24   5: 12.90   6: 12.35   7: 12.15   8: 12.13
   9: 12.32  10: 12.59  11: 12.71  12: 12.60  13: 12.34  14: 12.51  15: 12.13
 IR intensities (amu)
   1:  0.08   2:  0.10   3:  0.01   4:  0.05   5:  0.09   6:  0.03   7:  0.44   8:  0.18
   9:  0.68  10:  0.20  11:  0.34  12:  0.75  13:  1.09  14:  0.93  15:  0.43
 Raman intensities (amu)
   1:  0.00   2:  0.00   3:  0.00   4:  0.00   5:  0.00   6:  0.00   7:  0.00   8:  0.00
   9:  0.00  10:  0.00  11:  0.00  12:  0.00  13:  0.00  14:  0.00  15:  0.00
 output can be read by thermo (or use thermo option).
 writing <g98.out> molden fake output.
 recommended (thermochemical) frequency scaling factor: 1.0
           -------------------------------------------------
          |             Thermodynamic Functions             |
           -------------------------------------------------

c1  symmetry found (for desy threshold:  0.10E+00) used in thermo

          ...................................................
          :                      SETUP                      :
          :.................................................:
          :  # frequencies                           9      :
          :  # imaginary freq.                       0      :
          :  linear?                             false      :
          :  only rotor calc.                    false      :
          :  symmetry                               c1      :
          :  rotational number                       1      :
          :  scaling factor                  1.0000000      :
          :  rotor cutoff                   50.0000000 cm⁻¹ :
          :  imag. cutoff                  -20.0000000 cm⁻¹ :
          :.................................................:

    mode    ω/cm⁻¹     T·S(HO)/kcal·mol⁻¹    T·S(FR)/kcal·mol⁻¹   T·S(vib)
   ------------------------------------------------------------------------
       1    217.66    -0.00000 ( 99.72%)     0.01292 (  0.28%)     0.00004
       2    256.51    -0.00000 ( 99.86%)     0.01455 (  0.14%)     0.00002
   ------------------------------------------------------------------------

   temp. (K)  partition function   enthalpy   heat capacity  entropy
                                   cal/mol     cal/K/mol   cal/K/mol   J/K/mol
 298.15  VIB   2.83                 1055.588      7.786      5.611
         ROT  0.320E+05              888.752      2.981     23.598
         INT  0.908E+05             1944.340     10.767     29.209
         TR   0.473E+27             1481.254      4.968     38.278
         TOT                        3425.5942    15.7354    67.4871   282.3659

   temp. (K)  partition function   enthalpy   heat capacity  entropy
                                   cal/mol     cal/K/mol   cal/K/mol   J/K/mol
 120.00  VIB   1.14                   95.787      2.618      1.063
         ROT  0.818E+04              357.707      2.981     20.885
         INT  0.934E+04              453.493      5.599     21.949
         TR   0.121E+27              596.178      4.968     33.759
         TOT                        1049.6715    10.5669    55.7075   233.0801

   temp. (K)  partition function   enthalpy   heat capacity  entropy
                                   cal/mol     cal/K/mol   cal/K/mol   J/K/mol
 100.00  VIB   1.08                   50.789      1.878      0.655
         ROT  0.622E+04              298.089      2.981     20.342
         INT  0.669E+04              348.878      4.859     20.997
         TR   0.919E+26              496.815      4.968     32.853
         TOT                         845.6935     9.8267    53.8504   225.3102

   temp. (K)  partition function   enthalpy   heat capacity  entropy
                                   cal/mol     cal/K/mol   cal/K/mol   J/K/mol
  80.00  VIB   1.03                   20.726      1.132      0.322
         ROT  0.445E+04              238.471      2.981     19.677
         INT  0.459E+04              259.198      4.113     19.999
         TR   0.657E+26              397.452      4.968     31.745
         TOT                         656.6496     9.0813    51.7445   216.4991

   temp. (K)  partition function   enthalpy   heat capacity  entropy
                                   cal/mol     cal/K/mol   cal/K/mol   J/K/mol
  60.00  VIB   1.01                    5.001      0.466      0.100
         ROT  0.289E+04              178.853      2.981     18.819
         INT  0.291E+04              183.854      3.447     18.919
         TR   0.427E+26              298.089      4.968     30.317
         TOT                         481.9434     8.4148    49.2360   206.0035

   temp. (K)  partition function   enthalpy   heat capacity  entropy
                                   cal/mol     cal/K/mol   cal/K/mol   J/K/mol
  40.00  VIB   1.00                    0.320      0.065      0.009
         ROT  0.157E+04              119.236      2.981     17.611
         INT  0.158E+04              119.556      3.046     17.620
         TR   0.232E+26              198.726      4.968     28.303
         TOT                         318.2818     8.0143    45.9229   192.1413

   temp. (K)  partition function   enthalpy   heat capacity  entropy
                                   cal/mol     cal/K/mol   cal/K/mol   J/K/mol
  20.00  VIB   1.00                    0.000      0.000     -0.003
         ROT   557.                   59.618      2.981     15.544
         INT   557.                   59.618      2.981     15.541
         TR   0.822E+25               99.363      4.968     24.861
         TOT                         158.9809     7.9491    40.4026   169.0446

   temp. (K)  partition function   enthalpy   heat capacity  entropy
                                   cal/mol     cal/K/mol   cal/K/mol   J/K/mol
  10.00  VIB   1.00                    0.000      0.000     -0.006
         ROT   197.                   29.809      2.981     13.478
         INT   197.                   29.809      2.981     13.472
         TR   0.290E+25               49.681      4.968     21.419
         TOT                          79.4904     7.9490    34.8913   145.9853

       T/K    H(0)-H(T)+PV         H(T)/Eh          T*S/Eh         G(T)/Eh
   ------------------------------------------------------------------------
    298.15    0.545903E-02    0.221473E-01    0.320653E-01   -0.991800E-02
    120.00    0.167276E-02    0.183610E-01    0.106531E-01    0.770794E-02
    100.00    0.134770E-02    0.180359E-01    0.858161E-02    0.945433E-02
     80.00    0.104644E-02    0.177347E-01    0.659681E-02    0.111379E-01
     60.00    0.768026E-03    0.174563E-01    0.470776E-02    0.127485E-01
     40.00    0.507214E-03    0.171955E-01    0.292731E-02    0.142682E-01
     20.00    0.253352E-03    0.169416E-01    0.128771E-02    0.156539E-01
     10.00    0.126676E-03    0.168149E-01    0.556029E-03    0.162589E-01 (used)
   ------------------------------------------------------------------------

         :::::::::::::::::::::::::::::::::::::::::::::::::::::
         ::                  THERMODYNAMIC                  ::
         :::::::::::::::::::::::::::::::::::::::::::::::::::::
         :: total free energy         -11.033015286593 Eh   ::
         ::.................................................::
         :: total energy              -11.049274180923 Eh   ::
         :: zero point energy           0.016688246892 Eh   ::
         :: G(RRHO) w/o ZPVE           -0.000429352561 Eh   ::
         :: G(RRHO) contrib.            0.016258894330 Eh   ::
         :::::::::::::::::::::::::::::::::::::::::::::::::::::

optimized geometry written to: xtbopt.xyz


           -------------------------------------------------
          | TOTAL ENERGY              -11.049274180923 Eh   |
          | TOTAL ENTHALPY            -11.032459258016 Eh   |
          | TOTAL FREE ENERGY         -11.033015286593 Eh   |
          | GRADIENT NORM               0.000886508518 Eh/α |
          | HOMO-LUMO GAP               1.099936347700 eV   |
           -------------------------------------------------

------------------------------------------------------------------------
 * finished run on 2020/05/12 at 11:44:13.390     
------------------------------------------------------------------------
 total:
 * wall-time:     0 d,  0 h,  0 min,  0.196 sec
 *  cpu-time:     0 d,  0 h,  0 min,  0.196 sec
 * ratio c/w:     0.997 speedup
 SCF:
 * wall-time:     0 d,  0 h,  0 min,  0.005 sec
 *  cpu-time:     0 d,  0 h,  0 min,  0.005 sec
 * ratio c/w:     1.000 speedup
 ANC optimizer:
 * wall-time:     0 d,  0 h,  0 min,  0.071 sec
 *  cpu-time:     0 d,  0 h,  0 min,  0.071 sec
 * ratio c/w:     0.998 speedup
 numerical hessian:
 * wall-time:     0 d,  0 h,  0 min,  0.106 sec
 *  cpu-time:     0 d,  0 h,  0 min,  0.106 sec
 * ratio c/w:     0.997 speedup

