$hessian                                                                        
        0.4195591209  -0.0110646509  -0.1802254494  -0.1776233134  -0.1208452858
        0.1498072572  -0.0768466780  -0.0016324223   0.0001259800  -0.1665966218
        0.1311007605   0.0349538565   0.0015074923   0.0024415985  -0.0046616444
       -0.0110646509   0.1785114725  -0.0331890458  -0.0738211996  -0.0519415465
        0.0655622120  -0.0130229805   0.0294166188   0.0079773918   0.0802598426
       -0.1401890401  -0.0453502962   0.0176489884  -0.0157975047   0.0049997383
       -0.1802254494  -0.0331890458   0.1496292488   0.1308319043   0.0753128836
       -0.1426845571  -0.0012192101   0.0078826600   0.0261446964   0.0448608904
       -0.0501297314  -0.0257460005   0.0057518649   0.0001232336  -0.0073433876
       -0.1776233134  -0.0738211996   0.1308319043   0.3155457382   0.0076991521
        0.0121129750  -0.2016781690   0.0531329854  -0.1398982412   0.0684391386
        0.0132346203  -0.0033372086  -0.0046833944  -0.0002455582   0.0002905705
       -0.1208452858  -0.0519415465   0.0753128836   0.0076991521   0.2040507327
       -0.1763505124   0.1001740415  -0.0279095537   0.0567020543   0.0132103825
       -0.1229841687   0.0485698979  -0.0002382902  -0.0012154638  -0.0042343234
        0.1498072572   0.0655622120  -0.1426845571   0.0121129750  -0.1763505124
        0.2775101349  -0.1573615494   0.0444475081  -0.1426713075  -0.0053292762
        0.0775276907  -0.0116519746   0.0007705933  -0.0111868985   0.0194977044
       -0.0768466780  -0.0130229805  -0.0012192101  -0.2016781690   0.1001740415
       -0.1573615494   0.4120891421   0.0433268096   0.1830700960  -0.1374724285
       -0.1307437861  -0.0284192392   0.0039081334   0.0002659155   0.0039299027
       -0.0016324223   0.0294166188   0.0078826600   0.0531329854  -0.0279095537
        0.0444475081   0.0433268096   0.1860224648  -0.0082148339  -0.0799054685
       -0.1693111629  -0.0497010975  -0.0149219042  -0.0182183669   0.0055857633
        0.0001259800   0.0079773918   0.0261446964  -0.1398982412   0.0567020543
       -0.1426713075   0.1830700960  -0.0082148339   0.1496147311  -0.0375812933
       -0.0558024503  -0.0257447519  -0.0057165415  -0.0006621620  -0.0073433681
       -0.1665966218   0.0802598426   0.0448608904   0.0684391386   0.0132103825
       -0.0053292762  -0.1374724285  -0.0799054685  -0.0375812933   0.2713101146
       -0.0320281194  -0.0131404240  -0.0356802029   0.0184633628   0.0111901031
        0.1311007605  -0.1401890401  -0.0501297314   0.0132346203  -0.1229841687
        0.0775276907  -0.1307437861  -0.1693111629  -0.0558024503  -0.0320281194
        0.7352584810   0.1911790261   0.0184365248  -0.3027741093  -0.1627745351
        0.0349538565  -0.0453502962  -0.0257460005  -0.0033372086   0.0485698979
       -0.0116519746  -0.0284192392  -0.0497010975  -0.0257447519  -0.0131404240
        0.1911790261   0.1599350200   0.0099430152  -0.1446975302  -0.0967922929
        0.0015074923   0.0176489884   0.0057518649  -0.0046833944  -0.0002382902
        0.0007705933   0.0039081334  -0.0149219042  -0.0057165415  -0.0356802029
        0.0184365248   0.0099430152   0.0349479716  -0.0209253187  -0.0107489319
        0.0024415985  -0.0157975047   0.0001232336  -0.0002455582  -0.0012154638
       -0.0111868985   0.0002659155  -0.0182183669  -0.0006621620   0.0184633628
       -0.3027741093  -0.1446975302  -0.0209253187   0.3380054447   0.1564233570
       -0.0046616444   0.0049997383  -0.0073433876   0.0002905705  -0.0042343234
        0.0194977044   0.0039299027   0.0055857633  -0.0073433681   0.0111901031
       -0.1627745351  -0.0967922929  -0.0107489319   0.1564233570   0.0919813442
