5
 energy: -9.484629915081 gnorm: 0.152795563511 xtb: 6.2.2 (9d81278992624c895f80dd42a50cac0aa55982e2)
C         1.21860300000000   -0.32745200000000   -0.26541000000000
C         0.05518700000000   -0.80293000000000    0.46428700000000
C        -1.16236600000000   -0.49108200000000   -0.26537800000000
N        -0.03069800000000    0.44672300000000   -0.34034500000000
H        -0.08072500000000    1.17474100000000    0.40684600000000
5
 energy: -9.517841396114 gnorm: 0.082775392137 xtb: 6.2.2 (9d81278992624c895f80dd42a50cac0aa55982e2)
C         1.14444490632809   -0.38142593455320   -0.28366288308732
C         0.05843073789029   -0.85016210084376    0.46621722590715
C        -1.08151961764575   -0.53440488213230   -0.28363275583490
N        -0.03459533822111    0.50340719467809   -0.29409450855953
H        -0.08675968835152    1.26258572285116    0.39517292157459
5
 energy: -9.531445738454 gnorm: 0.053452667504 xtb: 6.2.2 (9d81278992624c895f80dd42a50cac0aa55982e2)
C         1.05629228594999   -0.41863527058899   -0.29739960089641
C         0.06287013539292   -0.91477906767035    0.47087872627396
C        -0.98910175366157   -0.55920188505775   -0.29737038765108
N        -0.03785368124815    0.55079778036390   -0.25049820642303
H        -0.09220598643319    1.34181844295318    0.37438946869656
5
 energy: -9.534786002378 gnorm: 0.034546137579 xtb: 6.2.2 (9d81278992624c895f80dd42a50cac0aa55982e2)
C         1.03852648629538   -0.41259727663755   -0.30798842697983
C         0.06538944110726   -0.95141555947984    0.48632815533273
C        -0.97232890699339   -0.55078810930379   -0.30795996579971
N        -0.03768373207389    0.54831254851063   -0.23270270005983
H        -0.09390228833536    1.36648839691055    0.36232293750663
5
 energy: -9.537325472132 gnorm: 0.016686816256 xtb: 6.2.2 (9d81278992624c895f80dd42a50cac0aa55982e2)
C         1.00578384494952   -0.38723806304541   -0.31747094980576
C         0.07079773160894   -1.03008337470816    0.50479867947710
C        -0.94336220295321   -0.52118444322324   -0.31744346282421
N        -0.03676607856847    0.53493937123781   -0.19837881587703
H        -0.09645229503678    1.40356650973899    0.32849454902990
5
 energy: -9.537527637861 gnorm: 0.010303190258 xtb: 6.2.2 (9d81278992624c895f80dd42a50cac0aa55982e2)
C         1.00909777707616   -0.39127996806853   -0.31913199852142
C         0.07017439315008   -1.02102014395076    0.50329099884637
C        -0.94609302702990   -0.52564374836794   -0.31910479072792
N        -0.03686198212130    0.53634007673557   -0.19418175357179
H        -0.09631616107504    1.40160378365166    0.32912754397476
5
 energy: -9.537717744183 gnorm: 0.007506069577 xtb: 6.2.2 (9d81278992624c895f80dd42a50cac0aa55982e2)
C         1.01106512216589   -0.39157074940085   -0.31983645596680
C         0.07022722266597   -1.02181353921741    0.49854498495568
C        -0.94800429025654   -0.52620598733142   -0.31980927616679
N        -0.03667739926489    0.53368444529462   -0.18167421582837
H        -0.09660965531043    1.40590583065507    0.32277496300628
5
 energy: -9.537883124201 gnorm: 0.003870673900 xtb: 6.2.2 (9d81278992624c895f80dd42a50cac0aa55982e2)
C         1.01014117788658   -0.38996518234943   -0.32167447335470
C         0.07087526010955   -1.03124277128547    0.49218238528790
C        -0.94730842214351   -0.52448786687630   -0.32164640649920
N        -0.03625200219798    0.52751227887290   -0.15891561525772
H        -0.09745501365464    1.41818354163830    0.31005410982372
5
 energy: -9.537904893825 gnorm: 0.000861700121 xtb: 6.2.2 (9d81278992624c895f80dd42a50cac0aa55982e2)
C         1.00865471550164   -0.38795807145104   -0.32173579399305
C         0.07126844380615   -1.03697335837263    0.49021746020239
C        -0.94611082715256   -0.52229712346325   -0.32170717407172
N        -0.03607489624349    0.52495377747235   -0.15160980291582
H        -0.09773643591174    1.42227477581456    0.30483531077820
5
 energy: -9.537905572576 gnorm: 0.000315846551 xtb: 6.2.2 (9d81278992624c895f80dd42a50cac0aa55982e2)
C         1.00768167343976   -0.38733578233418   -0.32179037235867
C         0.07138372985360   -1.03863396653934    0.49026782675123
C        -0.94523030528596   -0.52154335573266   -0.32176124477603
N        -0.03605024466321    0.52458205250705   -0.15049015093570
H        -0.09778385334419    1.42293105209914    0.30377394131917
