 Entering Gaussian System
 *********************************************
 Gaussian 98:
 frequency output generated by the xtb code
 *********************************************
                         Standard orientation:
 --------------------------------------------------------------------
  Center     Atomic     Atomic              Coordinates (Angstroms)
  Number     Number      Type              X           Y           Z
 --------------------------------------------------------------------
    1          6             0        1.007679   -0.387342   -0.321793
    2          6             0        0.071380   -1.038633    0.490269
    3          6             0       -0.945234   -0.521539   -0.321757
    4          7             0       -0.036048    0.524582   -0.150491
    5          1             0       -0.097775    1.422932    0.303772
 --------------------------------------------------------------------
     1 basis functions        1 primitive gaussians
     1 alpha electrons        1 beta electrons

 Harmonic frequencies (cm**-1), IR intensities (KM/Mole),
 Raman scattering activities (A**4/amu), Raman depolarization ratios,
 reduced masses (AMU), force constants (mDyne/A) and normal coordinates:
                      1                      2                      3
                        a                      a                      a 
 Frequencies --   536.2444               581.4808               729.8232
 Red. masses --    10.6051                 8.2841                 9.7341
 Frc consts  --     0.0000                 0.0000                 0.0000
 IR Inten    --     0.7277                 0.2301                 0.6343
 Raman Activ --     0.0000                 0.0000                 0.0000
 Depolar     --     0.0000                 0.0000                 0.0000
 Atom AN      X      Y      Z        X      Y      Z        X      Y      Z
   1   6    -0.36  -0.04  -0.36     0.10  -0.21  -0.22    -0.39  -0.11   0.00
   2   6    -0.00   0.02   0.37    -0.04   0.62   0.08     0.02  -0.28   0.19
   3   6     0.36   0.01  -0.36    -0.07  -0.22  -0.22     0.40  -0.05   0.00
   4   7     0.00  -0.05   0.42     0.01  -0.10   0.19    -0.03   0.45  -0.31
   5   1    -0.01   0.21  -0.34     0.02  -0.26   0.53     0.01  -0.16   0.49
                      4                      5                      6
                        a                      a                      a 
 Frequencies --   852.1274               984.0199              1082.7635
 Red. masses --    12.4469                 2.6078                11.3431
 Frc consts  --     0.0000                 0.0000                 0.0000
 IR Inten    --     0.1406                 0.2081                 1.2003
 Raman Activ --     0.0000                 0.0000                 0.0000
 Depolar     --     0.0000                 0.0000                 0.0000
 Atom AN      X      Y      Z        X      Y      Z        X      Y      Z
   1   6     0.16  -0.46   0.10    -0.07   0.08   0.12    -0.04   0.42  -0.10
   2   6     0.40   0.03  -0.00     0.14   0.01  -0.00     0.01  -0.15   0.34
   3   6     0.09   0.48  -0.10    -0.06  -0.09  -0.12    -0.02   0.42  -0.10
   4   7    -0.57  -0.04  -0.00    -0.25  -0.02   0.00     0.04  -0.56  -0.19
   5   1    -0.14  -0.01   0.00     0.93   0.06  -0.00     0.02  -0.28   0.22
                      7                      8                      9
                        a                      a                      a 
 Frequencies --  1318.5933              1432.4335              3408.4766
 Red. masses --    12.0886                12.1572                 1.8790
 Frc consts  --     0.0000                 0.0000                 0.0000
 IR Inten    --     0.5485                 0.1515                 0.2862
 Raman Activ --     0.0000                 0.0000                 0.0000
 Depolar     --     0.0000                 0.0000                 0.0000
 Atom AN      X      Y      Z        X      Y      Z        X      Y      Z
   1   6     0.45   0.05  -0.26     0.45  -0.00  -0.25    -0.01  -0.00   0.00
   2   6    -0.56  -0.04   0.00     0.02  -0.34   0.45    -0.00   0.00  -0.00
   3   6     0.45   0.02   0.26    -0.45  -0.07  -0.25     0.01  -0.00   0.00
   4   7    -0.35  -0.02  -0.00    -0.02   0.36   0.03     0.02  -0.23  -0.11
   5   1     0.12   0.01   0.00    -0.01   0.08   0.06    -0.06   0.87   0.42
