5
 energy: -8.780317935075 gnorm: 0.000407293261 xtb: 6.2.2 (9d81278992624c895f80dd42a50cac0aa55982e2)
N        -0.67785336123218   -0.00873064353673    0.29163594592034
C         0.69489008420747    0.07361002484942    0.32792178772127
N        -0.09588266660275    1.11110475048508   -0.22167777644713
H        -1.31755562536128   -0.61419375175769   -0.21182459816972
H         1.39640156899224   -0.56179038003834   -0.18605435902477
