 Entering Gaussian System
 *********************************************
 Gaussian 98:
 frequency output generated by the xtb code
 *********************************************
                         Standard orientation:
 --------------------------------------------------------------------
  Center     Atomic     Atomic              Coordinates (Angstroms)
  Number     Number      Type              X           Y           Z
 --------------------------------------------------------------------
    1          7             0       -0.677853   -0.008731    0.291636
    2          6             0        0.694890    0.073610    0.327922
    3          7             0       -0.095883    1.111105   -0.221678
    4          1             0       -1.317556   -0.614194   -0.211825
    5          1             0        1.396402   -0.561790   -0.186054
 --------------------------------------------------------------------
     1 basis functions        1 primitive gaussians
     1 alpha electrons        1 beta electrons

 Harmonic frequencies (cm**-1), IR intensities (KM/Mole),
 Raman scattering activities (A**4/amu), Raman depolarization ratios,
 reduced masses (AMU), force constants (mDyne/A) and normal coordinates:
                      1                      2                      3
                        a                      a                      a 
 Frequencies --   809.8166               879.9823               923.6482
 Red. masses --     2.2650                 2.9068                 3.5007
 Frc consts  --     0.0000                 0.0000                 0.0000
 IR Inten    --     0.2639                 0.2121                 0.2321
 Raman Activ --     0.0000                 0.0000                 0.0000
 Depolar     --     0.0000                 0.0000                 0.0000
 Atom AN      X      Y      Z        X      Y      Z        X      Y      Z
   1   7     0.13  -0.11  -0.25    -0.03   0.07  -0.18    -0.16  -0.07   0.26
   2   6    -0.02  -0.06   0.05    -0.04   0.01   0.32    -0.05   0.03   0.06
   3   7    -0.01   0.04   0.02     0.13  -0.05  -0.02     0.17  -0.22  -0.11
   4   1    -0.64   0.22   0.54     0.06  -0.36   0.34    -0.09   0.40  -0.40
   5   1     0.29   0.24   0.12    -0.30   0.24  -0.67     0.24   0.56  -0.32
                      4                      5                      6
                        a                      a                      a 
 Frequencies --   957.9574              1065.2794              1131.9098
 Red. masses --     4.3665                12.3364                12.6359
 Frc consts  --     0.0000                 0.0000                 0.0000
 IR Inten    --     0.2651                 0.2247                 0.1156
 Raman Activ --     0.0000                 0.0000                 0.0000
 Depolar     --     0.0000                 0.0000                 0.0000
 Atom AN      X      Y      Z        X      Y      Z        X      Y      Z
   1   7    -0.06   0.16   0.09    -0.33  -0.40   0.12     0.43  -0.37   0.19
   2   6    -0.24  -0.36  -0.16    -0.21   0.45  -0.28    -0.46  -0.16   0.13
   3   7     0.07   0.19  -0.03     0.55   0.04   0.08     0.04   0.49  -0.27
   4   1     0.32  -0.43   0.14    -0.06  -0.20   0.14     0.00   0.13  -0.09
   5   1     0.48   0.37   0.17    -0.06  -0.03   0.11    -0.19  -0.04  -0.07
                      7                      8                      9
                        a                      a                      a 
 Frequencies --  1544.1125              3034.4242              3278.4004
 Red. masses --    12.8274                 1.8382                 1.8359
 Frc consts  --     0.0000                 0.0000                 0.0000
 IR Inten    --     0.5734                 0.2921                 0.0121
 Raman Activ --     0.0000                 0.0000                 0.0000
 Depolar     --     0.0000                 0.0000                 0.0000
 Atom AN      X      Y      Z        X      Y      Z        X      Y      Z
   1   7     0.47   0.26  -0.10     0.00   0.01  -0.00     0.17   0.15   0.12
   2   6    -0.55   0.20  -0.17    -0.19   0.16   0.12    -0.01   0.01   0.00
   3   7     0.04  -0.48   0.24    -0.00  -0.01   0.01     0.01  -0.00   0.00
   4   1     0.09   0.07   0.03     0.01   0.01   0.01    -0.63  -0.58  -0.46
   5   1    -0.09   0.07   0.08     0.65  -0.56  -0.43     0.01  -0.01  -0.01
