5
 energy: -10.909587878124 gnorm: 0.750493321747 xtb: 6.2.2 (9d81278992624c895f80dd42a50cac0aa55982e2)
N        -0.88211300000000   -0.11860800000000   -0.31077900000000
C        -0.07975900000000    0.94850100000000   -0.02674400000000
C         0.36376600000000   -0.46619800000000   -0.74637600000000
C         0.78174800000000    0.10498200000000    0.27539300000000
C        -0.18364100000000   -0.46867700000000    0.80850600000000
5
 energy: -11.036177545902 gnorm: 0.246397791400 xtb: 6.2.2 (9d81278992624c895f80dd42a50cac0aa55982e2)
N        -0.91268047744073   -0.12270135571232   -0.32153639172646
C        -0.10829561277027    0.98772200329854   -0.03671167647553
C         0.35515946184218   -0.49050302114594   -0.78864415358018
C         0.88260800063808    0.11851749037734    0.31094437560909
C        -0.21679037226926   -0.49303511681761    0.83594784617308
5
 energy: -11.057656208139 gnorm: 0.092161244672 xtb: 6.2.2 (9d81278992624c895f80dd42a50cac0aa55982e2)
N        -0.93031967382300   -0.12505574265548   -0.32774006248588
C        -0.12210685194380    0.99990041173569   -0.04153598250606
C         0.34785493395702   -0.49904945367697   -0.80398958089287
C         0.93666965885060    0.12578473179648    0.32998757388487
C        -0.23209706704082   -0.50157994719972    0.84327805199994
5
 energy: -11.062030917503 gnorm: 0.026168890719 xtb: 6.2.2 (9d81278992624c895f80dd42a50cac0aa55982e2)
N        -0.93951713516481   -0.12627519766391   -0.33097343068800
C        -0.13105041789585    1.00336071205438   -0.04466104515127
C         0.34108134621964   -0.50249004203427   -0.81060301387868
C         0.97101011740584    0.13040539190512    0.34208211697500
C        -0.24152291056482   -0.50500086426132    0.84415537274295
5
 energy: -11.062467019823 gnorm: 0.014104785310 xtb: 6.2.2 (9d81278992624c895f80dd42a50cac0aa55982e2)
N        -0.94125835269293   -0.12649864724482   -0.33158473523214
C        -0.13434819446407    1.00179097341281   -0.04581500450039
C         0.33726968312253   -0.50241212851246   -0.81090547702725
C         0.98302359708866    0.13202489746708    0.34631253355058
C        -0.24468573305420   -0.50490509512262    0.84199268320920
5
 energy: -11.062592118221 gnorm: 0.009984142547 xtb: 6.2.2 (9d81278992624c895f80dd42a50cac0aa55982e2)
N        -0.94134204590203   -0.12650131205078   -0.33161397381104
C        -0.13572221368727    0.99892043492654   -0.04629714745707
C         0.33465800350863   -0.50133139533096   -0.80936741043047
C         0.98816680965170    0.13272117915998    0.34812318342999
C        -0.24575955357103   -0.50380890670478    0.83915534826858
5
 energy: -11.062665825761 gnorm: 0.005686990378 xtb: 6.2.2 (9d81278992624c895f80dd42a50cac0aa55982e2)
N        -0.94128819978489   -0.12648358824540   -0.33159607228355
C        -0.13622762975234    0.99505557936496   -0.04647602752962
C         0.33240054218556   -0.49960727720922   -0.80669175407187
C         0.99096069236056    0.13310423637417    0.34910612762825
C        -0.24584440500889   -0.50206895028452    0.83565772625679
5
 energy: -11.062686723230 gnorm: 0.002957259735 xtb: 6.2.2 (9d81278992624c895f80dd42a50cac0aa55982e2)
N        -0.94169894309951   -0.12653335212376   -0.33174230570705
C        -0.13582127499014    0.99301565296713   -0.04633485572586
C         0.33183875694733   -0.49856337772054   -0.80497638046995
C         0.99089057705276    0.13310028838619    0.34908065341449
C        -0.24520811591044   -0.50101921150902    0.83397288848838
5
 energy: -11.062691919045 gnorm: 0.001422609827 xtb: 6.2.2 (9d81278992624c895f80dd42a50cac0aa55982e2)
N        -0.94238796805749   -0.12662332384066   -0.33198625894470
C        -0.13534468171941    0.99235060506649   -0.04616824601748
C         0.33197724426878   -0.49815581664000   -0.80426172514223
C         0.99040900703473    0.13303962843238    0.34891039145778
C        -0.24465260152660   -0.50061109301821    0.83350583864664
5
 energy: -11.062693057747 gnorm: 0.000475699870 xtb: 6.2.2 (9d81278992624c895f80dd42a50cac0aa55982e2)
N        -0.94318230343413   -0.12672959253259   -0.33226650187383
C        -0.13502465757695    0.99221622101531   -0.04605656038864
C         0.33221296288458   -0.49802991198498   -0.80401666107354
C         0.99031074520289    0.13302977523765    0.34887534214800
C        -0.24431574707640   -0.50048649173539    0.83346438118801
