 Entering Gaussian System
 *********************************************
 Gaussian 98:
 frequency output generated by the xtb code
 *********************************************
                         Standard orientation:
 --------------------------------------------------------------------
  Center     Atomic     Atomic              Coordinates (Angstroms)
  Number     Number      Type              X           Y           Z
 --------------------------------------------------------------------
    1          7             0       -0.943184   -0.126725   -0.332263
    2          6             0       -0.135020    0.992217   -0.046058
    3          6             0        0.332208   -0.498033   -0.804017
    4          6             0        0.990313    0.133025    0.348872
    5          6             0       -0.244315   -0.500484    0.833466
 --------------------------------------------------------------------
     1 basis functions        1 primitive gaussians
     1 alpha electrons        1 beta electrons

 Harmonic frequencies (cm**-1), IR intensities (KM/Mole),
 Raman scattering activities (A**4/amu), Raman depolarization ratios,
 reduced masses (AMU), force constants (mDyne/A) and normal coordinates:
                      1                      2                      3
                        a                      a                      a 
 Frequencies --   404.7944               405.1245               822.0515
 Red. masses --    12.3669                12.3667                12.3807
 Frc consts  --     0.0000                 0.0000                 0.0000
 IR Inten    --     0.8694                 0.8693                 0.1335
 Raman Activ --     0.0000                 0.0000                 0.0000
 Depolar     --     0.0000                 0.0000                 0.0000
 Atom AN      X      Y      Z        X      Y      Z        X      Y      Z
   1   7    -0.14  -0.03   0.40    -0.06   0.42   0.01     0.40   0.05   0.14
   2   6     0.21   0.00  -0.59     0.05   0.01  -0.03    -0.05   0.45  -0.02
   3   6    -0.01   0.30  -0.18    -0.06  -0.45   0.26     0.15  -0.22  -0.36
   4   6    -0.15  -0.03   0.45    -0.07   0.47   0.01    -0.43  -0.06  -0.15
   5   6     0.11  -0.24  -0.10     0.14  -0.49  -0.25    -0.10  -0.22   0.38
                      4                      5                      6
                        a                      a                      a 
 Frequencies --   850.0106               850.1116              1040.0414
 Red. masses --    12.4749                12.4749                12.1541
 Frc consts  --     0.0000                 0.0000                 0.0000
 IR Inten    --     0.1581                 0.1573                 1.0452
 Raman Activ --     0.0000                 0.0000                 0.0000
 Depolar     --     0.0000                 0.0000                 0.0000
 Atom AN      X      Y      Z        X      Y      Z        X      Y      Z
   1   7     0.11  -0.44  -0.15    -0.13  -0.18   0.43     0.03  -0.27   0.01
   2   6     0.54   0.12   0.20     0.23   0.05   0.05    -0.12   0.68  -0.04
   3   6    -0.48  -0.03  -0.14     0.38   0.05   0.09    -0.12  -0.03   0.41
   4   6    -0.09   0.37   0.13     0.11   0.15  -0.36     0.04  -0.32   0.01
   5   6    -0.09   0.02  -0.02    -0.57  -0.06  -0.25     0.16  -0.04  -0.38
                      7                      8                      9
                        a                      a                      a 
 Frequencies --  1040.7650              1279.0170              1395.0299
 Red. masses --    12.1540                12.6511                12.5459
 Frc consts  --     0.0000                 0.0000                 0.0000
 IR Inten    --     1.0423                 0.9384                 0.2265
 Raman Activ --     0.0000                 0.0000                 0.0000
 Depolar     --     0.0000                 0.0000                 0.0000
 Atom AN      X      Y      Z        X      Y      Z        X      Y      Z
   1   7     0.09   0.00  -0.25    -0.53  -0.07  -0.19    -0.48  -0.06  -0.17
   2   6     0.09  -0.01  -0.26     0.35   0.06   0.12    -0.05   0.36  -0.02
   3   6    -0.16   0.42   0.41     0.35   0.04   0.12     0.12  -0.18  -0.29
   4   6     0.11   0.00  -0.30    -0.48  -0.06  -0.17     0.54   0.07   0.19
   5   6    -0.13  -0.42   0.43     0.35   0.04   0.13    -0.09  -0.18   0.30
