 Entering Gaussian System
 *********************************************
 Gaussian 98:
 frequency output generated by the xtb code
 *********************************************
                         Standard orientation:
 --------------------------------------------------------------------
  Center     Atomic     Atomic              Coordinates (Angstroms)
  Number     Number      Type              X           Y           Z
 --------------------------------------------------------------------
    1          6             0        0.717578   -0.289614    0.070407
    2          7             0       -0.711974   -0.487379   -0.068357
    3          6             0       -0.005604    0.776993   -0.002049
 --------------------------------------------------------------------
     1 basis functions        1 primitive gaussians
     1 alpha electrons        1 beta electrons

 Harmonic frequencies (cm**-1), IR intensities (KM/Mole),
 Raman scattering activities (A**4/amu), Raman depolarization ratios,
 reduced masses (AMU), force constants (mDyne/A) and normal coordinates:
                      1                      2                      3
                        a                      a                      a 
 Frequencies --   -53.0654              1167.2142              1837.7196
 Red. masses --    12.5170                13.1983                12.0840
 Frc consts  --     0.0000                 0.0000                 0.0000
 IR Inten    --     0.3895                 0.1817                 0.0881
 Raman Activ --     0.0000                 0.0000                 0.0000
 Depolar     --     0.0000                 0.0000                 0.0000
 Atom AN      X      Y      Z        X      Y      Z        X      Y      Z
   1   6     0.60   0.08   0.06     0.25   0.38   0.02    -0.47   0.51  -0.05
   2   7    -0.28   0.42  -0.03    -0.63  -0.43  -0.06     0.16   0.11   0.02
   3   6    -0.30  -0.53  -0.03     0.44   0.09   0.04     0.30  -0.63   0.03
