$hessian                                                                        
        0.3758662776  -0.3094419069   0.0371841410  -0.2272938531  -0.1561014530
       -0.0218216468  -0.1485724245   0.4655433599  -0.0153624942
       -0.3094419069   0.4847292378  -0.0310579659  -0.0263095511  -0.0180786292
       -0.0025258645   0.3357514580  -0.4666506086   0.0335838304
        0.0371841410  -0.0310579659   0.0036794580  -0.0220728706  -0.0151592437
       -0.0021191352  -0.0151112705   0.0462172096  -0.0015603229
       -0.2272938531  -0.0263095511  -0.0220728706   0.3350810075   0.2296349046
        0.0321708490  -0.1077871544  -0.2033253535  -0.0100979785
       -0.1561014530  -0.0180786292  -0.0151592437   0.2296349046   0.1568170829
        0.0220481294  -0.0735334517  -0.1387384536  -0.0068888857
       -0.0218216468  -0.0025258645  -0.0021191352   0.0321708490   0.0220481294
        0.0030886944  -0.0103492023  -0.0195222649  -0.0009695593
       -0.1485724245   0.3357514580  -0.0151112705  -0.1077871544  -0.0735334517
       -0.0103492023   0.2563595789  -0.2622180064   0.0254604727
        0.4655433599  -0.4666506086   0.0462172096  -0.2033253535  -0.1387384536
       -0.0195222649  -0.2622180064   0.6053890622  -0.0266949447
       -0.0153624942   0.0335838304  -0.0015603229  -0.0100979785  -0.0068888857
       -0.0009695593   0.0254604727  -0.0266949447   0.0025298821
