[Molden Format]
[Title]
[Atoms] AU
O      1     8 -0.22006070718212E-02  0.71594916543682E+00 -0.12418723480349E-05
H      2     1 -0.14594165385404E+01 -0.36246471521766E+00  0.57269517334766E-05
H      3     1  0.14616171456023E+01 -0.35348633994510E+00 -0.44850760872478E-05
[GTO]
           1 0
 s           4   1.0000000000000000     
   69.137961906196551      -0.20478756370077797     
   11.906129132707308      -0.24997023136827334     
  0.95670827744340703       0.40025880240639616     
  0.36462520496073686       0.15952206667693555     
 p           4   1.0000000000000000     
   8.2124193257781641        1.1321556799186829     
   2.1293576997098116        1.0476840782254817     
  0.75066448202360914       0.54956508217158984     
  0.29885246543283073        8.2908486592766617E-002

           2 0
 s           3   1.0000000000000000     
   3.3702276975336001       0.27359110588908298     
  0.61389118221497996       0.26460540653860526     
  0.16614291148415999        8.2465947534082318E-002

           3 0
 s           3   1.0000000000000000     
   3.3702276975336001       0.27359110588908298     
  0.61389118221497996       0.26460540653860526     
  0.16614291148415999        8.2465947534082318E-002

[MO]
Sym=     1a
Ene=  -0.68000574075457221     
Spin= Alpha
Occup=     2.00000000
           1  0.79756508774914403     
           2   2.4874095049791443E-004
           3  -8.0950028539485783E-002
           4   1.4489163552489660E-007
           5  0.18315992631540320     
           6  0.18315986771172069     
Sym=     2a
Ene=  -0.56837718232431067     
Spin= Alpha
Occup=     2.00000000
           1  -9.4203098812983121E-008
           2 -0.69286972808210567     
           3  -2.1296861150119461E-003
           4   2.4227590280968001E-006
           5  0.35526743023680230     
           6 -0.35526744572361324     
Sym=     3a
Ene=  -0.51069691203653678     
Spin= Alpha
Occup=     2.00000000
           1 -0.44222051802128454     
           2   2.4985694198323169E-003
           3 -0.81287855217059912     
           4   1.4063723041742469E-006
           5  0.23726267189377645     
           6  0.23726268244507384     
Sym=     4a
Ene=  -0.44633138307631537     
Spin= Alpha
Occup=     2.00000000
           1   4.6945362899521960E-009
           2  -3.4911752522662260E-006
           3  -1.7423179394965993E-006
           4  -1.0000000000418234     
           5   4.0083693033349695E-010
           6   4.0012325556516860E-010
Sym=     5a
Ene=    8.2005113841493157E-002
Spin= Alpha
Occup=     0.00000000
           1  0.84108248719897460     
           2   2.1696590766277276E-003
           3 -0.70589889149665819     
           4   1.2238662138031939E-006
           5 -0.77130063396082160     
           6 -0.77130053259409259     
Sym=     6a
Ene=   0.25166468180634483     
Spin= Alpha
Occup=     0.00000000
           1  -6.5733611740380226E-008
           2 -0.96992492746792069     
           3  -2.9812136607366368E-003
           4   3.3910710159715976E-006
           5 -0.90247648143766601     
           6  0.90247658100342520     
