      -----------------------------------------------------------      
     |                   =====================                   |     
     |                           x T B                           |     
     |                   =====================                   |     
     |                         S. Grimme                         |     
     |          Mulliken Center for Theoretical Chemistry        |     
     |                    University of Bonn                     |     
      -----------------------------------------------------------      

   * xtb version 6.2.2 (9d81278992624c895f80dd42a50cac0aa55982e2) compiled by '@Darwin' on 04/03/2020

   xtb is free software: you can redistribute it and/or modify it under
   the terms of the GNU Lesser General Public License as published by
   the Free Software Foundation, either version 3 of the License, or
   (at your option) any later version.
   
   xtb is distributed in the hope that it will be useful,
   but WITHOUT ANY WARRANTY; without even the implied warranty of
   MERCHANTABILITY or FITNESS FOR A PARTICULAR PURPOSE.  See the
   GNU Lesser General Public License for more details.
   
   Cite this work as:
   * S. Grimme, C. Bannwarth, P. Shushkov, J. Chem. Theory Comput., 2017,
     13, 1989-2009. DOI: 10.1021/acs.jctc.7b00118
   * C. Bannwarth, S. Ehlert and S. Grimme., J. Chem. Theory Comput., 2019,
     15, 1652-1671. DOI: 10.1021/acs.jctc.8b01176
   * P. Pracht, E. Caldeweyher, S. Ehlert, S. Grimme, ChemRxiv, 2019, preprint.
     DOI: 10.26434/chemrxiv.8326202.v1
   
   for DFT-D4:
   * E. Caldeweyher, C. Bannwarth and S. Grimme, J. Chem. Phys., 2017,
     147, 034112. DOI: 10.1063/1.4993215
   * E. Caldeweyher, S. Ehlert, A. Hansen, H. Neugebauer, S. Spicher,
     C. Bannwarth and S. Grimme, J. Chem. Phys., 2019, 150, 154122.
     DOI: 10.1063/1.5090222
   
   for sTDA-xTB:
   * S. Grimme and C. Bannwarth, J. Chem. Phys., 2016, 145, 054103.
     DOI: 10.1063/1.4959605
   
   in the mass-spec context:
   * V. Asgeirsson, C. Bauer and S. Grimme, Chem. Sci., 2017, 8, 4879.
     DOI: 10.1039/c7sc00601b
   
   for metadynamics refer to:
   * S. Grimme, J. Chem. Theory Comput., 2019, 155, 2847-2862
     DOI: 10.1021/acs.jctc.9b00143
   
   with help from (in alphabetical order)
   C. Bannwarth, F. Bohle, G. Brandenburg, E. Caldeweyher, M. Checinski,
   S. Dohm, S. Ehlert, S. Ehrlich, F. März, H. Neugebauer, J. Pisarek,
   P. Pracht, P. Shushkov, and S. Spicher.
   
 * started run on 2020/05/12 at 11:44:27.465     

           -------------------------------------------------
          |                Calculation Setup                |
           -------------------------------------------------

          program call               : xtb --input H2O1_0_S_0.input H2O1_0_S_0.xyz --ohess --molden --namespace H2O1_0_S_0 output.out
          calculation namespace      : H2O1_0_S_0
          coordinate file            : H2O1_0_S_0.xyz
          number of atoms            :                     3
          number of electrons        :                     8
          charge                     :                     0
          spin                       :                   0.0
          first test random number   :      0.58910127285149

   ID    Z sym.   atoms
    1    8 O      1
    2    1 H      2, 3

           -------------------------------------------------
          |                 G F N 2 - x T B                 |
           -------------------------------------------------

        Reference                      10.1021/acs.jctc.8b01176
      * Hamiltonian:
        H0-scaling (s, p, d)           1.850000    2.230000    2.230000
        zeta-weighting                 0.500000
      * Dispersion:
        s8                             2.700000
        a1                             0.520000
        a2                             5.000000
        s9                             5.000000
      * Repulsion:
        kExp                           1.500000    1.000000
        rExp                           1.000000
      * Coulomb:
        alpha                          2.000000
        third order                    shell-resolved
        anisotropic                    true
        a3                             3.000000
        a5                             4.000000
        cn-shift                       1.200000
        cn-exp                         4.000000
        max-rad                        5.000000


          ...................................................
          :                      SETUP                      :
          :.................................................:
          :  # basis functions                   6          :
          :  # atomic orbitals                   6          :
          :  # shells                            4          :
          :  # electrons                         8          :
          :  max. iterations                   250          :
          :  Hamiltonian                  GFN2-xTB          :
          :  restarted?                      false          :
          :  GBSA solvation                  false          :
          :  PC potential                    false          :
          :  electronic temp.          300.0000000     K    :
          :  accuracy                    1.0000000          :
          :  -> integral cutoff          0.2500000E+02      :
          :  -> integral neglect         0.1000000E-07      :
          :  -> SCF convergence          0.1000000E-05 Eh   :
          :  -> wf. convergence          0.1000000E-03 e    :
          :  Broyden damping             0.4000000          :
          ...................................................

 iter      E             dE          RMSdq      gap      omega  full diag
   1     -5.0925786 -0.509258E+01  0.410E+00   13.70       0.0  T
   2     -5.0943773 -0.179865E-02  0.231E+00   13.36       1.0  T
   3     -5.0946399 -0.262651E-03  0.430E-01   13.12       1.0  T
   4     -5.0947080 -0.680915E-04  0.866E-02   13.26       1.0  T
   5     -5.0947097 -0.165140E-05  0.631E-02   13.22       1.0  T
   6     -5.0947126 -0.291402E-05  0.988E-04   13.24      58.5  T
   7     -5.0947126  0.724515E-09  0.115E-03   13.24      50.4  T
   8     -5.0947126 -0.925698E-09  0.228E-05   13.24    2535.7  T
   9     -5.0947126 -0.365041E-12  0.258E-07   13.24  100000.0  T

   *** convergence criteria satisfied after 9 iterations ***

         #    Occupation            Energy/Eh            Energy/eV
      -------------------------------------------------------------
         1        2.0000           -0.6768022             -18.4167
         2        2.0000           -0.5634213             -15.3315
         3        2.0000           -0.5136473             -13.9771
         4        2.0000           -0.4457936             -12.1307 (HOMO)
         5                          0.0407179               1.1080 (LUMO)
         6                          0.1838348               5.0024
      -------------------------------------------------------------
                  HL-Gap            0.4865115 Eh           13.2387 eV
             Fermi-level           -0.2025378 Eh           -5.5113 eV

 SCC (total)                   0 d,  0 h,  0 min,  0.001 sec
 SCC setup                      ...        0 min,  0.000 sec (  8.504%)
 Dispersion                     ...        0 min,  0.000 sec (  0.850%)
 integral evaluation            ...        0 min,  0.000 sec ( 15.833%)
 zeroth order Hamiltonian       ...        0 min,  0.000 sec (  0.950%)
 iterations                     ...        0 min,  0.001 sec ( 55.203%)
 molecular gradient             ...        0 min,  0.000 sec ( 13.107%)
 printout                       ...        0 min,  0.000 sec (  4.502%)

         :::::::::::::::::::::::::::::::::::::::::::::::::::::
         ::                     SUMMARY                     ::
         :::::::::::::::::::::::::::::::::::::::::::::::::::::
         :: total energy              -5.068979988416 Eh    ::
         :: gradient norm              0.047430101243 Eh/a0 ::
         :: HOMO-LUMO gap             13.238650694156 eV    ::
         ::.................................................::
         :: SCC energy                -5.094712579105 Eh    ::
         :: -> isotropic ES            0.031380232734 Eh    ::
         :: -> anisotropic ES          0.000816037369 Eh    ::
         :: -> anisotropic XC         -0.000454037015 Eh    ::
         :: -> dispersion             -0.000141995503 Eh    ::
         :: repulsion energy           0.025732590651 Eh    ::
         :: add. restraining           0.000000000000 Eh    ::
         :::::::::::::::::::::::::::::::::::::::::::::::::::::

      ----------------------------------------------------------- 
     |                   =====================                   |
     |                        A N C O P T                        |
     |                   =====================                   |
     |               Approximate Normal Coordinate               |
     |                Rational Function Optimizer                |
      ----------------------------------------------------------- 

          ...................................................
          :                      SETUP                      :
          :.................................................:
          :   optimization level            normal          :
          :   max. optcycles                   200          :
          :   ANC micro-cycles                  20          :
          :   degrees of freedom                 3          :
          :.................................................:
          :   RF solver                   davidson          :
          :   write xtbopt.log                true          :
          :   linear?                        false          :
          :   energy convergence         0.5000000E-05 Eh   :
          :   grad. convergence          0.1000000E-02 Eh/α :
          :   maximium RF displ.         1.0000000          :
          :   Hlow (freq-cutoff)         0.1000000E-01      :
          :   Hmax (freq-cutoff)         5.0000000          :
          :   S6 in model hess.         20.0000000          :
          ...................................................

generating ANC from model Hessian ...
Using Lindh-Hessian (1995)
 Shifting diagonal of input Hessian by    0.0000000000000000     
 Lowest  eigenvalues of input Hessian
   -0.000000   -0.000000   -0.000000    0.000000    0.000000    0.000000
    0.240586    1.109555    1.288771
 Highest eigenvalues
    0.000000    0.000000    0.000000    0.240586    1.109555    1.288771


........................................................................
.............................. CYCLE    1 ..............................
........................................................................
   1     -5.0947126 -0.509471E+01  0.927E-09   13.24       0.0  T
   2     -5.0947126  0.532907E-14  0.447E-09   13.24  100000.0  T
   3     -5.0947126  0.000000E+00  0.177E-09   13.24  100000.0  T
     SCC iter.                  ...        0 min,  0.000 sec
     gradient                   ...        0 min,  0.000 sec
 * total energy  :    -5.0689800 Eh     change       -0.1298517E-11 Eh
   gradient norm :     0.0474301 Eh/α   predicted     0.0000000E+00 (-100.00%)
   displ. norm   :     0.0458887 α      lambda       -0.2080528E-02
   maximum displ.:     0.0424993 α      in ANC's #2, #1, #3, ...

........................................................................
.............................. CYCLE    2 ..............................
........................................................................
   1     -5.1019960 -0.510200E+01  0.254E-01   14.17       0.0  T
   2     -5.1020319 -0.359247E-04  0.120E-01   14.13       1.0  T
   3     -5.1020370 -0.510359E-05  0.469E-02   14.11       1.2  T
   4     -5.1020374 -0.367732E-06  0.800E-03   14.11       7.2  T
   5     -5.1020374 -0.819990E-09  0.532E-04   14.11     108.6  T
   6     -5.1020374 -0.129813E-09  0.314E-05   14.11    1840.0  T
     SCC iter.                  ...        0 min,  0.000 sec
     gradient                   ...        0 min,  0.000 sec
 * total energy  :    -5.0703649 Eh     change       -0.1384893E-02 Eh
   gradient norm :     0.0157302 Eh/α   predicted    -0.1042454E-02 ( -24.73%)
   displ. norm   :     0.0223245 α      lambda       -0.3441734E-03
   maximum displ.:     0.0215431 α      in ANC's #2, #1, #3, ...

........................................................................
.............................. CYCLE    3 ..............................
........................................................................
   1     -5.1052330 -0.510523E+01  0.155E-01   14.51       0.0  T
   2     -5.1052425 -0.945885E-05  0.777E-02   14.48       1.0  T
   3     -5.1052438 -0.127062E-05  0.252E-02   14.47       2.3  T
   4     -5.1052438 -0.774234E-07  0.340E-03   14.48      17.0  T
   5     -5.1052438 -0.408293E-09  0.257E-04   14.48     224.5  T
   6     -5.1052438 -0.112133E-10  0.173E-06   14.48   33290.3  T
     SCC iter.                  ...        0 min,  0.000 sec
     gradient                   ...        0 min,  0.000 sec
 * total energy  :    -5.0705334 Eh     change       -0.1685624E-03 Eh
   gradient norm :     0.0021177 Eh/α   predicted    -0.1721719E-03 (   2.14%)
   displ. norm   :     0.0074473 α      lambda       -0.1422978E-04
   maximum displ.:     0.0074446 α      in ANC's #1, #2, #3, ...

........................................................................
.............................. CYCLE    4 ..............................
........................................................................
   1     -5.1049897 -0.510499E+01  0.223E-02   14.42       0.0  T
   2     -5.1049897 -0.797474E-08  0.136E-02   14.42       4.2  T
   3     -5.1049897 -0.443689E-08  0.992E-04   14.42      58.2  T
   4     -5.1049897 -0.111976E-09  0.273E-04   14.42     211.4  T
     SCC iter.                  ...        0 min,  0.000 sec
     gradient                   ...        0 min,  0.000 sec
 * total energy  :    -5.0705430 Eh     change       -0.9594480E-05 Eh
   gradient norm :     0.0006699 Eh/α   predicted    -0.7115830E-05 ( -25.83%)
   displ. norm   :     0.0064956 α      lambda       -0.2820862E-05
   maximum displ.:     0.0064712 α      in ANC's #1, #2, #3, ...

........................................................................
.............................. CYCLE    5 ..............................
........................................................................
   1     -5.1048730 -0.510487E+01  0.225E-02   14.38       0.0  T
   2     -5.1048730 -0.212374E-07  0.133E-02   14.38       4.3  T
   3     -5.1048730 -0.296750E-08  0.143E-03   14.38      40.3  T
   4     -5.1048730 -0.836275E-09  0.238E-04   14.38     243.0  T
   5     -5.1048730 -0.225064E-11  0.103E-05   14.38    5593.2  T
     SCC iter.                  ...        0 min,  0.000 sec
     gradient                   ...        0 min,  0.000 sec
 * total energy  :    -5.0705441 Eh     change       -0.1057007E-05 Eh
   gradient norm :     0.0003358 Eh/α   predicted    -0.1410505E-05 (  33.44%)
   displ. norm   :     0.0021657 α      lambda       -0.4666197E-06
   maximum displ.:     0.0021578 α      in ANC's #1, #2, #3, ...

   *** GEOMETRY OPTIMIZATION CONVERGED AFTER 5 ITERATIONS ***

------------------------------------------------------------------------
 total energy gain   :        -0.0015641 Eh       -0.9815 kcal/mol
 total RMSD          :         0.0372107 a0        0.0197 Å
 total power (kW/mol):        -0.8213123 (step)-1682.8693 (real)
------------------------------------------------------------------------

 ANCopt (total)                0 d,  0 h,  0 min,  0.002 sec
 optimizer setup                ...        0 min,  0.000 sec (  2.699%)
 model hessian                  ...        0 min,  0.000 sec (  1.715%)
 ANC generation                 ...        0 min,  0.000 sec (  1.432%)
 coordinate transformation      ...        0 min,  0.000 sec (  0.409%)
 single point calculation       ...        0 min,  0.002 sec ( 79.258%)
 optimization log               ...        0 min,  0.000 sec (  3.342%)
 hessian update                 ...        0 min,  0.000 sec (  0.399%)
 rational function              ...        0 min,  0.000 sec (  3.644%)

================
 final structure:
================
3
 xtb: 6.2.2 (9d81278992624c895f80dd42a50cac0aa55982e2)
O        -0.00116649494564    0.37886401156316    0.00000000000000
H        -0.77228904075400   -0.19181212854445    0.00000000000000
H         0.77345553569964   -0.18705288301871    0.00000000000000

 Bond Distances (Angstroems)
 ---------------------------
O1-H2=0.9593         O1-H3=0.9593         H2-O1=0.9593         H3-O1=0.9593         
 O  H  Rav=0.9593 sigma=0.0000  Rmin=0.9593  Rmax=0.9593     2

 selected bond angles (degree)
 --------------------
H3-O1-H2=107.35                

 selected dihedral angles (degree)
 ---------------------------------

           -------------------------------------------------
          |                Final Singlepoint                |
           -------------------------------------------------

          ...................................................
          :                      SETUP                      :
          :.................................................:
          :  # basis functions                   6          :
          :  # atomic orbitals                   6          :
          :  # shells                            4          :
          :  # electrons                         8          :
          :  max. iterations                   250          :
          :  Hamiltonian                  GFN2-xTB          :
          :  restarted?                      false          :
          :  GBSA solvation                  false          :
          :  PC potential                    false          :
          :  electronic temp.          300.0000000     K    :
          :  accuracy                    1.0000000          :
          :  -> integral cutoff          0.2500000E+02      :
          :  -> integral neglect         0.1000000E-07      :
          :  -> SCF convergence          0.1000000E-05 Eh   :
          :  -> wf. convergence          0.1000000E-03 e    :
          :  Broyden damping             0.4000000          :
          ...................................................

 iter      E             dE          RMSdq      gap      omega  full diag
   1     -5.1048730 -0.510487E+01  0.376E-06   14.38       0.0  T
   2     -5.1048730 -0.106581E-13  0.216E-06   14.38   26689.8  T
   3     -5.1048730  0.266454E-14  0.692E-07   14.38   83492.4  T

   *** convergence criteria satisfied after 3 iterations ***

         #    Occupation            Energy/Eh            Energy/eV
      -------------------------------------------------------------
         1        2.0000           -0.6800057             -18.5039
         2        2.0000           -0.5683772             -15.4663
         3        2.0000           -0.5106969             -13.8968
         4        2.0000           -0.4463314             -12.1453 (HOMO)
         5                          0.0820051               2.2315 (LUMO)
         6                          0.2516647               6.8481
      -------------------------------------------------------------
                  HL-Gap            0.5283365 Eh           14.3768 eV
             Fermi-level           -0.1821631 Eh           -4.9569 eV

 SCC (total)                   0 d,  0 h,  0 min,  0.000 sec
 SCC setup                      ...        0 min,  0.000 sec (  9.080%)
 Dispersion                     ...        0 min,  0.000 sec (  0.777%)
 integral evaluation            ...        0 min,  0.000 sec ( 33.274%)
 zeroth order Hamiltonian       ...        0 min,  0.000 sec (  1.016%)
 iterations                     ...        0 min,  0.000 sec ( 24.074%)
 molecular gradient             ...        0 min,  0.000 sec ( 22.640%)
 printout                       ...        0 min,  0.000 sec (  6.989%)

         :::::::::::::::::::::::::::::::::::::::::::::::::::::
         ::                     SUMMARY                     ::
         :::::::::::::::::::::::::::::::::::::::::::::::::::::
         :: total energy              -5.070544095032 Eh    ::
         :: gradient norm              0.000335765929 Eh/a0 ::
         :: HOMO-LUMO gap             14.376767782057 eV    ::
         ::.................................................::
         :: SCC energy                -5.104873028833 Eh    ::
         :: -> isotropic ES            0.031463361414 Eh    ::
         :: -> anisotropic ES          0.000387401520 Eh    ::
         :: -> anisotropic XC         -0.000882991933 Eh    ::
         :: -> dispersion             -0.000141078639 Eh    ::
         :: repulsion energy           0.034328933774 Eh    ::
         :: add. restraining           0.000000000000 Eh    ::
         :::::::::::::::::::::::::::::::::::::::::::::::::::::

           ------------------------------------------------- 
          |                Numerical Hessian                |
           ------------------------------------------------- 
step length          :   0.00500
SCC accuracy         :   0.30000
Hessian scale factor :   1.00000
frozen atoms in %    :   0.00000    0
RMS gradient         :   0.00034
estimated CPU  time      0.00 min
estimated wall time      0.00 min

writing file <hessian>.

 projected vibrational frequencies (cm-1)
eigval :       -0.00    -0.00    -0.00     0.00     0.00     0.00
eigval :     1538.86  3641.56  3650.53
           -------------------------------------------------
          |                Property Printout                |
           -------------------------------------------------

    * Orbital Energies and Occupations

         #    Occupation            Energy/Eh            Energy/eV
      -------------------------------------------------------------
         1        2.0000           -0.6800057             -18.5039
         2        2.0000           -0.5683772             -15.4663
         3        2.0000           -0.5106969             -13.8968
         4        2.0000           -0.4463314             -12.1453 (HOMO)
         5                          0.0820051               2.2315 (LUMO)
         6                          0.2516647               6.8481
      -------------------------------------------------------------
                  HL-Gap            0.5283365 Eh           14.3768 eV
             Fermi-level           -0.1821631 Eh           -4.9569 eV

     #   Z        covCN         q      C6AA      α(0)
     1   8 O      1.611    -0.565    24.359     6.661
     2   1 H      0.805     0.282     0.776     1.384
     3   1 H      0.805     0.282     0.776     1.384

 Mol. C6AA /au·bohr⁶  :         44.535657
 Mol. C8AA /au·bohr⁸  :        795.750040
 Mol. α(0) /au        :          9.429140


Wiberg/Mayer (AO) data.
largest (>0.10) Wiberg bond orders for each atom
          total WBO             WBO to atom ...
     1  O   1.840        H    2 0.920    H    3 0.920
     2  H   0.920        O    1 0.920
     3  H   0.920        O    1 0.920

MOs/occ written to file <molden.input>


molecular dipole:
                 x           y           z       tot (Debye)
 q only:        0.002      -0.607       0.000
   full:        0.003      -0.871       0.000       2.215
molecular quadrupole (traceless):
                xx          xy          yy          xz          yz          zz
 q only:        1.313       0.007      -0.819      -0.000       0.000      -0.494
  q+dip:        1.751       0.009      -1.178      -0.000       0.000      -0.574
   full:        1.955       0.009      -1.122      -0.000       0.000      -0.832

           -------------------------------------------------
          |                Geometry Summary                 |
           -------------------------------------------------

      molecular mass/u    :       18.0152864
   center of mass at/Å    :       -0.0009691       0.3152726      -0.0000005
  moments of inertia/u·Å² :        0.5782049E+00   0.1204161E+01   0.1782366E+01
rotational constants/cm⁻¹ :        0.2915512E+02   0.1399948E+02   0.9458008E+01

 * 2 selected distances

     #   Z        #   Z                                     value/Å
     1   8 O      2   1 H                                 0.9593233 (max)
     1   8 O      3   1 H                                 0.9593233 (min)

 * 1 distinct bonds (by element types)

   Z      Z             #   av. dist./Å        max./Å        min./Å
Molecule has the following symmetry elements: (C2) 2*(sigma) 
It seems to be the C2v point group
   1 H    8 O           2     0.9593233     0.9593233     0.9593233

           -------------------------------------------------
          |               Frequency Printout                |
           -------------------------------------------------
 projected vibrational frequencies (cm-1)
eigval :       -0.00    -0.00    -0.00     0.00     0.00     0.00
eigval :     1538.86  3641.56  3650.53
 reduced masses (amu)
   1:  5.81   2: 12.28   3: 16.00   4: 10.83   5:  2.28   6:  1.01   7:  2.15   8:  1.55
   9:  2.14
 IR intensities (amu)
   1:  0.41   2:  0.39   3:  0.81   4:  0.36   5:  0.27   6:  0.41   7:  0.47   8:  0.15
   9:  0.22
 Raman intensities (amu)
   1:  0.00   2:  0.00   3:  0.00   4:  0.00   5:  0.00   6:  0.00   7:  0.00   8:  0.00
   9:  0.00
 output can be read by thermo (or use thermo option).
 writing <g98.out> molden fake output.
 recommended (thermochemical) frequency scaling factor: 1.0
           -------------------------------------------------
          |             Thermodynamic Functions             |
           -------------------------------------------------

c2v symmetry found (for desy threshold:  0.10E+00) used in thermo

          ...................................................
          :                      SETUP                      :
          :.................................................:
          :  # frequencies                           3      :
          :  # imaginary freq.                       0      :
          :  linear?                             false      :
          :  only rotor calc.                    false      :
          :  symmetry                              c2v      :
          :  rotational number                       2      :
          :  scaling factor                  1.0000000      :
          :  rotor cutoff                   50.0000000 cm⁻¹ :
          :  imag. cutoff                  -20.0000000 cm⁻¹ :
          :.................................................:

    mode    ω/cm⁻¹     T·S(HO)/kcal·mol⁻¹    T·S(FR)/kcal·mol⁻¹   T·S(vib)
   ------------------------------------------------------------------------
   ------------------------------------------------------------------------

   temp. (K)  partition function   enthalpy   heat capacity  entropy
                                   cal/mol     cal/K/mol   cal/K/mol   J/K/mol
 298.15  VIB   1.00                    2.622      0.065      0.010
         ROT   42.5                  888.752      2.981     10.434
         INT   42.6                  891.375      3.046     10.444
         TR   0.740E+26             1481.254      4.968     34.593
         TOT                        2372.6286     8.0144    45.0378   188.4382

   temp. (K)  partition function   enthalpy   heat capacity  entropy
                                   cal/mol     cal/K/mol   cal/K/mol   J/K/mol
 120.00  VIB   1.00                    0.000      0.000     -0.000
         ROT   10.9                  357.707      2.981      7.722
         INT   10.9                  357.707      2.981      7.722
         TR   0.189E+26              596.178      4.968     30.074
         TOT                         953.8848     7.9490    37.7956   158.1367

   temp. (K)  partition function   enthalpy   heat capacity  entropy
                                   cal/mol     cal/K/mol   cal/K/mol   J/K/mol
 100.00  VIB   1.00                    0.000      0.000     -0.000
         ROT   8.26                  298.089      2.981      7.178
         INT   8.26                  298.089      2.981      7.178
         TR   0.144E+26              496.815      4.968     29.169
         TOT                         794.9040     7.9490    36.3467   152.0747

   temp. (K)  partition function   enthalpy   heat capacity  entropy
                                   cal/mol     cal/K/mol   cal/K/mol   J/K/mol
  80.00  VIB   1.00                    0.000      0.000     -0.000
         ROT   5.91                  238.471      2.981      6.513
         INT   5.91                  238.471      2.981      6.513
         TR   0.103E+26              397.452      4.968     28.061
         TOT                         635.9232     7.9490    34.5735   144.6555

   temp. (K)  partition function   enthalpy   heat capacity  entropy
                                   cal/mol     cal/K/mol   cal/K/mol   J/K/mol
  60.00  VIB   1.00                    0.000      0.000     -0.000
         ROT   3.84                  178.853      2.981      5.655
         INT   3.84                  178.853      2.981      5.655
         TR   0.668E+25              298.089      4.968     26.632
         TOT                         476.9424     7.9490    32.2874   135.0905

   temp. (K)  partition function   enthalpy   heat capacity  entropy
                                   cal/mol     cal/K/mol   cal/K/mol   J/K/mol
  40.00  VIB   1.00                    0.000      0.000     -0.000
         ROT   2.09                  119.236      2.981      4.447
         INT   2.09                  119.236      2.981      4.447
         TR   0.364E+25              198.726      4.968     24.619
         TOT                         317.9616     7.9490    29.0653   121.6093

   temp. (K)  partition function   enthalpy   heat capacity  entropy
                                   cal/mol     cal/K/mol   cal/K/mol   J/K/mol
  20.00  VIB   1.00                    0.000      0.000     -0.000
         ROT  0.739                   59.618      2.981      2.380
         INT  0.739                   59.618      2.981      2.380
         TR   0.129E+25               99.363      4.968     21.177
         TOT                         158.9808     7.9490    23.5571    98.5631

   temp. (K)  partition function   enthalpy   heat capacity  entropy
                                   cal/mol     cal/K/mol   cal/K/mol   J/K/mol
  10.00  VIB   1.00                    0.000      0.000     -0.000
         ROT  0.261                   29.809      2.981      0.314
         INT  0.261                   29.809      2.981      0.314
         TR   0.454E+24               49.681      4.968     17.735
         TOT                          79.4904     7.9490    18.0490    75.5169

       T/K    H(0)-H(T)+PV         H(T)/Eh          T*S/Eh         G(T)/Eh
   ------------------------------------------------------------------------
    298.15    0.378102E-02    0.238994E-01    0.213989E-01    0.250050E-02
    120.00    0.152011E-02    0.216385E-01    0.722773E-02    0.144108E-01
    100.00    0.126676E-02    0.213851E-01    0.579222E-02    0.155929E-01
     80.00    0.101341E-02    0.211318E-01    0.440771E-02    0.167241E-01
     60.00    0.760056E-03    0.208784E-01    0.308719E-02    0.177912E-01
     40.00    0.506704E-03    0.206251E-01    0.185274E-02    0.187723E-01
     20.00    0.253352E-03    0.203717E-01    0.750814E-03    0.196209E-01
     10.00    0.126676E-03    0.202451E-01    0.287629E-03    0.199574E-01 (used)
   ------------------------------------------------------------------------

         :::::::::::::::::::::::::::::::::::::::::::::::::::::
         ::                  THERMODYNAMIC                  ::
         :::::::::::::::::::::::::::::::::::::::::::::::::::::
         :: total free energy          -5.050586662614 Eh   ::
         ::.................................................::
         :: total energy               -5.070544095033 Eh   ::
         :: zero point energy           0.020118385107 Eh   ::
         :: G(RRHO) w/o ZPVE           -0.000160952688 Eh   ::
         :: G(RRHO) contrib.            0.019957432420 Eh   ::
         :::::::::::::::::::::::::::::::::::::::::::::::::::::

optimized geometry written to: xtbopt.xyz


           -------------------------------------------------
          | TOTAL ENERGY               -5.070544095033 Eh   |
          | TOTAL ENTHALPY             -5.050299033910 Eh   |
          | TOTAL FREE ENERGY          -5.050586662614 Eh   |
          | GRADIENT NORM               0.000335765071 Eh/α |
          | HOMO-LUMO GAP              14.376767853599 eV   |
           -------------------------------------------------

------------------------------------------------------------------------
 * finished run on 2020/05/12 at 11:44:27.493     
------------------------------------------------------------------------
 total:
 * wall-time:     0 d,  0 h,  0 min,  0.027 sec
 *  cpu-time:     0 d,  0 h,  0 min,  0.027 sec
 * ratio c/w:     0.999 speedup
 SCF:
 * wall-time:     0 d,  0 h,  0 min,  0.001 sec
 *  cpu-time:     0 d,  0 h,  0 min,  0.001 sec
 * ratio c/w:     0.999 speedup
 ANC optimizer:
 * wall-time:     0 d,  0 h,  0 min,  0.004 sec
 *  cpu-time:     0 d,  0 h,  0 min,  0.004 sec
 * ratio c/w:     1.000 speedup
 numerical hessian:
 * wall-time:     0 d,  0 h,  0 min,  0.008 sec
 *  cpu-time:     0 d,  0 h,  0 min,  0.007 sec
 * ratio c/w:     0.999 speedup

