$hessian                                                                        
        0.6099824526   0.0006533046  -0.0000021304  -0.3037400243  -0.2245849840
        0.0000014522  -0.3062424283   0.2239316794   0.0000006782
        0.0006533046   0.3972941603  -0.0000006957  -0.1831168738  -0.1998980728
        0.0000009881   0.1824635691  -0.1973960875  -0.0000002924
       -0.0000021304  -0.0000006957   0.0000000000   0.0000013799   0.0000011328
       -0.0000000000   0.0000007505  -0.0000004372  -0.0000000000
       -0.3037400243  -0.1831168738   0.0000013799   0.3374831093   0.2040065988
       -0.0000015341  -0.0337430850  -0.0208897251   0.0000001542
       -0.2245849840  -0.1998980728   0.0000011328   0.2040065988   0.1830260138
       -0.0000010316   0.0205783852   0.0168720590  -0.0000001013
        0.0000014522   0.0000009881  -0.0000000000  -0.0000015341  -0.0000010316
        0.0000000000   0.0000000819   0.0000000435  -0.0000000000
       -0.3062424283   0.1824635691   0.0000007505  -0.0337430850   0.0205783852
        0.0000000819   0.3399855133  -0.2030419543  -0.0000008324
        0.2239316794  -0.1973960875  -0.0000004372  -0.0208897251   0.0168720590
        0.0000000435  -0.2030419543   0.1805240285   0.0000003937
        0.0000006782  -0.0000002924  -0.0000000000   0.0000001542  -0.0000001013
       -0.0000000000  -0.0000008324   0.0000003937   0.0000000000
