3
 energy: -5.068979988417 gnorm: 0.047430102947 xtb: 6.2.2 (9d81278992624c895f80dd42a50cac0aa55982e2)
O        -0.00124400000000    0.40411900000000    0.00000000000000
H        -0.78241100000000   -0.20447100000000    0.00000000000000
H         0.78365500000000   -0.19964900000000    0.00000000000000
3
 energy: -5.070364881130 gnorm: 0.015730178229 xtb: 6.2.2 (9d81278992624c895f80dd42a50cac0aa55982e2)
O        -0.00120434442777    0.39118100360681    0.00000000000000
H        -0.76941960967558   -0.19796187321375    0.00000000000000
H         0.77062395410335   -0.19322013039305    0.00000000000000
3
 energy: -5.070533443578 gnorm: 0.002117734101 xtb: 6.2.2 (9d81278992624c895f80dd42a50cac0aa55982e2)
O        -0.00117538108300    0.38174267611576    0.00000000000000
H        -0.76771112665794   -0.19323736928240    0.00000000000000
H         0.76888650774093   -0.18850630683336    0.00000000000000
3
 energy: -5.070543038058 gnorm: 0.000669895325 xtb: 6.2.2 (9d81278992624c895f80dd42a50cac0aa55982e2)
O        -0.00117109225525    0.38035435552879    0.00000000000000
H        -0.77022720533345   -0.19255095539431    0.00000000000000
H         0.77139829758870   -0.18780440013448    0.00000000000000
3
 energy: -5.070544095065 gnorm: 0.000335751066 xtb: 6.2.2 (9d81278992624c895f80dd42a50cac0aa55982e2)
O        -0.00116649494564    0.37886401156316    0.00000000000000
H        -0.77228904075400   -0.19181212854445    0.00000000000000
H         0.77345553569964   -0.18705288301871    0.00000000000000
