 Entering Gaussian System
 *********************************************
 Gaussian 98:
 frequency output generated by the xtb code
 *********************************************
                         Standard orientation:
 --------------------------------------------------------------------
  Center     Atomic     Atomic              Coordinates (Angstroms)
  Number     Number      Type              X           Y           Z
 --------------------------------------------------------------------
    1          8             0       -0.001165    0.378864   -0.000001
    2          1             0       -0.772290   -0.191808    0.000003
    3          1             0        0.773455   -0.187057   -0.000002
 --------------------------------------------------------------------
     1 basis functions        1 primitive gaussians
     1 alpha electrons        1 beta electrons

 Harmonic frequencies (cm**-1), IR intensities (KM/Mole),
 Raman scattering activities (A**4/amu), Raman depolarization ratios,
 reduced masses (AMU), force constants (mDyne/A) and normal coordinates:
                      1                      2                      3
                        a                      a                      a 
 Frequencies --  1538.8625              3641.5573              3650.5305
 Red. masses --     2.1471                 1.5463                 2.1413
 Frc consts  --     0.0000                 0.0000                 0.0000
 IR Inten    --     0.4688                 0.1500                 0.2159
 Raman Activ --     0.0000                 0.0000                 0.0000
 Depolar     --     0.0000                 0.0000                 0.0000
 Atom AN      X      Y      Z        X      Y      Z        X      Y      Z
   1   8    -0.00   0.28  -0.00     0.00  -0.19   0.00     0.27   0.00  -0.00
   2   1     0.40  -0.55  -0.00     0.58   0.38  -0.00    -0.55  -0.40   0.00
   3   1    -0.40  -0.55   0.00    -0.58   0.38   0.00    -0.55   0.40   0.00
