3
 energy: -5.070544095032 gnorm: 0.000335765929 xtb: 6.2.2 (9d81278992624c895f80dd42a50cac0aa55982e2)
O        -0.00116451122060    0.37886401766514   -0.00000065717061
H        -0.77229004506349   -0.19180808484556    0.00000303057263
H         0.77345455627886   -0.18705693281958   -0.00000237340027
