3
 energy: -6.371765129048 gnorm: 0.087027967879 xtb: 6.2.2 (9d81278992624c895f80dd42a50cac0aa55982e2)
O         1.09256700000000   -0.18865400000000    0.00000000000000
C        -0.13669500000000    0.46839900000000    0.00000000000000
H        -0.95587200000000   -0.27974500000000    0.00000000000000
3
 energy: -6.377159437373 gnorm: 0.038253041366 xtb: 6.2.2 (9d81278992624c895f80dd42a50cac0aa55982e2)
O         1.04374713335632   -0.18588069215981    0.00000000000000
C        -0.11997186991856    0.47130839201218    0.00000000000000
H        -0.92377526343776   -0.28542769985237    0.00000000000000
3
 energy: -6.378118840465 gnorm: 0.017579508801 xtb: 6.2.2 (9d81278992624c895f80dd42a50cac0aa55982e2)
O         1.00368818038507   -0.18618367877756    0.00000000000000
C        -0.10359161930030    0.48257143496592    0.00000000000000
H        -0.90009656108477   -0.29638775618836    0.00000000000000
3
 energy: -6.378269525950 gnorm: 0.003182209519 xtb: 6.2.2 (9d81278992624c895f80dd42a50cac0aa55982e2)
O         1.01091305557542   -0.18818140591334    0.00000000000000
C        -0.10636000278969    0.48584202701742    0.00000000000000
H        -0.90455305278573   -0.29766062110408    0.00000000000000
3
 energy: -6.378279496940 gnorm: 0.001241303837 xtb: 6.2.2 (9d81278992624c895f80dd42a50cac0aa55982e2)
O         1.01004157158118   -0.18856869764102    0.00000000000000
C        -0.10525124279324    0.48772620011995    0.00000000000000
H        -0.90479032878794   -0.29915750247894    0.00000000000000
3
 energy: -6.378280846753 gnorm: 0.000513351992 xtb: 6.2.2 (9d81278992624c895f80dd42a50cac0aa55982e2)
O         1.00980231815573   -0.18852096862918    0.00000000000000
C        -0.10405798310297    0.48867003310680    0.00000000000000
H        -0.90574433505277   -0.30014906447762    0.00000000000000
