[Molden Format]
[Title]
[Atoms] AU
O      1     8  0.19082477789076E+01 -0.35626295797155E+00 -0.60392691251510E-05
C      2     6 -0.19663623571726E+00  0.92345347180202E+00 -0.92532173382349E-06
H      3     1 -0.17116115431903E+01 -0.56719051383047E+00  0.69645908589744E-05
[GTO]
           1 0
 s           4   1.0000000000000000     
   69.137961906196551      -0.20478756370077797     
   11.906129132707308      -0.24997023136827334     
  0.95670827744340703       0.40025880240639616     
  0.36462520496073686       0.15952206667693555     
 p           4   1.0000000000000000     
   8.2124193257781641        1.1321556799186829     
   2.1293576997098116        1.0476840782254817     
  0.75066448202360914       0.54956508217158984     
  0.29885246543283073        8.2908486592766617E-002

           2 0
 s           4   1.0000000000000000     
   51.049363095579913      -0.16312063210127389     
   8.7911227406887544      -0.19911024581000730     
  0.70640422258929825       0.31882047753655751     
  0.26922813413411617       0.12706504184240380     
 p           4   1.0000000000000000     
   5.8263656140800002       0.73716451545209605     
   1.5106896018720002       0.68216371614850257     
  0.53256483288000001       0.35783053929253711     
  0.21202323690600003        5.3983030275847881E-002

           3 0
 s           3   1.0000000000000000     
   3.3702276975336001       0.27359110588908298     
  0.61389118221497996       0.26460540653860526     
  0.16614291148415999        8.2465947534082318E-002

[MO]
Sym=     1a
Ene=  -0.72740048381346323     
Spin= Alpha
Occup=     2.00000000
           1  0.73555416211953950     
           2 -0.18539094161529207     
           3   7.5734749307267327E-002
           4   5.0694260246075906E-007
           5  0.28691860563531107     
           6  0.17671751048146403     
           7 -0.12065576326692734     
           8  -4.0814680192263472E-007
           9   4.6437993756355697E-002
Sym=     2a
Ene=  -0.61950166816986441     
Spin= Alpha
Occup=     2.00000000
           1 -0.53764133241667822     
           2 -0.47714809657382123     
           3  0.21466761212517269     
           4   1.3065442968888792E-006
           5  0.45136368245120589     
           6  -7.7786234138028640E-002
           7  -6.5958481036601777E-002
           8   3.9101813136142013E-007
           9  0.25831396652600697     
Sym=     3a
Ene=  -0.56471945477994201     
Spin= Alpha
Occup=     2.00000000
           1  0.14920946608430768     
           2  -2.0480187356550602E-002
           3 -0.67395670947167374     
           4   1.2621425289557444E-006
           5  -4.7788661810115325E-002
           6 -0.35957347713468751     
           7 -0.25751708432453940     
           8   1.7120578557973958E-006
           9  0.31181831912769342     
Sym=     4a
Ene=  -0.54109442844809985     
Spin= Alpha
Occup=     2.00000000
           1  -8.7915902803190326E-009
           2  -2.9025269349633816E-006
           3  -1.4563565334020888E-006
           4 -0.83416608820516580     
           5   1.1646682826875928E-008
           6  -1.4914012622795877E-006
           7  -7.3579983414344190E-007
           8 -0.42239966026869114     
           9   1.8399348542629813E-008
Sym=     5a
Ene=  -0.49852211821426773     
Spin= Alpha
Occup=     1.00000000
           1 -0.15180418792905073     
           2 -0.63027547415735530     
           3 -0.26737000360739988     
           4   2.6478722268233981E-006
           5 -0.36361122978238908     
           6  0.32061131667388071     
           7 -0.30874736054244584     
           8  -5.9357870319401814E-007
           9 -0.31616517338568834     
Sym=     6a
Ene=  -0.37268015206313532     
Spin= Alpha
Occup=     1.00000000
           1  -3.7953107800066589E-002
           2  0.21706817459156821     
           3  0.55386973564180741     
           4  -1.7240209878186141E-006
           5 -0.48571142496929764     
           6  -3.2814148020640227E-003
           7 -0.66273402276106608     
           8   1.1725799159073069E-006
           9  0.33610089099288359     
Sym=     7a
Ene=  -0.30471266564668709     
Spin= Alpha
Occup=     1.00000000
           1  -2.7240387250229361E-009
           2  -2.0306731837337644E-006
           3  -1.0149140743799663E-006
           4 -0.58056353539672856     
           5   1.7603314608232469E-009
           6   3.2256152057810352E-006
           7   1.6142267064522176E-006
           8  0.92437308936850571     
           9  -3.0196687220156430E-009
Sym=     8a
Ene=   0.10269349747018310     
Spin= Alpha
Occup=     0.00000000
           1 -0.17189437950121042     
           2   4.5070993518978031E-002
           3 -0.23311680097757301     
           4   2.4881922400480783E-007
           5 -0.45887107586698983     
           6  0.84809550564704939     
           7  0.51272176433372030     
           8  -3.8537889902603478E-006
           9   1.0516777379435025     
Sym=     9a
Ene=   0.27136947874215428     
Spin= Alpha
Occup=     0.00000000
           1 -0.62055355825912895     
           2  0.72631413478752560     
           3 -0.41214104350896341     
           4  -1.8164442897552797E-006
           5  0.77776392609228107     
           6  0.67147857096580998     
           7 -0.61537842334501625     
           8  -1.2695971984550575E-006
           9 -0.24516477652484431     
