 Entering Gaussian System
 *********************************************
 Gaussian 98:
 frequency output generated by the xtb code
 *********************************************
                         Standard orientation:
 --------------------------------------------------------------------
  Center     Atomic     Atomic              Coordinates (Angstroms)
  Number     Number      Type              X           Y           Z
 --------------------------------------------------------------------
    1          8             0        1.009801   -0.188526   -0.000003
    2          6             0       -0.104055    0.488671   -0.000000
    3          1             0       -0.905746   -0.300144    0.000004
 --------------------------------------------------------------------
     1 basis functions        1 primitive gaussians
     1 alpha electrons        1 beta electrons

 Harmonic frequencies (cm**-1), IR intensities (KM/Mole),
 Raman scattering activities (A**4/amu), Raman depolarization ratios,
 reduced masses (AMU), force constants (mDyne/A) and normal coordinates:
                      1                      2                      3
                        a                      a                      a 
 Frequencies --   972.2915              1433.0429              2498.4749
 Red. masses --     3.3496                13.1981                 1.8509
 Frc consts  --     0.0000                 0.0000                 0.0000
 IR Inten    --     0.1203                 0.3540                 0.2346
 Raman Activ --     0.0000                 0.0000                 0.0000
 Depolar     --     0.0000                 0.0000                 0.0000
 Atom AN      X      Y      Z        X      Y      Z        X      Y      Z
   1   8     0.31   0.04  -0.00    -0.51   0.35   0.00     0.08  -0.04  -0.00
   2   6    -0.17  -0.23   0.00     0.64  -0.42  -0.00     0.12   0.23  -0.00
   3   1    -0.65   0.63   0.00    -0.16   0.07   0.00    -0.71  -0.65   0.00
