      -----------------------------------------------------------      
     |                   =====================                   |     
     |                           x T B                           |     
     |                   =====================                   |     
     |                         S. Grimme                         |     
     |          Mulliken Center for Theoretical Chemistry        |     
     |                    University of Bonn                     |     
      -----------------------------------------------------------      

   * xtb version 6.2.2 (9d81278992624c895f80dd42a50cac0aa55982e2) compiled by '@Darwin' on 04/03/2020

   xtb is free software: you can redistribute it and/or modify it under
   the terms of the GNU Lesser General Public License as published by
   the Free Software Foundation, either version 3 of the License, or
   (at your option) any later version.
   
   xtb is distributed in the hope that it will be useful,
   but WITHOUT ANY WARRANTY; without even the implied warranty of
   MERCHANTABILITY or FITNESS FOR A PARTICULAR PURPOSE.  See the
   GNU Lesser General Public License for more details.
   
   Cite this work as:
   * S. Grimme, C. Bannwarth, P. Shushkov, J. Chem. Theory Comput., 2017,
     13, 1989-2009. DOI: 10.1021/acs.jctc.7b00118
   * C. Bannwarth, S. Ehlert and S. Grimme., J. Chem. Theory Comput., 2019,
     15, 1652-1671. DOI: 10.1021/acs.jctc.8b01176
   * P. Pracht, E. Caldeweyher, S. Ehlert, S. Grimme, ChemRxiv, 2019, preprint.
     DOI: 10.26434/chemrxiv.8326202.v1
   
   for DFT-D4:
   * E. Caldeweyher, C. Bannwarth and S. Grimme, J. Chem. Phys., 2017,
     147, 034112. DOI: 10.1063/1.4993215
   * E. Caldeweyher, S. Ehlert, A. Hansen, H. Neugebauer, S. Spicher,
     C. Bannwarth and S. Grimme, J. Chem. Phys., 2019, 150, 154122.
     DOI: 10.1063/1.5090222
   
   for sTDA-xTB:
   * S. Grimme and C. Bannwarth, J. Chem. Phys., 2016, 145, 054103.
     DOI: 10.1063/1.4959605
   
   in the mass-spec context:
   * V. Asgeirsson, C. Bauer and S. Grimme, Chem. Sci., 2017, 8, 4879.
     DOI: 10.1039/c7sc00601b
   
   for metadynamics refer to:
   * S. Grimme, J. Chem. Theory Comput., 2019, 155, 2847-2862
     DOI: 10.1021/acs.jctc.9b00143
   
   with help from (in alphabetical order)
   C. Bannwarth, F. Bohle, G. Brandenburg, E. Caldeweyher, M. Checinski,
   S. Dohm, S. Ehlert, S. Ehrlich, F. März, H. Neugebauer, J. Pisarek,
   P. Pracht, P. Shushkov, and S. Spicher.
   
 * started run on 2020/05/12 at 11:44:24.757     

           -------------------------------------------------
          |                Calculation Setup                |
           -------------------------------------------------

          program call               : xtb --input H1C1O1_1_S_3.input H1C1O1_1_S_3.xyz --ohess --molden --namespace H1C1O1_1_S_3 output.out
          calculation namespace      : H1C1O1_1_S_3
          coordinate file            : H1C1O1_1_S_3.xyz
          number of atoms            :                     3
          number of electrons        :                    11
          charge                     :                     0
          spin                       :                   1.5
          first test random number   :      0.51792222259449

   ID    Z sym.   atoms
    1    8 O      1
    2    6 C      2
    3    1 H      3

           -------------------------------------------------
          |                 G F N 2 - x T B                 |
           -------------------------------------------------

        Reference                      10.1021/acs.jctc.8b01176
      * Hamiltonian:
        H0-scaling (s, p, d)           1.850000    2.230000    2.230000
        zeta-weighting                 0.500000
      * Dispersion:
        s8                             2.700000
        a1                             0.520000
        a2                             5.000000
        s9                             5.000000
      * Repulsion:
        kExp                           1.500000    1.000000
        rExp                           1.000000
      * Coulomb:
        alpha                          2.000000
        third order                    shell-resolved
        anisotropic                    true
        a3                             3.000000
        a5                             4.000000
        cn-shift                       1.200000
        cn-exp                         4.000000
        max-rad                        5.000000


          ...................................................
          :                      SETUP                      :
          :.................................................:
          :  # basis functions                   9          :
          :  # atomic orbitals                   9          :
          :  # shells                            5          :
          :  # electrons                        11          :
          :  max. iterations                   250          :
          :  Hamiltonian                  GFN2-xTB          :
          :  restarted?                      false          :
          :  GBSA solvation                  false          :
          :  PC potential                    false          :
          :  electronic temp.          300.0000000     K    :
          :  accuracy                    1.0000000          :
          :  -> integral cutoff          0.2500000E+02      :
          :  -> integral neglect         0.1000000E-07      :
          :  -> SCF convergence          0.1000000E-05 Eh   :
          :  -> wf. convergence          0.1000000E-03 e    :
          :  Broyden damping             0.4000000          :
          ...................................................

 iter      E             dE          RMSdq      gap      omega  full diag
   1     -6.3917233 -0.639172E+01  0.402E+00   11.54       0.0  T
   2     -6.3926164 -0.893058E-03  0.248E+00   11.42       1.0  T
   3     -6.3895867  0.302971E-02  0.145E+00   11.55       1.0  T
   4     -6.3943830 -0.479632E-02  0.114E-01   11.46       1.0  T
   5     -6.3943832 -0.158572E-06  0.587E-02   11.45       1.0  T
   6     -6.3943866 -0.347545E-05  0.438E-03   11.45      13.2  T
   7     -6.3943866  0.659065E-08  0.365E-03   11.45      15.8  T
   8     -6.3943867 -0.163627E-07  0.736E-04   11.45      78.4  T
   9     -6.3943867 -0.486656E-09  0.291E-04   11.45     198.6  T

   *** convergence criteria satisfied after 9 iterations ***

         #    Occupation            Energy/Eh            Energy/eV
      -------------------------------------------------------------
         1        2.0000           -0.7199510             -19.5909
         2        2.0000           -0.6200146             -16.8715
         3        2.0000           -0.5596133             -15.2279
         4        2.0000           -0.5342322             -14.5372
         5        1.0000           -0.5092173             -13.8565
         6        1.0000           -0.3891054             -10.5881
         7        1.0000           -0.3316304              -9.0241 (HOMO)
         8                          0.0891871               2.4269 (LUMO)
         9                          0.1253005               3.4096
      -------------------------------------------------------------
                  HL-Gap            0.4208175 Eh           11.4510 eV
             Fermi-level           -0.3214732 Eh           -8.7477 eV

 SCC (total)                   0 d,  0 h,  0 min,  0.001 sec
 SCC setup                      ...        0 min,  0.000 sec (  6.159%)
 Dispersion                     ...        0 min,  0.000 sec (  0.661%)
 integral evaluation            ...        0 min,  0.000 sec ( 24.240%)
 zeroth order Hamiltonian       ...        0 min,  0.000 sec (  0.794%)
 iterations                     ...        0 min,  0.001 sec ( 43.661%)
 molecular gradient             ...        0 min,  0.000 sec ( 20.291%)
 printout                       ...        0 min,  0.000 sec (  3.571%)

         :::::::::::::::::::::::::::::::::::::::::::::::::::::
         ::                     SUMMARY                     ::
         :::::::::::::::::::::::::::::::::::::::::::::::::::::
         :: total energy              -6.371765127948 Eh    ::
         :: gradient norm              0.087026518004 Eh/a0 ::
         :: HOMO-LUMO gap             11.451027037026 eV    ::
         ::.................................................::
         :: SCC energy                -6.394386651720 Eh    ::
         :: -> isotropic ES            0.009713702410 Eh    ::
         :: -> anisotropic ES          0.000223418546 Eh    ::
         :: -> anisotropic XC          0.000809254704 Eh    ::
         :: -> dispersion             -0.000419976315 Eh    ::
         :: repulsion energy           0.022621522516 Eh    ::
         :: add. restraining           0.000000000000 Eh    ::
         :::::::::::::::::::::::::::::::::::::::::::::::::::::

      ----------------------------------------------------------- 
     |                   =====================                   |
     |                        A N C O P T                        |
     |                   =====================                   |
     |               Approximate Normal Coordinate               |
     |                Rational Function Optimizer                |
      ----------------------------------------------------------- 

          ...................................................
          :                      SETUP                      :
          :.................................................:
          :   optimization level            normal          :
          :   max. optcycles                   200          :
          :   ANC micro-cycles                  20          :
          :   degrees of freedom                 3          :
          :.................................................:
          :   RF solver                   davidson          :
          :   write xtbopt.log                true          :
          :   linear?                        false          :
          :   energy convergence         0.5000000E-05 Eh   :
          :   grad. convergence          0.1000000E-02 Eh/α :
          :   maximium RF displ.         1.0000000          :
          :   Hlow (freq-cutoff)         0.1000000E-01      :
          :   Hmax (freq-cutoff)         5.0000000          :
          :   S6 in model hess.         20.0000000          :
          ...................................................

generating ANC from model Hessian ...
Using Lindh-Hessian (1995)
 Shifting diagonal of input Hessian by    0.0000000000000000     
 Lowest  eigenvalues of input Hessian
   -0.000000   -0.000000    0.000000    0.000000    0.000000    0.000000
    0.126709    0.778033    1.225348
 Highest eigenvalues
    0.000000    0.000000    0.000000    0.126709    0.778033    1.225348


........................................................................
.............................. CYCLE    1 ..............................
........................................................................
   1     -6.3943867 -0.639439E+01  0.957E-05   11.45       0.0  T
   2     -6.3943867 -0.892975E-11  0.810E-05   11.45     712.7  T
   3     -6.3943867 -0.175602E-10  0.264E-05   11.45    2188.8  T
     SCC iter.                  ...        0 min,  0.000 sec
     gradient                   ...        0 min,  0.000 sec
 * total energy  :    -6.3717651 Eh     change       -0.1099752E-08 Eh
   gradient norm :     0.0870280 Eh/α   predicted     0.0000000E+00 (-100.00%)
   displ. norm   :     0.1155933 α      lambda       -0.7376712E-02
   maximum displ.:     0.0886498 α      in ANC's #1, #3, #2, ...

........................................................................
.............................. CYCLE    2 ..............................
........................................................................
   1     -6.4051990 -0.640520E+01  0.668E-01   12.22       0.0  T
   2     -6.4052970 -0.980448E-04  0.320E-01   12.19       1.0  T
   3     -6.4052719  0.251538E-04  0.253E-01   12.20       1.0  T
   4     -6.4053633 -0.913821E-04  0.399E-02   12.19       1.4  T
   5     -6.4053640 -0.696919E-06  0.987E-03   12.20       5.9  T
   6     -6.4053640 -0.187578E-07  0.111E-03   12.20      51.9  T
   7     -6.4053640 -0.283315E-09  0.523E-04   12.20     110.4  T
   8     -6.4053640 -0.732694E-10  0.758E-05   12.20     761.4  T
     SCC iter.                  ...        0 min,  0.000 sec
     gradient                   ...        0 min,  0.000 sec
 * total energy  :    -6.3771594 Eh     change       -0.5394308E-02 Eh
   gradient norm :     0.0382495 Eh/α   predicted    -0.3737638E-02 ( -30.71%)
   displ. norm   :     0.0978430 α      lambda       -0.2592636E-02
   maximum displ.:     0.0802768 α      in ANC's #1, #3, #2, ...

........................................................................
.............................. CYCLE    3 ..............................
........................................................................
   1     -6.4105697 -0.641057E+01  0.530E-01   11.45       0.0  T
   2     -6.4106427 -0.729401E-04  0.259E-01   11.42       1.0  T
   3     -6.4106481 -0.543426E-05  0.198E-01   11.43       1.0  T
   4     -6.4106928 -0.447107E-04  0.236E-02   11.43       2.4  T
   5     -6.4106931 -0.277547E-06  0.664E-03   11.44       8.7  T
   6     -6.4106931 -0.814529E-08  0.671E-04   11.44      86.1  T
   7     -6.4106931 -0.597513E-10  0.346E-04   11.44     166.9  T
     SCC iter.                  ...        0 min,  0.000 sec
     gradient                   ...        0 min,  0.000 sec
 * total energy  :    -6.3781188 Eh     change       -0.9594031E-03 Eh
   gradient norm :     0.0175743 Eh/α   predicted    -0.1308729E-02 (  36.41%)
   displ. norm   :     0.0185184 α      lambda       -0.2967177E-03
   maximum displ.:     0.0122725 α      in ANC's #3, #2, #1, ...

........................................................................
.............................. CYCLE    4 ..............................
........................................................................
   1     -6.4087508 -0.640875E+01  0.114E-01   11.33       0.0  T
   2     -6.4087529 -0.207363E-05  0.653E-02   11.33       1.0  T
   3     -6.4087528  0.868060E-07  0.150E-02   11.33       3.9  T
   4     -6.4087532 -0.341544E-06  0.907E-03   11.33       6.4  T
   5     -6.4087533 -0.111216E-06  0.234E-03   11.33      24.6  T
   6     -6.4087533 -0.223464E-08  0.369E-04   11.33     156.3  T
   7     -6.4087533 -0.588987E-10  0.169E-04   11.33     340.7  T
     SCC iter.                  ...        0 min,  0.000 sec
     gradient                   ...        0 min,  0.000 sec
 * total energy  :    -6.3782695 Eh     change       -0.1506855E-03 Eh
   gradient norm :     0.0031815 Eh/α   predicted    -0.1484095E-03 (  -1.51%)
   displ. norm   :     0.0053402 α      lambda       -0.1484106E-04
   maximum displ.:     0.0041641 α      in ANC's #2, #1, #3, ...

........................................................................
.............................. CYCLE    5 ..............................
........................................................................
   1     -6.4084929 -0.640849E+01  0.293E-02   11.19       0.0  T
   2     -6.4084933 -0.492704E-06  0.181E-02   11.19       3.2  T
   3     -6.4084937 -0.398394E-06  0.107E-02   11.19       5.4  T
   4     -6.4084938 -0.585016E-07  0.880E-04   11.19      65.6  T
   5     -6.4084938 -0.537367E-09  0.336E-04   11.19     172.0  T
     SCC iter.                  ...        0 min,  0.000 sec
     gradient                   ...        0 min,  0.000 sec
 * total energy  :    -6.3782795 Eh     change       -0.9970990E-05 Eh
   gradient norm :     0.0012407 Eh/α   predicted    -0.7419442E-05 ( -25.59%)
   displ. norm   :     0.0039038 α      lambda       -0.3132963E-05
   maximum displ.:     0.0033394 α      in ANC's #2, #3, #1, ...

........................................................................
.............................. CYCLE    6 ..............................
........................................................................
   1     -6.4083113 -0.640831E+01  0.187E-02   11.08       0.0  T
   2     -6.4083114 -0.168201E-06  0.100E-02   11.09       5.8  T
   3     -6.4083116 -0.113598E-06  0.712E-03   11.09       8.1  T
   4     -6.4083116 -0.373468E-07  0.566E-04   11.09     101.9  T
   5     -6.4083116 -0.242729E-09  0.157E-04   11.09     366.9  T
     SCC iter.                  ...        0 min,  0.000 sec
     gradient                   ...        0 min,  0.000 sec
 * total energy  :    -6.3782808 Eh     change       -0.1349813E-05 Eh
   gradient norm :     0.0005132 Eh/α   predicted    -0.1568384E-05 (  16.19%)
   displ. norm   :     0.0013381 α      lambda       -0.4157449E-06
   maximum displ.:     0.0010194 α      in ANC's #2, #1, #3, ...

   *** GEOMETRY OPTIMIZATION CONVERGED AFTER 6 ITERATIONS ***

------------------------------------------------------------------------
 total energy gain   :        -0.0065157 Eh       -4.0887 kcal/mol
 total RMSD          :         0.1157484 a0        0.0613 Å
 total power (kW/mol):        -2.8511696 (step)-2926.8624 (real)
------------------------------------------------------------------------

 ANCopt (total)                0 d,  0 h,  0 min,  0.006 sec
 optimizer setup                ...        0 min,  0.000 sec (  1.059%)
 model hessian                  ...        0 min,  0.000 sec (  0.717%)
 ANC generation                 ...        0 min,  0.000 sec (  0.530%)
 coordinate transformation      ...        0 min,  0.000 sec (  0.220%)
 single point calculation       ...        0 min,  0.005 sec ( 89.464%)
 optimization log               ...        0 min,  0.000 sec (  2.196%)
 hessian update                 ...        0 min,  0.000 sec (  0.293%)
 rational function              ...        0 min,  0.000 sec (  2.049%)

================
 final structure:
================
3
 xtb: 6.2.2 (9d81278992624c895f80dd42a50cac0aa55982e2)
O         1.00980231815573   -0.18852096862918    0.00000000000000
C        -0.10405798310297    0.48867003310680    0.00000000000000
H        -0.90574433505277   -0.30014906447762    0.00000000000000

 Bond Distances (Angstroems)
 ---------------------------
O1-C2=1.3036         C2-O1=1.3036         C2-H3=1.1247         H3-C2=1.1247         
 C  H  Rav=1.1247 sigma=0.0000  Rmin=1.1247  Rmax=1.1247     1
 O  C  Rav=1.3036 sigma=0.0000  Rmin=1.3036  Rmax=1.3036     1

 selected bond angles (degree)
 --------------------
H3-C2-O1=104.17                

 selected dihedral angles (degree)
 ---------------------------------

           -------------------------------------------------
          |                Final Singlepoint                |
           -------------------------------------------------

          ...................................................
          :                      SETUP                      :
          :.................................................:
          :  # basis functions                   9          :
          :  # atomic orbitals                   9          :
          :  # shells                            5          :
          :  # electrons                        11          :
          :  max. iterations                   250          :
          :  Hamiltonian                  GFN2-xTB          :
          :  restarted?                      false          :
          :  GBSA solvation                  false          :
          :  PC potential                    false          :
          :  electronic temp.          300.0000000     K    :
          :  accuracy                    1.0000000          :
          :  -> integral cutoff          0.2500000E+02      :
          :  -> integral neglect         0.1000000E-07      :
          :  -> SCF convergence          0.1000000E-05 Eh   :
          :  -> wf. convergence          0.1000000E-03 e    :
          :  Broyden damping             0.4000000          :
          ...................................................

 iter      E             dE          RMSdq      gap      omega  full diag
   1     -6.4083116 -0.640831E+01  0.359E-05   11.09       0.0  T
   2     -6.4083116 -0.372147E-12  0.255E-05   11.09    2262.7  T
   3     -6.4083116 -0.246914E-12  0.762E-06   11.09    7571.8  T

   *** convergence criteria satisfied after 3 iterations ***

         #    Occupation            Energy/Eh            Energy/eV
      -------------------------------------------------------------
         1        2.0000           -0.7274005             -19.7936
         2        2.0000           -0.6195017             -16.8575
         3        2.0000           -0.5647195             -15.3668
         4        2.0000           -0.5410944             -14.7239
         5        1.0000           -0.4985222             -13.5655
         6        1.0000           -0.3726802             -10.1411
         7        1.0000           -0.3047128              -8.2917 (HOMO)
         8                          0.1026934               2.7944 (LUMO)
         9                          0.2713694               7.3843
      -------------------------------------------------------------
                  HL-Gap            0.4074062 Eh           11.0861 eV
             Fermi-level           -0.3104090 Eh           -8.4467 eV

 SCC (total)                   0 d,  0 h,  0 min,  0.001 sec
 SCC setup                      ...        0 min,  0.000 sec (  5.298%)
 Dispersion                     ...        0 min,  0.000 sec (  0.702%)
 integral evaluation            ...        0 min,  0.000 sec ( 38.430%)
 zeroth order Hamiltonian       ...        0 min,  0.000 sec (  0.702%)
 iterations                     ...        0 min,  0.000 sec ( 16.853%)
 molecular gradient             ...        0 min,  0.000 sec ( 29.684%)
 printout                       ...        0 min,  0.000 sec (  7.660%)

         :::::::::::::::::::::::::::::::::::::::::::::::::::::
         ::                     SUMMARY                     ::
         :::::::::::::::::::::::::::::::::::::::::::::::::::::
         :: total energy              -6.378280846960 Eh    ::
         :: gradient norm              0.000513285515 Eh/a0 ::
         :: HOMO-LUMO gap             11.086086301040 eV    ::
         ::.................................................::
         :: SCC energy                -6.408311588710 Eh    ::
         :: -> isotropic ES            0.010656699755 Eh    ::
         :: -> anisotropic ES          0.000298570680 Eh    ::
         :: -> anisotropic XC          0.000480982950 Eh    ::
         :: -> dispersion             -0.000416989639 Eh    ::
         :: repulsion energy           0.030030741510 Eh    ::
         :: add. restraining           0.000000000000 Eh    ::
         :::::::::::::::::::::::::::::::::::::::::::::::::::::

           ------------------------------------------------- 
          |                Numerical Hessian                |
           ------------------------------------------------- 
step length          :   0.00500
SCC accuracy         :   0.30000
Hessian scale factor :   1.00000
frozen atoms in %    :   0.00000    0
RMS gradient         :   0.00051
estimated CPU  time      0.00 min
estimated wall time      0.00 min

writing file <hessian>.

 projected vibrational frequencies (cm-1)
eigval :       -0.00    -0.00    -0.00    -0.00    -0.00     0.00
eigval :      972.29  1433.04  2498.47
           -------------------------------------------------
          |                Property Printout                |
           -------------------------------------------------

    * Orbital Energies and Occupations

         #    Occupation            Energy/Eh            Energy/eV
      -------------------------------------------------------------
         1        2.0000           -0.7274005             -19.7936
         2        2.0000           -0.6195017             -16.8575
         3        2.0000           -0.5647195             -15.3668
         4        2.0000           -0.5410944             -14.7239
         5        1.0000           -0.4985221             -13.5655
         6        1.0000           -0.3726802             -10.1411
         7        1.0000           -0.3047127              -8.2917 (HOMO)
         8                          0.1026935               2.7944 (LUMO)
         9                          0.2713695               7.3843
      -------------------------------------------------------------
                  HL-Gap            0.4074062 Eh           11.0861 eV
Molecule has the following symmetry elements: (sigma) 
It seems to be the Cs point group
             Fermi-level           -0.3104089 Eh           -8.4467 eV

     #   Z        covCN         q      C6AA      α(0)
     1   8 O      0.855    -0.205    18.145     5.711
     2   6 C      1.774     0.027    30.544     8.935
     3   1 H      0.919     0.178     1.219     1.727

 Mol. C6AA /au·bohr⁶  :        117.617398
 Mol. C8AA /au·bohr⁸  :       2754.670120
 Mol. α(0) /au        :         16.372341


Wiberg/Mayer (AO) data.
largest (>0.10) Wiberg bond orders for each atom
          total WBO             WBO to atom ...
     1  O   1.350        C    2 1.305
     2  C   1.995        O    1 1.305    H    3 0.690
     3  H   0.734        C    2 0.690

MOs/occ written to file <molden.input>


molecular dipole:
                 x           y           z       tot (Debye)
 q only:       -0.700      -0.003       0.000
   full:       -0.839       0.032       0.000       2.135
molecular quadrupole (traceless):
                xx          xy          yy          xz          yz          zz
 q only:       -0.251       0.460       0.166       0.000      -0.000       0.085
  q+dip:       -0.024       1.028       0.162      -0.000      -0.000      -0.138
   full:        0.126       1.042       0.198      -0.000      -0.000      -0.324

           -------------------------------------------------
          |                Geometry Summary                 |
           -------------------------------------------------

      molecular mass/u    :       29.0180816
   center of mass at/Å    :        0.4822338       0.0878920      -0.0000018
  moments of inertia/u·Å² :        0.1056182E+01   0.1277063E+02   0.1382681E+02
rotational constants/cm⁻¹ :        0.1596091E+02   0.1320031E+01   0.1219199E+01

           -------------------------------------------------
          |               Frequency Printout                |
           -------------------------------------------------
 projected vibrational frequencies (cm-1)
eigval :       -0.00    -0.00    -0.00    -0.00    -0.00     0.00
eigval :      972.29  1433.04  2498.47
 reduced masses (amu)
   1:  1.01   2: 13.22   3: 10.28   4: 13.40   5: 16.00   6: 14.75   7:  3.35   8: 13.20
   9:  1.85
 IR intensities (amu)
   1:  0.20   2:  0.06   3:  0.24   4:  0.13   5:  0.26   6:  0.20   7:  0.12   8:  0.35
   9:  0.23
 Raman intensities (amu)
   1:  0.00   2:  0.00   3:  0.00   4:  0.00   5:  0.00   6:  0.00   7:  0.00   8:  0.00
   9:  0.00
 output can be read by thermo (or use thermo option).
 writing <g98.out> molden fake output.
 recommended (thermochemical) frequency scaling factor: 1.0
           -------------------------------------------------
          |             Thermodynamic Functions             |
           -------------------------------------------------

cs  symmetry found (for desy threshold:  0.10E+00) used in thermo

          ...................................................
          :                      SETUP                      :
          :.................................................:
          :  # frequencies                           3      :
          :  # imaginary freq.                       0      :
          :  linear?                             false      :
          :  only rotor calc.                    false      :
          :  symmetry                               cs      :
          :  rotational number                       1      :
          :  scaling factor                  1.0000000      :
          :  rotor cutoff                   50.0000000 cm⁻¹ :
          :  imag. cutoff                  -20.0000000 cm⁻¹ :
          :.................................................:

    mode    ω/cm⁻¹     T·S(HO)/kcal·mol⁻¹    T·S(FR)/kcal·mol⁻¹   T·S(vib)
   ------------------------------------------------------------------------
   ------------------------------------------------------------------------

   temp. (K)  partition function   enthalpy   heat capacity  entropy
                                   cal/mol     cal/K/mol   cal/K/mol   J/K/mol
 298.15  VIB   1.01                   29.836      0.505      0.120
         ROT  0.104E+04              888.752      2.981     16.792
         INT  0.105E+04              918.588      3.486     16.913
         TR   0.151E+27             1481.254      4.968     36.014
         TOT                        2399.8424     8.4538    52.9265   221.4446

   temp. (K)  partition function   enthalpy   heat capacity  entropy
                                   cal/mol     cal/K/mol   cal/K/mol   J/K/mol
 120.00  VIB   1.00                    0.024      0.002      0.000
         ROT   266.                  357.707      2.981     14.080
         INT   266.                  357.731      2.983     14.080
         TR   0.386E+26              596.178      4.968     31.494
         TOT                         953.9090     7.9514    45.5741   190.6822

   temp. (K)  partition function   enthalpy   heat capacity  entropy
                                   cal/mol     cal/K/mol   cal/K/mol   J/K/mol
 100.00  VIB   1.00                    0.002      0.000      0.000
         ROT   203.                  298.089      2.981     13.536
         INT   203.                  298.091      2.981     13.536
         TR   0.294E+26              496.815      4.968     30.589
         TOT                         794.9063     7.9494    44.1251   184.6194

   temp. (K)  partition function   enthalpy   heat capacity  entropy
                                   cal/mol     cal/K/mol   cal/K/mol   J/K/mol
  80.00  VIB   1.00                    0.000      0.000     -0.000
         ROT   145.                  238.471      2.981     12.871
         INT   145.                  238.471      2.981     12.871
         TR   0.210E+26              397.452      4.968     29.481
         TOT                         635.9233     7.9491    42.3518   177.2001

   temp. (K)  partition function   enthalpy   heat capacity  entropy
                                   cal/mol     cal/K/mol   cal/K/mol   J/K/mol
  60.00  VIB   1.00                    0.000      0.000     -0.000
         ROT   94.2                  178.853      2.981     12.013
         INT   94.2                  178.853      2.981     12.013
         TR   0.137E+26              298.089      4.968     28.052
         TOT                         476.9424     7.9490    40.0657   167.6350

   temp. (K)  partition function   enthalpy   heat capacity  entropy
                                   cal/mol     cal/K/mol   cal/K/mol   J/K/mol
  40.00  VIB   1.00                    0.000      0.000     -0.000
         ROT   51.3                  119.236      2.981     10.805
         INT   51.3                  119.236      2.981     10.805
         TR   0.743E+25              198.726      4.968     26.039
         TOT                         317.9616     7.9490    36.8437   154.1539

   temp. (K)  partition function   enthalpy   heat capacity  entropy
                                   cal/mol     cal/K/mol   cal/K/mol   J/K/mol
  20.00  VIB   1.00                    0.000      0.000     -0.000
         ROT   18.1                   59.618      2.981      8.739
         INT   18.1                   59.618      2.981      8.739
         TR   0.263E+25               99.363      4.968     22.597
         TOT                         158.9808     7.9490    31.3355   131.1076

   temp. (K)  partition function   enthalpy   heat capacity  entropy
                                   cal/mol     cal/K/mol   cal/K/mol   J/K/mol
  10.00  VIB   1.00                    0.000      0.000     -0.000
         ROT   6.41                   29.809      2.981      6.672
         INT   6.41                   29.809      2.981      6.672
         TR   0.929E+24               49.681      4.968     19.155
         TOT                          79.4904     7.9490    25.8273   108.0614

       T/K    H(0)-H(T)+PV         H(T)/Eh          T*S/Eh         G(T)/Eh
   ------------------------------------------------------------------------
    298.15    0.382439E-02    0.149961E-01    0.251471E-01   -0.101510E-01
    120.00    0.152015E-02    0.126919E-01    0.871524E-02    0.397661E-02
    100.00    0.126676E-02    0.124385E-01    0.703178E-02    0.540668E-02
     80.00    0.101341E-02    0.121851E-01    0.539936E-02    0.678575E-02
     60.00    0.760056E-03    0.119318E-01    0.383093E-02    0.810083E-02
     40.00    0.506704E-03    0.116784E-01    0.234856E-02    0.932984E-02
     20.00    0.253352E-03    0.114251E-01    0.998725E-03    0.104263E-01
     10.00    0.126676E-03    0.112984E-01    0.411584E-03    0.108868E-01 (used)
   ------------------------------------------------------------------------

         :::::::::::::::::::::::::::::::::::::::::::::::::::::
         ::                  THERMODYNAMIC                  ::
         :::::::::::::::::::::::::::::::::::::::::::::::::::::
         :: total free energy          -6.367394055417 Eh   ::
         ::.................................................::
         :: total energy               -6.378280846969 Eh   ::
         :: zero point energy           0.011171699745 Eh   ::
         :: G(RRHO) w/o ZPVE           -0.000284908193 Eh   ::
         :: G(RRHO) contrib.            0.010886791552 Eh   ::
         :::::::::::::::::::::::::::::::::::::::::::::::::::::

optimized geometry written to: xtbopt.xyz


           -------------------------------------------------
          | TOTAL ENERGY               -6.378280846969 Eh   |
          | TOTAL ENTHALPY             -6.366982471208 Eh   |
          | TOTAL FREE ENERGY          -6.367394055417 Eh   |
          | GRADIENT NORM               0.000513261879 Eh/α |
          | HOMO-LUMO GAP              11.086085976316 eV   |
           -------------------------------------------------

------------------------------------------------------------------------
 * finished run on 2020/05/12 at 11:44:24.794     
------------------------------------------------------------------------
 total:
 * wall-time:     0 d,  0 h,  0 min,  0.036 sec
 *  cpu-time:     0 d,  0 h,  0 min,  0.036 sec
 * ratio c/w:     0.999 speedup
 SCF:
 * wall-time:     0 d,  0 h,  0 min,  0.001 sec
 *  cpu-time:     0 d,  0 h,  0 min,  0.001 sec
 * ratio c/w:     0.999 speedup
 ANC optimizer:
 * wall-time:     0 d,  0 h,  0 min,  0.007 sec
 *  cpu-time:     0 d,  0 h,  0 min,  0.007 sec
 * ratio c/w:     1.000 speedup
 numerical hessian:
 * wall-time:     0 d,  0 h,  0 min,  0.013 sec
 *  cpu-time:     0 d,  0 h,  0 min,  0.013 sec
 * ratio c/w:     1.000 speedup

