$hessian                                                                        
        0.3991117230  -0.2256889911  -0.0000009993  -0.3456245934   0.2547518995
        0.0000007618  -0.0534871296  -0.0290629084   0.0000002374
       -0.2256889911   0.1595337447   0.0000005094   0.2229797562  -0.1932112729
       -0.0000004411   0.0027092349   0.0336775282  -0.0000000682
       -0.0000009993   0.0000005094   0.0000000000   0.0000008173  -0.0000005520
       -0.0000000000   0.0000001820   0.0000000427  -0.0000000000
       -0.3456245934   0.2229797562   0.0000008173   0.4298653009  -0.1579438116
       -0.0000012249  -0.0842407075  -0.0650359446   0.0000004076
        0.2547518995  -0.1932112729  -0.0000005520  -0.1579438116   0.3417176684
       -0.0000000451  -0.0968080879  -0.1485063956   0.0000005971
        0.0000007618  -0.0000004411  -0.0000000000  -0.0000012249  -0.0000000451
        0.0000000000   0.0000004630   0.0000004862  -0.0000000000
       -0.0534871296   0.0027092349   0.0000001820  -0.0842407075  -0.0968080879
        0.0000004630   0.1377278371   0.0940988530  -0.0000006450
       -0.0290629084   0.0336775282   0.0000000427  -0.0650359446  -0.1485063956
        0.0000004862   0.0940988530   0.1148288674  -0.0000005289
        0.0000002374  -0.0000000682  -0.0000000000   0.0000004076   0.0000005971
       -0.0000000000  -0.0000006450  -0.0000005289   0.0000000000
