5
 energy: -10.084969820765 gnorm: 0.508523040032 xtb: 6.2.2 (9d81278992624c895f80dd42a50cac0aa55982e2)
C        -0.28789700000000    0.71153500000000    0.58386400000000
C        -0.64696300000000   -0.48061600000000   -0.52977400000000
C         0.11093900000000    0.61021000000000   -0.68905200000000
C         0.93482400000000   -0.23101900000000   -0.05401100000000
C        -0.11090200000000   -0.61011100000000    0.68897300000000
5
 energy: -10.161688863726 gnorm: 0.174182219326 xtb: 6.2.2 (9d81278992624c895f80dd42a50cac0aa55982e2)
C        -0.29633329498844    0.73241083281504    0.60095422096477
C        -0.66591007455975   -0.49468240191206   -0.54529791677843
C         0.12058528716902    0.66324475756431   -0.74894463757271
C         0.96221410003934   -0.23776955170955   -0.05561280605248
C        -0.12055501766017   -0.66320463675774    0.74890113943885
5
 energy: -10.175785114822 gnorm: 0.050213391296 xtb: 6.2.2 (9d81278992624c895f80dd42a50cac0aa55982e2)
C        -0.29876601234952    0.73843565293693    0.60587760605002
C        -0.67138055328616   -0.49873592268220   -0.54977519435051
C         0.12631024485574    0.69471858227203   -0.78448852619473
C         0.97011987373495   -0.23970987380933   -0.05607540878764
C        -0.12628255295501   -0.69470943871742    0.78446152328287
5
 energy: -10.177649759999 gnorm: 0.017600185817 xtb: 6.2.2 (9d81278992624c895f80dd42a50cac0aa55982e2)
C        -0.29843606746523    0.73762684524139    0.60520237054343
C        -0.67065699049208   -0.49818208714493   -0.54917052021512
C         0.12907981339337    0.70993704258792   -0.80167765385165
C         0.96906651153419   -0.23943459536785   -0.05601089992241
C        -0.12905226697025   -0.70994820531654    0.80165670344574
5
 energy: -10.177957744278 gnorm: 0.015085993976 xtb: 6.2.2 (9d81278992624c895f80dd42a50cac0aa55982e2)
C        -0.29724295546277    0.73467626690716    0.60277505234175
C        -0.66799815260592   -0.49618517836953   -0.54697380515166
C         0.13013341028696    0.71571448105881   -0.80820759138630
C         0.96521214894111   -0.23846655891922   -0.05577895835071
C        -0.13010345115938   -0.71574001067722    0.80818530254692
5
 energy: -10.178177722772 gnorm: 0.011198594216 xtb: 6.2.2 (9d81278992624c895f80dd42a50cac0aa55982e2)
C        -0.29520458045050    0.72962838024127    0.59862609515180
C        -0.66346833045704   -0.49277050856313   -0.54321875106098
C         0.13100047049622    0.72044402508361   -0.81356380240146
C         0.95863590166310   -0.23680885663029   -0.05537438035419
C        -0.13096246125178   -0.72049404013145    0.81353083866483
5
 energy: -10.178257293793 gnorm: 0.004655579654 xtb: 6.2.2 (9d81278992624c895f80dd42a50cac0aa55982e2)
C        -0.29374624433595    0.72600335182515    0.59564790255387
C        -0.66025928126365   -0.49031607984818   -0.54052607764285
C         0.13121597656700    0.72157013420298   -0.81486111148552
C         0.95395355104403   -0.23560854290147   -0.05506670524423
C        -0.13116300201144   -0.72164986327848    0.81480599181873
5
 energy: -10.178269158364 gnorm: 0.000776884900 xtb: 6.2.2 (9d81278992624c895f80dd42a50cac0aa55982e2)
C        -0.29342738219654    0.72518344833218    0.59497304998983
C        -0.65960690780839   -0.48975268436135   -0.53992139047864
C         0.13109437294429    0.72082803267556   -0.81405510848879
C         0.95296196394294   -0.23531866978541   -0.05496953650560
C        -0.13102104688230   -0.72094112686098    0.81397298548319
5
 energy: -10.178269612850 gnorm: 0.000428514042 xtb: 6.2.2 (9d81278992624c895f80dd42a50cac0aa55982e2)
C        -0.29347319882662    0.72524550321886    0.59502189364217
C        -0.65982476870120   -0.48977901359416   -0.53997867308785
C         0.13102417878554    0.72031324717934   -0.81353070949956
C         0.95318929460975   -0.23529684339111   -0.05491238556886
C        -0.13091450586747   -0.72048389341293    0.81339987451410
