$hessian                                                                        
       -0.0457209770  -0.0245849509  -0.0626985373   0.0716069123   0.0709659301
        0.0663510684  -0.0170364506  -0.0244965364   0.0508024089  -0.0059010433
       -0.0341609410  -0.0391940848  -0.0029484415   0.0122764981  -0.0152608552
       -0.0245849509   0.1662893959  -0.0413062084  -0.1241457463  -0.0145209913
       -0.0771216637  -0.0089019251   0.0118060309   0.0207638947   0.1607037176
        0.0158821788  -0.0042597930  -0.0030710953  -0.1794566143   0.1019237705
       -0.0626985373  -0.0413062084   0.1618649627  -0.1064209317  -0.0456952987
       -0.0076637926   0.0428508669   0.0723365851  -0.1856241435   0.1332944332
       -0.0356213093   0.0397959063  -0.0070258311   0.0502862314  -0.0083729329
        0.0716069123  -0.1241457463  -0.1064209317   0.0298733949   0.0914341018
        0.0522144625  -0.0348559865  -0.0791591532   0.0617006024  -0.0632571083
        0.0723367329   0.0458667170  -0.0033672125   0.0395340649  -0.0533608503
        0.0709659301  -0.0145209913  -0.0456952987   0.0914341018   0.1034682877
       -0.0780999188  -0.0591710771  -0.1403522696   0.0864580256  -0.1220701261
        0.0630401161  -0.0077134786   0.0188411714  -0.0116351429   0.0450506704
        0.0663510684  -0.0771216637  -0.0076637926   0.0522144625  -0.0780999188
        0.1475314326   0.0312295945   0.0468291455  -0.0148744010  -0.1262365678
        0.0236222557   0.0501161709  -0.0235585576   0.0847701812  -0.1751094099
       -0.0170364506  -0.0089019251   0.0428508669  -0.0348559865  -0.0591710771
        0.0312295945   0.0820702314   0.0370875752  -0.0419579406  -0.0084724096
        0.0359798167  -0.0376335569  -0.0217053848  -0.0049943896   0.0055110360
       -0.0244965364   0.0118060309   0.0723365851  -0.0791591532  -0.1403522696
        0.0468291455   0.0370875752   0.2785026317  -0.2298752009   0.0715500426
       -0.1021986945   0.0800248961  -0.0049819281  -0.0477576983   0.0306845742
        0.0508024089   0.0207638947  -0.1856241435   0.0617006024   0.0864580256
       -0.0148744010  -0.0419579406  -0.2298752009   0.3352197917  -0.0760473544
        0.0919188726  -0.0794674200   0.0055022838   0.0307344080  -0.0552538273
       -0.0059010433   0.1607037176   0.1332944332  -0.0632571083  -0.1220701261
       -0.1262365678  -0.0084724096   0.0715500426  -0.0760473544   0.1316058390
       -0.0264396264  -0.0357652657  -0.0539752777  -0.0837440077   0.1047547547
       -0.0341609410   0.0158821788  -0.0356213093   0.0723367329   0.0630401161
        0.0236222557   0.0359798167  -0.1021986945   0.0919188726  -0.0264396264
        0.0636534463  -0.1322669902  -0.0477159823  -0.0403770466   0.0523471712
       -0.0391940848  -0.0042597930   0.0397959063   0.0458667170  -0.0077134786
        0.0501161709  -0.0376335569   0.0800248961  -0.0794674200  -0.0357652657
       -0.1322669902   0.0853783093   0.0667261903   0.0642153657  -0.0958229665
       -0.0029484415  -0.0030710953  -0.0070258311  -0.0033672125   0.0188411714
       -0.0235585576  -0.0217053848  -0.0049819281   0.0055022838  -0.0539752777
       -0.0477159823   0.0667261903   0.0819963164   0.0369278343  -0.0416440853
        0.0122764981  -0.1794566143   0.0502862314   0.0395340649  -0.0116351429
        0.0847701812  -0.0049943896  -0.0477576983   0.0307344080  -0.0837440077
       -0.0403770466   0.0642153657   0.0369278343   0.2792265021  -0.2300061864
       -0.0152608552   0.1019237705  -0.0083729329  -0.0533608503   0.0450506704
       -0.1751094099   0.0055110360   0.0306845742  -0.0552538273   0.1047547547
        0.0523471712  -0.0958229665  -0.0416440853  -0.2300061864   0.3345591367
