 Entering Gaussian System
 *********************************************
 Gaussian 98:
 frequency output generated by the xtb code
 *********************************************
                         Standard orientation:
 --------------------------------------------------------------------
  Center     Atomic     Atomic              Coordinates (Angstroms)
  Number     Number      Type              X           Y           Z
 --------------------------------------------------------------------
    1          6             0       -0.293467    0.725248    0.595022
    2          6             0       -0.659829   -0.489777   -0.539976
    3          6             0        0.131025    0.720311   -0.813532
    4          6             0        0.953188   -0.235302   -0.054915
    5          6             0       -0.130915   -0.720482    0.813402
 --------------------------------------------------------------------
     1 basis functions        1 primitive gaussians
     1 alpha electrons        1 beta electrons

 Harmonic frequencies (cm**-1), IR intensities (KM/Mole),
 Raman scattering activities (A**4/amu), Raman depolarization ratios,
 reduced masses (AMU), force constants (mDyne/A) and normal coordinates:
                      1                      2                      3
                        a                      a                      a 
 Frequencies --  -657.7832              -655.1510               460.1527
 Red. masses --    12.0107                12.0107                12.0107
 Frc consts  --     0.0000                 0.0000                 0.0000
 IR Inten    --     6.9048                 6.8919                 4.2422
 Raman Activ --     0.0000                 0.0000                 0.0000
 Depolar     --     0.0000                 0.0000                 0.0000
 Atom AN      X      Y      Z        X      Y      Z        X      Y      Z
   1   6    -0.59  -0.10  -0.18     0.17  -0.38  -0.31     0.23   0.12   0.15
   2   6     0.07   0.40   0.37    -0.57   0.17   0.06     0.34   0.17   0.21
   3   6     0.07   0.01   0.02     0.02  -0.06  -0.05    -0.46  -0.18  -0.23
   4   6     0.38  -0.32  -0.23     0.36   0.33   0.35     0.35   0.07   0.12
   5   6     0.07   0.01   0.02     0.02  -0.06  -0.05    -0.46  -0.18  -0.23
                      4                      5                      6
                        a                      a                      a 
 Frequencies --   461.0863               747.7725               748.8065
 Red. masses --    12.0107                12.0107                12.0107
 Frc consts  --     0.0000                 0.0000                 0.0000
 IR Inten    --     4.2587                 0.0079                 0.0027
 Raman Activ --     0.0000                 0.0000                 0.0000
 Depolar     --     0.0000                 0.0000                 0.0000
 Atom AN      X      Y      Z        X      Y      Z        X      Y      Z
   1   6     0.19  -0.30  -0.24    -0.08  -0.42   0.48    -0.01  -0.03   0.04
   2   6     0.12  -0.21  -0.17     0.04   0.24  -0.27    -0.06  -0.35   0.40
   3   6    -0.29   0.37   0.28     0.10  -0.32  -0.27     0.42   0.04   0.10
   4   6     0.26  -0.22  -0.15     0.03   0.18  -0.21     0.07   0.38  -0.43
   5   6    -0.29   0.37   0.28    -0.10   0.32   0.27    -0.42  -0.04  -0.10
                      7                      8                      9
                        a                      a                      a 
 Frequencies --   766.2714              1301.4329              1398.2531
 Red. masses --    12.0107                12.0107                12.0107
 Frc consts  --     0.0000                 0.0000                 0.0000
 IR Inten    --     0.0149                 1.2015                 0.0069
 Raman Activ --     0.0000                 0.0000                 0.0000
 Depolar     --     0.0000                 0.0000                 0.0000
 Atom AN      X      Y      Z        X      Y      Z        X      Y      Z
   1   6    -0.13   0.33   0.27     0.04   0.24  -0.27    -0.11   0.28   0.23
   2   6    -0.30  -0.22  -0.24     0.04   0.24  -0.27    -0.25  -0.19  -0.20
   3   6    -0.05  -0.30   0.34    -0.07  -0.36   0.41     0.06   0.35  -0.40
   4   6     0.43  -0.10  -0.02     0.04   0.24  -0.27     0.36  -0.09  -0.02
   5   6     0.06   0.30  -0.34    -0.07  -0.36   0.41    -0.06  -0.36   0.40
