 Entering Gaussian System
 *********************************************
 Gaussian 98:
 frequency output generated by the xtb code
 *********************************************
                         Standard orientation:
 --------------------------------------------------------------------
  Center     Atomic     Atomic              Coordinates (Angstroms)
  Number     Number      Type              X           Y           Z
 --------------------------------------------------------------------
    1          6             0       -0.500535    0.946307   -0.003758
    2          6             0        0.654845   -0.031662    0.032262
    3          6             0       -0.587086   -0.893637   -0.052790
    4          6             0        1.909351   -0.092450    0.098866
    5          7             0       -1.476575    0.071443   -0.074581
 --------------------------------------------------------------------
     1 basis functions        1 primitive gaussians
     1 alpha electrons        1 beta electrons

 Harmonic frequencies (cm**-1), IR intensities (KM/Mole),
 Raman scattering activities (A**4/amu), Raman depolarization ratios,
 reduced masses (AMU), force constants (mDyne/A) and normal coordinates:
                      1                      2                      3
                        a                      a                      a 
 Frequencies --   221.7902               284.0569               305.3944
 Red. masses --    12.8540                12.0865                12.0524
 Frc consts  --     0.0000                 0.0000                 0.0000
 IR Inten    --     0.0745                 0.5622                 0.2053
 Raman Activ --     0.0000                 0.0000                 0.0000
 Depolar     --     0.0000                 0.0000                 0.0000
 Atom AN      X      Y      Z        X      Y      Z        X      Y      Z
   1   6     0.02   0.01  -0.41     0.34  -0.20   0.01     0.02   0.01  -0.32
   2   6     0.01   0.01  -0.27     0.04   0.78   0.02    -0.04  -0.02   0.81
   3   6     0.02   0.01  -0.41    -0.36  -0.17  -0.02     0.02   0.01  -0.32
   4   6    -0.02  -0.01   0.40    -0.01  -0.19  -0.01     0.02   0.01  -0.34
   5   7    -0.03  -0.02   0.65    -0.01  -0.19  -0.01    -0.01  -0.00   0.14
                      4                      5                      6
                        a                      a                      a 
 Frequencies --   359.1709               623.0471               899.7607
 Red. masses --    12.1106                12.5722                12.0531
 Frc consts  --     0.0000                 0.0000                 0.0000
 IR Inten    --     0.3059                 0.4952                 0.6105
 Raman Activ --     0.0000                 0.0000                 0.0000
 Depolar     --     0.0000                 0.0000                 0.0000
 Atom AN      X      Y      Z        X      Y      Z        X      Y      Z
   1   6     0.43  -0.27   0.02     0.16   0.38   0.02     0.40  -0.46   0.01
   2   6    -0.02  -0.32  -0.01    -0.41   0.02  -0.02    -0.30   0.02  -0.01
   3   6    -0.45  -0.23  -0.03     0.13  -0.40  -0.00     0.44   0.42   0.03
   4   6     0.03   0.58   0.02    -0.45   0.02  -0.02    -0.38   0.02  -0.02
   5   7     0.01   0.22   0.01     0.53  -0.02   0.03    -0.15   0.01  -0.01
                      7                      8                      9
                        a                      a                      a 
 Frequencies --   950.4869              1495.7308              1809.6856
 Red. masses --    12.8456                12.9151                12.0481
 Frc consts  --     0.0000                 0.0000                 0.0000
 IR Inten    --     1.6647                 0.9854                 1.1209
 Raman Activ --     0.0000                 0.0000                 0.0000
 Depolar     --     0.0000                 0.0000                 0.0000
 Atom AN      X      Y      Z        X      Y      Z        X      Y      Z
   1   6    -0.31  -0.41  -0.03    -0.34  -0.37  -0.03    -0.04  -0.09  -0.00
   2   6     0.01   0.21   0.01     0.10  -0.00   0.01    -0.73   0.04  -0.04
   3   6     0.27  -0.44   0.00    -0.31   0.40  -0.01    -0.03   0.09   0.00
   4   6     0.00  -0.06  -0.00    -0.17   0.01  -0.01     0.65  -0.03   0.03
   5   7     0.03   0.65   0.02     0.67  -0.03   0.03     0.14  -0.01   0.01
