[Molden Format]
[Title]
[Atoms] AU
C      1     6 -0.93671481428073E+00  0.15032347174297E+01 -0.30634749851825E-01
C      2     6  0.14206054698708E+01 -0.31940348093009E-01  0.13450872083131E-01
C      3     6 -0.10038916891854E+01 -0.14595247998332E+01  0.93307898570111E-02
N      4     7  0.36640060933696E+01 -0.82590438342078E-01  0.39331585291810E-01
C      5     6 -0.31440050597742E+01  0.70820868838571E-01 -0.31478497380141E-01
[GTO]
           1 0
 s           4   1.0000000000000000     
   51.049363095579913      -0.16312063210127389     
   8.7911227406887544      -0.19911024581000730     
  0.70640422258929825       0.31882047753655751     
  0.26922813413411617       0.12706504184240380     
 p           4   1.0000000000000000     
   5.8263656140800002       0.73716451545209605     
   1.5106896018720002       0.68216371614850257     
  0.53256483288000001       0.35783053929253711     
  0.21202323690600003        5.3983030275847881E-002

           2 0
 s           4   1.0000000000000000     
   51.049363095579913      -0.16312063210127389     
   8.7911227406887544      -0.19911024581000730     
  0.70640422258929825       0.31882047753655751     
  0.26922813413411617       0.12706504184240380     
 p           4   1.0000000000000000     
   5.8263656140800002       0.73716451545209605     
   1.5106896018720002       0.68216371614850257     
  0.53256483288000001       0.35783053929253711     
  0.21202323690600003        5.3983030275847881E-002

           3 0
 s           4   1.0000000000000000     
   51.049363095579913      -0.16312063210127389     
   8.7911227406887544      -0.19911024581000730     
  0.70640422258929825       0.31882047753655751     
  0.26922813413411617       0.12706504184240380     
 p           4   1.0000000000000000     
   5.8263656140800002       0.73716451545209605     
   1.5106896018720002       0.68216371614850257     
  0.53256483288000001       0.35783053929253711     
  0.21202323690600003        5.3983030275847881E-002

           4 0
 s           4   1.0000000000000000     
   63.594024466941008      -0.19234388414721629     
   10.951417231523665      -0.23478107924953728     
  0.87999310257376984       0.37593753901700888     
  0.33538715296521110       0.14982889271862770     
 p           4   1.0000000000000000     
   7.2965040481495080       0.97658666315667420     
   1.8918745450712575       0.90372226730345739     
  0.66694432110824120       0.47404958461536373     
  0.26552202674130870        7.1516067715011844E-002

           5 0
 s           4   1.0000000000000000     
   51.049363095579913      -0.16312063210127389     
   8.7911227406887544      -0.19911024581000730     
  0.70640422258929825       0.31882047753655751     
  0.26922813413411617       0.12706504184240380     
 p           4   1.0000000000000000     
   5.8263656140800002       0.73716451545209605     
   1.5106896018720002       0.68216371614850257     
  0.53256483288000001       0.35783053929253711     
  0.21202323690600003        5.3983030275847881E-002

[MO]
Sym=     1a
Ene=  -0.75086287512468208     
Spin= Alpha
Occup=     2.00000000
           1 -0.35698619050107078     
           2   2.5890597172265089E-005
           3  0.15965617022364953     
           4  -2.2187217463123850E-003
           5 -0.26657351724241973     
           6  0.14167609935513131     
           7  -3.1874341905915398E-003
           8   1.3773492526180122E-003
           9 -0.35699861501492525     
          10  -7.2042230975417751E-003
          11 -0.15949876503851251     
          12   2.0865232077807369E-003
          13  -3.2739868743052861E-002
          14   4.1064091033429631E-002
          15  -9.2390791009647004E-004
          16   4.3023029633570216E-004
          17 -0.25969634110898854     
          18 -0.13662349756781383     
          19   3.0816909206129819E-003
          20  -1.3149334323678693E-003
Sym=     2a
Ene=  -0.70364757393585264     
Spin= Alpha
Occup=     2.00000000
           1   5.1465613784901075E-002
           2 -0.13979625242473212     
           3  -1.5338011060403818E-002
           4  -1.1894331643042160E-003
           5 -0.45140835599088214     
           6 -0.21734068686924435     
           7   4.9089280108854374E-003
           8  -2.5343674205271630E-003
           9   5.1470393159956551E-002
          10 -0.13896508762853904     
          11   2.1618781330616836E-002
          12  -1.6880190689450875E-003
          13 -0.45300203167637848     
          14  0.21813230524301919     
          15  -4.9232233280251487E-003
          16   2.4886219695367468E-003
          17  0.18176602433409098     
          18   4.6722084748278304E-002
          19  -1.0557453986946789E-003
          20   4.1928350252426678E-004
Sym=     3a
Ene=  -0.64932458360704570     
Spin= Alpha
Occup=     2.00000000
           1   3.0911825934977374E-002
           2  0.30976221031432771     
           3  -1.3483539567077067E-002
           4   3.0457493674717478E-003
           5  0.15234453393291822     
           6 -0.34173821163925305     
           7   7.7413145237658120E-003
           8  -3.8062432919271525E-003
           9   3.0788713767900201E-002
          10  0.31005548392516885     
          11  -4.5271121827331382E-004
          12   2.8699396396274285E-003
          13 -0.35449885491742011     
          14   4.6704771393420982E-002
          15  -1.0510255437723023E-003
          16   5.8776729676203248E-004
          17 -0.42942247343806367     
          18  -3.5633042540181771E-002
          19   8.3261077911558055E-004
          20  -3.3652644772191198E-004
Sym=     4a
Ene=  -0.62109409757500100     
Spin= Alpha
Occup=     2.00000000
           1  0.47691963188173436     
           2   3.6611130329547686E-002
           3  0.16302697882293432     
           4  -1.8448075985671639E-003
           5   3.9790178732193700E-006
           6   8.6713791211866093E-003
           7  0.38071071742788698     
           8  -5.1350693703244429E-003
           9 -0.47693375178147207     
          10  -2.9271664724365352E-002
          11  0.16451461768014178     
          12  -2.5742894108529593E-003
          13   4.7015693775971286E-005
          14   4.0361185881200197E-003
          15  0.17748165522385442     
          16  -2.3939636650231423E-003
          17   6.3239977492610355E-005
          18   5.5582473975374757E-003
          19  0.24533328511509434     
          20  -3.3094199892695153E-003
Sym=     5a
Ene=  -0.57844509817917900     
Spin= Alpha
Occup=     2.00000000
           1   5.9022211699558564E-005
           2   3.5218378332777956E-003
           3  -5.1964030244089606E-003
           4 -0.37666430542625734     
           5   3.6027826280236701E-004
           6   5.2415357495175976E-003
           7  -6.6662539524190399E-003
           8 -0.48537740981416366     
           9   5.8998185750371051E-005
          10   3.5235227420482482E-003
          11  -5.1252498064099277E-003
          12 -0.37667000073965418     
          13   8.1831321486258767E-005
          14   3.5410582627467503E-003
          15  -4.4654278251374715E-003
          16 -0.32508174125380113     
          17   1.0990423485299024E-004
          18   2.3377546815033868E-003
          19  -3.4236181437768791E-003
          20 -0.24987554980421500     
Sym=     6a
Ene=  -0.56383083255875832     
Spin= Alpha
Occup=     2.00000000
           1 -0.15867877668891106     
           2  0.32248782159763079     
           3  -7.1923421688736222E-002
           4   4.0756360074110393E-003
           5   2.7163094018110003E-005
           6   9.3774868041333753E-003
           7  0.41340554599042978     
           8  -5.5765399241009938E-003
           9  0.15870038458676472     
          10 -0.32540833655155293     
          11  -5.7370356092904175E-002
          12  -2.3314785910572870E-003
          13  -5.2697808555511800E-006
          14   7.7429232219305821E-003
          15  0.34035965163412907     
          16  -4.5909401838270863E-003
          17  -1.4305071147712422E-006
          18  -9.0055307289907249E-003
          19 -0.39723469536141115     
          20   5.3584272008736309E-003
Sym=     7a
Ene=  -0.50262476987469340     
Spin= Alpha
Occup=     2.00000000
           1  -6.9194496573643971E-004
           2  -3.1470024848263903E-003
           3   4.2630838026053112E-003
           4  0.31513265222924147     
           5   1.4336966678861324E-003
           6   4.1150518086632091E-003
           7  -4.7868406903851923E-003
           8 -0.34794536567267453     
           9  -6.9207491167604996E-004
          10  -3.1448848578004619E-003
          11   4.3819936759677755E-003
          12  0.31517209460579587     
          13  -3.1272931264380035E-003
          14   4.1211829705920548E-003
          15  -8.2745150794126827E-003
          16 -0.60647408721707097     
          17   1.6498209808628831E-003
          18  -4.8884447318383812E-003
          19   5.5968481296381732E-003
          20  0.40669862563073961     
Sym=     8a
Ene=  -0.49468619623241278     
Spin= Alpha
Occup=     2.00000000
           1  0.15597159170860775     
           2   3.2283938963925160E-002
           3   2.3430863030673741E-002
           4   1.4035467866364724E-003
           5 -0.25233984076920812     
           6  -8.5111682932709445E-002
           7   1.8964771497396956E-003
           8  -2.5788964624475089E-003
           9  0.15599068470175190     
          10   3.1228970008973490E-002
          11  -2.4834845412708917E-002
          12   2.0551906182643574E-003
          13  0.61605117182988389     
          14  0.57198592136817106     
          15  -1.2896346296301899E-002
          16   3.4643361179266794E-003
          17 -0.34727500957950275     
          18  0.26121974886367083     
          19  -5.8468150229874123E-003
          20   4.5252307429520617E-003
Sym=     9a
Ene=  -0.46888956612419086     
Spin= Alpha
Occup=     2.00000000
           1 -0.41381129239560643     
           2   2.1231246003663946E-002
           3 -0.55702730385376920     
           4   7.8632943368323778E-003
           5  -2.0755959017331523E-004
           6  -6.2343409854338866E-002
           7   1.4023467120856232E-003
           8  -7.4872034393674576E-004
           9 -0.41379232199628518     
          10   4.6417136877469657E-002
          11  0.55550512305855992     
          12  -7.1443693048647526E-003
          13  0.10908958953356200     
          14  0.13732999057432621     
          15  -3.0610208613540083E-003
          16   1.5137616993272411E-003
          17   4.9390765195028163E-002
          18  -3.1258334668240947E-002
          19   6.8992951336816280E-004
          20  -2.2837970429930913E-004
Sym=    10a
Ene=  -0.44626636758772648     
Spin= Alpha
Occup=     1.77220109
           1   4.2797816410093288E-003
           2  0.17587446141797367     
           3  0.10422089774257055     
           4   2.5385780887754819E-004
           5   8.3912184868896331E-002
           6 -0.21527206533994209     
           7   4.8188359918346713E-003
           8  -2.5243957264681322E-003
           9   3.8970241471753602E-003
          10  0.17046191094815008     
          11 -0.11175116276871634     
          12   3.1626664667940806E-003
          13  0.23609618110144734     
          14  0.33490914666544686     
          15  -8.2624136141052906E-003
          16   3.9478439734975347E-003
          17  0.54714523258127301     
          18 -0.63775806034287630     
          19   1.4112336750219267E-002
          20  -5.9665189705281505E-003
Sym=    11a
Ene=  -0.44394677836054708     
Spin= Alpha
Occup=     1.22779891
           1  0.21930874042120757     
           2  0.29500440433456127     
           3  0.15854128281130900     
           4   4.2651128209009203E-004
           5  -8.4129311343305446E-005
           6  -2.5200620970773803E-004
           7  -1.8899977644496035E-002
           8   2.5699587549804970E-004
           9 -0.21933805869373710     
          10 -0.28785575360561549     
          11  0.17187911475440615     
          12  -4.8869509447045240E-003
          13  -1.5555856663599057E-004
          14  -1.7858996718112547E-002
          15 -0.77411282167165163     
          16   1.0438737986674513E-002
          17  -5.0916835023764341E-004
          18  -6.2211572997382227E-003
          19 -0.30075915525825675     
          20   4.0624339561998492E-003
Sym=    12a
Ene=  -0.36254446287145259     
Spin= Alpha
Occup=     0.00000000
           1  -9.2812478976640744E-005
           2  -7.1204368742272643E-003
           3   1.0288299345357257E-002
           4  0.75985087445845401     
           5  -4.3999026112801440E-008
           6   3.6946657351582747E-006
           7   1.9882474677190135E-004
           8   7.2022927464145776E-005
           9   9.2819686193021560E-005
          10   7.1142762680608523E-003
          11  -1.0533197347900926E-002
          12 -0.75978029197377306     
          13   7.4282870097388565E-010
          14  -9.7496271550495736E-006
          15  -4.9149185036141631E-004
          16  -1.1441461053287106E-004
          17   8.4983338612065676E-009
          18   3.9079146725789015E-006
          19   1.3765039231662776E-004
          20  -8.9130082893801099E-005
Sym=    13a
Ene=  -0.33121455464240668     
Spin= Alpha
Occup=     0.00000000
           1   5.1047855923822142E-005
           2  -2.0199349161624620E-003
           3   3.1396957927629409E-003
           4  0.23256224669743850     
           5  -3.1960469742799960E-004
           6  -4.6721610726243546E-003
           7   6.0407615879797000E-003
           8  0.43996858717969084     
           9   5.1017991872658385E-005
          10  -2.0203124336059244E-003
          11   3.2294522361967270E-003
          12  0.23280777283020407     
          13  -7.1793726399113218E-005
          14   6.3718427599820148E-003
          15  -7.8092464344222332E-003
          16 -0.56821741721446328     
          17   4.2325722967254021E-005
          18   6.7392524833443440E-003
          19  -1.0342588702670316E-002
          20 -0.75539537062683071     
Sym=    14a
Ene=  -0.26066313022520665     
Spin= Alpha
Occup=     0.00000000
           1  0.14406507100479740     
           2  -6.2043609123805715E-002
           3  0.52116563540026151     
           4  -7.3573534850624811E-003
           5  -2.7589684590056349E-005
           6  -1.2490216539667712E-002
           7 -0.55036929778938726     
           8   7.4241009316781343E-003
           9 -0.14403194851953716     
          10   8.5609989108043988E-002
          11  0.51781309809818277     
          12  -6.6578227391913911E-003
          13  -6.8230769049965487E-006
          14   1.0549457727892834E-002
          15  0.46492646241284846     
          16  -6.2715620588209469E-003
          17  -1.9508846009608469E-006
          18  -1.1536775205136124E-002
          19 -0.50785627186529214     
          20   6.8505549434179714E-003
Sym=    15a
Ene=  -0.20033462754622161     
Spin= Alpha
Occup=     0.00000000
           1  -3.4077363203074848E-004
           2  -4.5835267777001717E-003
           3   6.3611498787610327E-003
           4  0.44573747249260021     
           5   1.1835895387723313E-003
           6   7.6857440801448131E-003
           7  -1.0323562557239534E-002
           8 -0.75238449880161851     
           9  -3.4078981624151332E-004
          10  -4.5940538303475458E-003
          11   5.8719822076856469E-003
          12  0.44569445284517301     
          13  -6.0556401256929858E-005
          14  -5.1620474000674543E-003
          15   7.1233855152920723E-003
          16  0.51939362062778993     
          17   6.5691642861256353E-006
          18   5.3850716459970770E-003
          19  -7.1502295984322518E-003
          20 -0.52100878081042834     
Sym=    16a
Ene=    7.1331627084646743E-002
Spin= Alpha
Occup=     0.00000000
           1  0.41943542906584297     
           2  0.36639995690198623     
           3 -0.28286649628033517     
           4   7.8970722438975564E-003
           5  -1.0377523849421397     
           6  0.38763339475904607     
           7  -8.2433740715957774E-003
           8   2.6732828184210366E-003
           9  0.41992649328995829     
          10  0.37943048520611550     
          11  0.26661516485423492     
          12   4.9041914455705748E-004
          13  0.18484086452267656     
          14 -0.45274745743835737     
          15   1.0013583203130012E-002
          16  -4.4695567954355225E-003
          17  -9.0497396243205283E-002
          18 -0.34601468441706995     
          19   7.6695502916718809E-003
          20  -3.6958938459896711E-003
Sym=    17a
Ene=    9.7007135787698262E-002
Spin= Alpha
Occup=     0.00000000
           1  0.49450125545232343     
           2  0.47501094744080902     
           3 -0.53532739484290359     
           4   1.1934291668538681E-002
           5  -6.4730485439633669E-004
           6  -1.7671886194734660E-002
           7 -0.78553837725670606     
           8   1.0596873126159506E-002
           9 -0.49398948432861572     
          10 -0.49844026791385532     
          11 -0.51309173272333997     
          12   2.2120604836205851E-003
          13   1.5436554230502440E-004
          14   6.9621933097390263E-003
          15  0.32061492426697663     
          16  -4.3278852940949030E-003
          17  -1.0366522735979023E-004
          18   2.9897084881255372E-003
          19  0.14237586640701785     
          20  -1.9229819851586168E-003
Sym=    18a
Ene=   0.17076990551726615     
Spin= Alpha
Occup=     0.00000000
           1 -0.49854748444997943     
           2  0.58869024771751022     
           3  0.45481077044041091     
           4  -7.1720632565142473E-004
           5  -8.5736340441788144E-005
           6  -5.3425545575963391E-003
           7 -0.23654734151101692     
           8   3.1910075388219654E-003
           9  0.49854612843721924     
          10 -0.56733393436834845     
          11  0.48083565955598162     
          12  -1.1902614628967174E-002
          13   1.2092767462614019E-005
          14   1.6533612954411391E-003
          15   7.4070604220982564E-002
          16  -9.9942348628310790E-004
          17   5.4608012944867112E-005
          18   1.9290936345969342E-002
          19  0.84889258711461080     
          20  -1.1450569042422041E-002
Sym=    19a
Ene=   0.39956376469698696     
Spin= Alpha
Occup=     0.00000000
           1 -0.34657398521050486     
           2  0.66989201456080061     
           3  0.21775287067409901     
           4   3.2660044469718539E-003
           5 -0.22975539421656863     
           6  0.19990284915995341     
           7  -4.5425643725573771E-003
           8   2.1863869293783250E-003
           9 -0.34675824505786940     
          10  0.65938007148427502     
          11 -0.24784947190035564     
          12   9.5470421263585785E-003
          13  -5.3667873614951754E-002
          14   2.8299000596607650E-002
          15  -6.2408970588367376E-004
          16   3.3924359945119466E-004
          17  0.90488685256133783     
          18  0.90832950495430997     
          19  -2.0540826886999309E-002
          20   8.6905911146176375E-003
Sym=    20a
Ene=   0.85176858495284480     
Spin= Alpha
Occup=     0.00000000
           1 -0.28858673687805009     
           2 -0.15357737682170577     
           3  0.18890147189643666     
           4  -3.8984547952776358E-003
           5 -0.48867370968997437     
           6  -1.3209070087186263     
           7   2.9862105415114526E-002
           8  -1.4739783470079667E-002
           9 -0.28847846547751788     
          10 -0.16185561345480523     
          11 -0.18172708667566653     
          12   1.1022404150730621E-003
          13  0.90123002263246654     
          14 -0.91998540205905333     
          15   2.0760330421978633E-002
          16  -1.0750650722638443E-002
          17   7.7453121328062938E-002
          18  0.14134694297065367     
          19  -3.2040763188214520E-003
          20   1.2981502551964116E-003
