      -----------------------------------------------------------      
     |                   =====================                   |     
     |                           x T B                           |     
     |                   =====================                   |     
     |                         S. Grimme                         |     
     |          Mulliken Center for Theoretical Chemistry        |     
     |                    University of Bonn                     |     
      -----------------------------------------------------------      

   * xtb version 6.2.2 (9d81278992624c895f80dd42a50cac0aa55982e2) compiled by '@Darwin' on 04/03/2020

   xtb is free software: you can redistribute it and/or modify it under
   the terms of the GNU Lesser General Public License as published by
   the Free Software Foundation, either version 3 of the License, or
   (at your option) any later version.
   
   xtb is distributed in the hope that it will be useful,
   but WITHOUT ANY WARRANTY; without even the implied warranty of
   MERCHANTABILITY or FITNESS FOR A PARTICULAR PURPOSE.  See the
   GNU Lesser General Public License for more details.
   
   Cite this work as:
   * S. Grimme, C. Bannwarth, P. Shushkov, J. Chem. Theory Comput., 2017,
     13, 1989-2009. DOI: 10.1021/acs.jctc.7b00118
   * C. Bannwarth, S. Ehlert and S. Grimme., J. Chem. Theory Comput., 2019,
     15, 1652-1671. DOI: 10.1021/acs.jctc.8b01176
   * P. Pracht, E. Caldeweyher, S. Ehlert, S. Grimme, ChemRxiv, 2019, preprint.
     DOI: 10.26434/chemrxiv.8326202.v1
   
   for DFT-D4:
   * E. Caldeweyher, C. Bannwarth and S. Grimme, J. Chem. Phys., 2017,
     147, 034112. DOI: 10.1063/1.4993215
   * E. Caldeweyher, S. Ehlert, A. Hansen, H. Neugebauer, S. Spicher,
     C. Bannwarth and S. Grimme, J. Chem. Phys., 2019, 150, 154122.
     DOI: 10.1063/1.5090222
   
   for sTDA-xTB:
   * S. Grimme and C. Bannwarth, J. Chem. Phys., 2016, 145, 054103.
     DOI: 10.1063/1.4959605
   
   in the mass-spec context:
   * V. Asgeirsson, C. Bauer and S. Grimme, Chem. Sci., 2017, 8, 4879.
     DOI: 10.1039/c7sc00601b
   
   for metadynamics refer to:
   * S. Grimme, J. Chem. Theory Comput., 2019, 155, 2847-2862
     DOI: 10.1021/acs.jctc.9b00143
   
   with help from (in alphabetical order)
   C. Bannwarth, F. Bohle, G. Brandenburg, E. Caldeweyher, M. Checinski,
   S. Dohm, S. Ehlert, S. Ehrlich, F. März, H. Neugebauer, J. Pisarek,
   P. Pracht, P. Shushkov, and S. Spicher.
   
 * started run on 2020/05/12 at 11:44:05.256     

           -------------------------------------------------
          |                Calculation Setup                |
           -------------------------------------------------

          program call               : xtb --input C4N1_17_S_1.input C4N1_17_S_1.xyz --ohess --molden --namespace C4N1_17_S_1 output.out
          calculation namespace      : C4N1_17_S_1
          coordinate file            : C4N1_17_S_1.xyz
          number of atoms            :                     5
          number of electrons        :                    21
          charge                     :                     0
          spin                       :                   0.5
          first test random number   :      0.16073504607328

   ID    Z sym.   atoms
    1    6 C      1-3, 5
    2    7 N      4

           -------------------------------------------------
          |                 G F N 2 - x T B                 |
           -------------------------------------------------

        Reference                      10.1021/acs.jctc.8b01176
      * Hamiltonian:
        H0-scaling (s, p, d)           1.850000    2.230000    2.230000
        zeta-weighting                 0.500000
      * Dispersion:
        s8                             2.700000
        a1                             0.520000
        a2                             5.000000
        s9                             5.000000
      * Repulsion:
        kExp                           1.500000    1.000000
        rExp                           1.000000
      * Coulomb:
        alpha                          2.000000
        third order                    shell-resolved
        anisotropic                    true
        a3                             3.000000
        a5                             4.000000
        cn-shift                       1.200000
        cn-exp                         4.000000
        max-rad                        5.000000


          ...................................................
          :                      SETUP                      :
          :.................................................:
          :  # basis functions                  20          :
          :  # atomic orbitals                  20          :
          :  # shells                           10          :
          :  # electrons                        21          :
          :  max. iterations                   250          :
          :  Hamiltonian                  GFN2-xTB          :
          :  restarted?                      false          :
          :  GBSA solvation                  false          :
          :  PC potential                    false          :
          :  electronic temp.          300.0000000     K    :
          :  accuracy                    1.0000000          :
          :  -> integral cutoff          0.2500000E+02      :
          :  -> integral neglect         0.1000000E-07      :
          :  -> SCF convergence          0.1000000E-05 Eh   :
          :  -> wf. convergence          0.1000000E-03 e    :
          :  Broyden damping             0.4000000          :
          ...................................................

 iter      E             dE          RMSdq      gap      omega  full diag
   1    -10.5848764 -0.105849E+02  0.118E+01    0.45       0.0  T
   2     -8.9524214  0.163246E+01  0.165E+01    0.27       1.0  T
   3    -10.8560227 -0.190360E+01  0.690E+00    1.28       1.0  T
   4    -10.8138320  0.421907E-01  0.654E+00    0.09       1.0  T
   5    -10.9872265 -0.173394E+00  0.268E+00    0.86       1.0  T
   6    -10.8874843  0.997422E-01  0.410E+00    0.56       1.0  T
   7    -10.9876638 -0.100180E+00  0.199E+00    0.65       1.0  T
   8    -11.0103879 -0.227240E-01  0.508E-01    0.64       1.0  T
   9    -10.9910840  0.193039E-01  0.169E+00    0.64       1.0  T
  10    -11.0109382 -0.198543E-01  0.129E-01    0.61       1.0  T
  11    -11.0109279  0.103431E-04  0.979E-02    0.61       1.0  T
  12    -11.0109444 -0.164642E-04  0.792E-02    0.61       1.0  T
  13    -11.0109867 -0.423867E-04  0.243E-02    0.61       1.8  T
  14    -11.0109868 -0.359939E-07  0.186E-02    0.61       2.4  T
  15    -11.0109883 -0.152892E-05  0.289E-03    0.61      15.5  T
  16    -11.0109883 -0.259347E-07  0.208E-03    0.61      21.5  T
  17    -11.0109883  0.279688E-07  0.258E-03    0.61      17.4  T
  18    -11.0109883 -0.396038E-07  0.577E-04    0.61      77.5  T
  19    -11.0109883 -0.130227E-08  0.288E-04    0.61     155.0  T

   *** convergence criteria satisfied after 19 iterations ***

         #    Occupation            Energy/Eh            Energy/eV
      -------------------------------------------------------------
         1        2.0000           -0.7396686             -20.1274
       ...           ...                  ...                  ...
         5        2.0000           -0.5670334             -15.4298
         6        2.0000           -0.5435546             -14.7909
         7        2.0000           -0.5195652             -14.1381
         8        2.0000           -0.5054167             -13.7531
         9        1.9997           -0.4531105             -12.3298
        10        1.9208           -0.4478092             -12.1855
        11        1.0795           -0.4431521             -12.0588 (HOMO)
        12        0.0000           -0.4205685             -11.4443 (LUMO)
        13                         -0.4009776             -10.9112
        14                         -0.3722312             -10.1289
        15                         -0.2968147              -8.0767
        16                         -0.0203745              -0.5544
       ...                                ...                  ...
        20                          0.2575390               7.0080
      -------------------------------------------------------------
                  HL-Gap            0.0225836 Eh            0.6145 eV
             Fermi-level           -0.4386676 Eh          -11.9368 eV

 SCC (total)                   0 d,  0 h,  0 min,  0.005 sec
 SCC setup                      ...        0 min,  0.000 sec (  1.323%)
 Dispersion                     ...        0 min,  0.000 sec (  0.276%)
 integral evaluation            ...        0 min,  0.002 sec ( 33.031%)
 zeroth order Hamiltonian       ...        0 min,  0.000 sec (  0.329%)
 iterations                     ...        0 min,  0.002 sec ( 34.955%)
 molecular gradient             ...        0 min,  0.001 sec ( 27.374%)
 printout                       ...        0 min,  0.000 sec (  2.555%)

         :::::::::::::::::::::::::::::::::::::::::::::::::::::
         ::                     SUMMARY                     ::
         :::::::::::::::::::::::::::::::::::::::::::::::::::::
         :: total energy             -10.940199285313 Eh    ::
         :: gradient norm              0.324808592997 Eh/a0 ::
         :: HOMO-LUMO gap              0.614530779599 eV    ::
         ::.................................................::
         :: SCC energy               -11.010988340954 Eh    ::
         :: -> isotropic ES           -0.001767711335 Eh    ::
         :: -> anisotropic ES         -0.000352594611 Eh    ::
         :: -> anisotropic XC          0.010436437957 Eh    ::
         :: -> dispersion             -0.002882185815 Eh    ::
         :: repulsion energy           0.070788981570 Eh    ::
         :: add. restraining           0.000000000000 Eh    ::
         :::::::::::::::::::::::::::::::::::::::::::::::::::::

      ----------------------------------------------------------- 
     |                   =====================                   |
     |                        A N C O P T                        |
     |                   =====================                   |
     |               Approximate Normal Coordinate               |
     |                Rational Function Optimizer                |
      ----------------------------------------------------------- 

          ...................................................
          :                      SETUP                      :
          :.................................................:
          :   optimization level            normal          :
          :   max. optcycles                   200          :
          :   ANC micro-cycles                  20          :
          :   degrees of freedom                 9          :
          :.................................................:
          :   RF solver                   davidson          :
          :   write xtbopt.log                true          :
          :   linear?                        false          :
          :   energy convergence         0.5000000E-05 Eh   :
          :   grad. convergence          0.1000000E-02 Eh/α :
          :   maximium RF displ.         1.0000000          :
          :   Hlow (freq-cutoff)         0.1000000E-01      :
          :   Hmax (freq-cutoff)         5.0000000          :
          :   S6 in model hess.         20.0000000          :
          ...................................................

generating ANC from model Hessian ...
Using Lindh-Hessian (1995)
 Shifting diagonal of input Hessian by    0.0000000000000000     
 Lowest  eigenvalues of input Hessian
   -0.000000   -0.000000    0.000000    0.000000    0.000000    0.000000
    0.018391    0.080088    0.102544    0.219311    0.749946    0.824032
    0.890294    0.901848    1.166970
 Highest eigenvalues
    0.219311    0.749946    0.824032    0.890294    0.901848    1.166970


........................................................................
.............................. CYCLE    1 ..............................
........................................................................
   1    -11.0109883 -0.110110E+02  0.277E-05    0.61       0.0  T
   2    -11.0109883  0.171232E-09  0.153E-04    0.61     292.8  T
   3    -11.0109883 -0.170324E-09  0.253E-05    0.61    1768.1  T
     SCC iter.                  ...        0 min,  0.000 sec
     gradient                   ...        0 min,  0.001 sec
 * total energy  :   -10.9401993 Eh     change       -0.1138993E-08 Eh
   gradient norm :     0.3248084 Eh/α   predicted     0.0000000E+00 (-100.00%)
   displ. norm   :     0.4249203 α      lambda       -0.1150013E+00
   maximum displ.:     0.2172615 α      in ANC's #5, #3, #1, ...

........................................................................
.............................. CYCLE    2 ..............................
........................................................................
   1    -11.1524525 -0.111525E+02  0.244E+00    0.99       0.0  T
   2    -11.1379460  0.145065E-01  0.234E+00    1.41       1.0  T
   3    -11.1423646 -0.441866E-02  0.189E+00    1.07       1.0  T
   4    -11.1317351  0.106295E-01  0.190E+00    0.87       1.0  T
   5    -11.1580418 -0.263067E-01  0.287E-01    1.15       1.0  T
   6    -11.1584536 -0.411778E-03  0.148E-01    1.11       1.0  T
   7    -11.1585279 -0.743382E-04  0.603E-02    1.12       1.0  T
   8    -11.1585426 -0.146318E-04  0.987E-03    1.12       4.5  T
   9    -11.1585426 -0.681014E-07  0.337E-03    1.12      13.3  T
  10    -11.1585427 -0.241401E-07  0.116E-03    1.12      38.5  T
  11    -11.1585427  0.714594E-08  0.123E-03    1.12      36.5  T
  12    -11.1585427 -0.129807E-07  0.866E-05    1.12     516.4  T
  13    -11.1585427  0.300560E-11  0.517E-05    1.12     865.3  T
     SCC iter.                  ...        0 min,  0.001 sec
     gradient                   ...        0 min,  0.001 sec
 * total energy  :   -11.0372572 Eh     change       -0.9705790E-01 Eh
   gradient norm :     0.2109018 Eh/α   predicted    -0.6788279E-01 ( -30.06%)
   displ. norm   :     0.5717109 α      lambda       -0.1072740E+00
   maximum displ.:     0.3071255 α      in ANC's #5, #7, #9, ...

........................................................................
.............................. CYCLE    3 ..............................
........................................................................
   1    -11.3723544 -0.113724E+02  0.359E+00    0.83       0.0  T
   2    -11.3706642  0.169021E-02  0.220E+00    0.91       1.0  T
   3    -11.3377411  0.329231E-01  0.243E+00    0.92       1.0  T
   4    -11.3754013 -0.376601E-01  0.573E-01    0.75       1.0  T
   5    -11.3774337 -0.203247E-02  0.152E-01    0.87       1.0  T
   6    -11.3775109 -0.771737E-04  0.741E-02    0.85       1.0  T
   7    -11.3775295 -0.185849E-04  0.371E-02    0.86       1.2  T
   8    -11.3775313 -0.184620E-05  0.383E-03    0.85      11.7  T
   9    -11.3775313 -0.808518E-09  0.123E-03    0.85      36.3  T
  10    -11.3775313 -0.713169E-08  0.469E-04    0.85      95.3  T
  11    -11.3775313 -0.521744E-09  0.320E-04    0.85     139.7  T
     SCC iter.                  ...        0 min,  0.001 sec
     gradient                   ...        0 min,  0.001 sec
 * total energy  :   -11.0219455 Eh     change        0.1531164E-01 Eh
   gradient norm :     0.6081316 Eh/α   predicted    -0.7116845E-01 (-564.80%)
   displ. norm   :     0.3470996 α      lambda       -0.1607487E+00
   maximum displ.:     0.2689494 α      in ANC's #3, #9, #1, ...

........................................................................
.............................. CYCLE    4 ..............................
........................................................................
   1    -11.2500531 -0.112501E+02  0.213E+00    0.84       0.0  T
   2    -11.1351034  0.114950E+00  0.406E+00    1.04       1.0  T
   3    -11.2583261 -0.123223E+00  0.109E+00    0.92       1.0  T
   4    -11.2602769 -0.195085E-02  0.699E-01    0.88       1.0  T
   5    -11.2616856 -0.140872E-02  0.305E-01    1.00       1.0  T
   6    -11.2620424 -0.356745E-03  0.196E-01    0.94       1.0  T
   7    -11.2621758 -0.133434E-03  0.231E-02    0.95       1.9  T
   8    -11.2621798 -0.394518E-05  0.733E-03    0.95       6.1  T
   9    -11.2621796  0.112885E-06  0.581E-03    0.95       7.7  T
  10    -11.2621799 -0.241591E-06  0.125E-03    0.95      35.7  T
  11    -11.2621799 -0.793351E-08  0.750E-04    0.95      59.6  T
  12    -11.2621799 -0.366688E-08  0.726E-05    0.95     615.9  T
     SCC iter.                  ...        0 min,  0.001 sec
     gradient                   ...        0 min,  0.001 sec
 * total energy  :   -11.0759973 Eh     change       -0.5405175E-01 Eh
   gradient norm :     0.1336956 Eh/α   predicted    -0.9005769E-01 (  66.61%)
   displ. norm   :     0.2351672 α      lambda       -0.1520510E-01
   maximum displ.:     0.1822045 α      in ANC's #1, #4, #7, ...

........................................................................
.............................. CYCLE    5 ..............................
........................................................................
   1    -11.2411213 -0.112411E+02  0.140E+00    1.32       0.0  T
   2    -11.2211179  0.200034E-01  0.211E+00    1.34       1.0  T
   3    -11.2457228 -0.246049E-01  0.623E-01    1.40       1.0  T
   4    -11.2441251  0.159769E-02  0.572E-01    1.24       1.0  T
   5    -11.2457488 -0.162372E-02  0.180E-01    1.39       1.0  T
   6    -11.2460901 -0.341341E-03  0.374E-02    1.36       1.2  T
   7    -11.2460891  0.103264E-05  0.288E-02    1.36       1.6  T
   8    -11.2460934 -0.429612E-05  0.830E-03    1.36       5.4  T
   9    -11.2460937 -0.350189E-06  0.177E-03    1.36      25.3  T
  10    -11.2460937  0.124180E-07  0.158E-03    1.36      28.4  T
  11    -11.2460937 -0.194945E-07  0.239E-04    1.36     187.4  T
  12    -11.2460937 -0.121753E-09  0.287E-05    1.36    1556.4  T
     SCC iter.                  ...        0 min,  0.001 sec
     gradient                   ...        0 min,  0.001 sec
 * total energy  :   -11.0796494 Eh     change       -0.3652101E-02 Eh
   gradient norm :     0.0699967 Eh/α   predicted    -0.8023006E-02 ( 119.68%)
   displ. norm   :     0.4117171 α      lambda       -0.1139894E-01
   maximum displ.:     0.3787895 α      in ANC's #1, #5, #3, ...

........................................................................
.............................. CYCLE    6 ..............................
........................................................................
   1    -11.2686878 -0.112687E+02  0.194E+00    1.68       0.0  T
   2    -11.2561163  0.125715E-01  0.161E+00    1.30       1.0  T
   3    -11.1674521  0.886642E-01  0.467E+00    1.59       1.0  T
   4    -11.2495109 -0.820589E-01  0.205E+00    1.71       1.0  T
   5    -11.2707965 -0.212855E-01  0.478E-01    1.52       1.0  T
   6    -11.2683227  0.247371E-02  0.816E-01    1.51       1.0  T
   7    -11.2706431 -0.232032E-02  0.431E-01    1.52       1.0  T
   8    -11.2711243 -0.481235E-03  0.155E-01    1.54       1.0  T
   9    -11.2710956  0.286532E-04  0.125E-01    1.55       1.0  T
  10    -11.2711791 -0.834440E-04  0.205E-02    1.55       2.2  T
  11    -11.2711803 -0.124300E-05  0.169E-02    1.55       2.6  T
  12    -11.2711776  0.271675E-05  0.305E-02    1.55       1.5  T
  13    -11.2711810 -0.335730E-05  0.185E-03    1.55      24.1  T
  14    -11.2711810 -0.872822E-08  0.433E-04    1.55     103.3  T
  15    -11.2711810 -0.107684E-08  0.375E-05    1.55    1193.2  T
     SCC iter.                  ...        0 min,  0.001 sec
     gradient                   ...        0 min,  0.002 sec
 * total energy  :   -11.0868454 Eh     change       -0.7196016E-02 Eh
   gradient norm :     0.0272247 Eh/α   predicted    -0.6665587E-02 (  -7.37%)
   displ. norm   :     0.3286829 α      lambda       -0.4320875E-02
   maximum displ.:     0.2652838 α      in ANC's #1, #3, #4, ...

........................................................................
.............................. CYCLE    7 ..............................
........................................................................
   1    -11.2349671 -0.112350E+02  0.377E+00    1.83       0.0  T
   2    -10.9877450  0.247222E+00  0.586E+00    0.94       1.0  T
   3    -11.2247256 -0.236981E+00  0.309E+00    1.77       1.0  T
   4    -11.2385589 -0.138333E-01  0.312E+00    1.82       1.0  T
   5    -11.2411813 -0.262245E-02  0.295E+00    1.82       1.0  T
   6    -11.2327289  0.845247E-02  0.330E+00    1.79       1.0  T
   7    -11.2605803 -0.278514E-01  0.182E+00    1.85       1.0  T
   8    -11.2715666 -0.109864E-01  0.256E-01    1.87       1.0  T
   9    -11.2713738  0.192796E-03  0.295E-01    1.87       1.0  T
  10    -11.2700680  0.130586E-02  0.682E-01    1.86       1.0  T
  11    -11.2714883 -0.142034E-02  0.280E-01    1.87       1.0  T
  12    -11.2717651 -0.276820E-03  0.233E-02    1.87       1.9  T
  13    -11.2717647  0.471076E-06  0.243E-02    1.87       1.8  T
  14    -11.2717636  0.108873E-05  0.289E-02    1.87       1.5  T
  15    -11.2717637 -0.167118E-06  0.269E-02    1.87       1.7  T
  16    -11.2717662 -0.244283E-05  0.745E-03    1.87       6.0  T
  17    -11.2717664 -0.197740E-06  0.671E-04    1.87      66.7  T
  18    -11.2717664  0.134495E-08  0.894E-04    1.87      50.0  T
     SCC iter.                  ...        0 min,  0.002 sec
     gradient                   ...        0 min,  0.001 sec
 * total energy  :   -11.0905254 Eh     change       -0.3679937E-02 Eh
   gradient norm :     0.0264380 Eh/α   predicted    -0.2393825E-02 ( -34.95%)
   displ. norm   :     0.7344937 α      lambda       -0.8958666E-02
   maximum displ.:     0.6479118 α      in ANC's #1, #4, #5, ...

........................................................................
.............................. CYCLE    8 ..............................
........................................................................
   1    -11.2328639 -0.112329E+02  0.407E+00    2.21       0.0  T
   2    -11.0966622  0.136202E+00  0.477E+00    2.33       1.0  T
   3    -11.2056679 -0.109006E+00  0.336E+00    2.06       1.0  T
   4    -11.2278335 -0.221656E-01  0.190E+00    2.21       1.0  T
   5    -11.2335345 -0.570100E-02  0.146E+00    2.19       1.0  T
   6    -11.2355823 -0.204774E-02  0.131E+00    2.25       1.0  T
   7    -11.2357919 -0.209615E-03  0.128E+00    2.25       1.0  T
   8    -11.2408547 -0.506279E-02  0.493E-01    2.34       1.0  T
   9    -11.2417422 -0.887570E-03  0.824E-02    2.37       1.0  T
  10    -11.2417404  0.178371E-05  0.814E-02    2.38       1.0  T
  11    -11.2417676 -0.271233E-04  0.230E-02    2.37       1.9  T
  12    -11.2417689 -0.136119E-05  0.117E-02    2.37       3.8  T
  13    -11.2417692 -0.278058E-06  0.989E-03    2.37       4.5  T
  14    -11.2417696 -0.394667E-06  0.265E-03    2.37      16.8  T
  15    -11.2417696 -0.322437E-07  0.220E-04    2.37     203.3  T
  16    -11.2417696 -0.191799E-09  0.787E-05    2.37     567.9  T
     SCC iter.                  ...        0 min,  0.001 sec
     gradient                   ...        0 min,  0.001 sec
 * total energy  :   -11.0783127 Eh     change        0.1221263E-01 Eh
   gradient norm :     0.1346597 Eh/α   predicted    -0.6895849E-02 (-156.46%)
   displ. norm   :     0.4523499 α      lambda       -0.3746190E-01
   maximum displ.:     0.3680138 α      in ANC's #1, #4, #5, ...

........................................................................
.............................. CYCLE    9 ..............................
........................................................................
   1    -11.2607478 -0.112607E+02  0.304E+00    2.48       0.0  T
   2    -11.0651203  0.195627E+00  0.582E+00    1.72       1.0  T
   3    -11.2612197 -0.196099E+00  0.199E+00    1.97       1.0  T
   4    -11.2688529 -0.763324E-02  0.118E+00    2.42       1.0  T
   5    -11.2753242 -0.647124E-02  0.186E-01    2.24       1.0  T
   6    -11.2753642 -0.400349E-04  0.123E-01    2.24       1.0  T
   7    -11.2753409  0.233153E-04  0.901E-02    2.24       1.0  T
   8    -11.2753726 -0.317235E-04  0.723E-02    2.23       1.0  T
   9    -11.2753675  0.507854E-05  0.782E-02    2.23       1.0  T
  10    -11.2753891 -0.216144E-04  0.154E-02    2.23       2.9  T
  11    -11.2753708  0.183736E-04  0.732E-02    2.23       1.0  T
  12    -11.2753888 -0.180472E-04  0.209E-02    2.23       2.1  T
  13    -11.2753905 -0.164408E-05  0.255E-03    2.23      17.5  T
  14    -11.2753905 -0.137262E-07  0.148E-03    2.23      30.2  T
  15    -11.2753905 -0.751511E-08  0.172E-04    2.23     259.5  T
  16    -11.2753905 -0.108672E-09  0.302E-05    2.23    1480.7  T
     SCC iter.                  ...        0 min,  0.002 sec
     gradient                   ...        0 min,  0.001 sec
 * total energy  :   -11.0934131 Eh     change       -0.1510034E-01 Eh
   gradient norm :     0.0174467 Eh/α   predicted    -0.2256370E-01 (  49.43%)
   displ. norm   :     0.0295402 α      lambda       -0.4291545E-03
   maximum displ.:     0.0187725 α      in ANC's #7, #3, #1, ...

........................................................................
.............................. CYCLE   10 ..............................
........................................................................
   1    -11.2812094 -0.112812E+02  0.118E-01    2.26       0.0  T
   2    -11.2812066  0.272970E-05  0.948E-02    2.24       1.0  T
   3    -11.2809500  0.256652E-03  0.238E-01    2.26       1.0  T
   4    -11.2810102 -0.602209E-04  0.199E-01    2.25       1.0  T
   5    -11.2812201 -0.209853E-03  0.129E-02    2.25       3.5  T
   6    -11.2812206 -0.503026E-06  0.610E-03    2.24       7.3  T
   7    -11.2812207 -0.144255E-06  0.199E-03    2.24      22.4  T
   8    -11.2812207 -0.358341E-08  0.176E-03    2.24      25.4  T
   9    -11.2812207 -0.134897E-07  0.105E-03    2.24      42.6  T
  10    -11.2812207 -0.423017E-08  0.257E-04    2.24     174.2  T
  11    -11.2812207 -0.223737E-09  0.127E-04    2.24     353.5  T
     SCC iter.                  ...        0 min,  0.001 sec
     gradient                   ...        0 min,  0.002 sec
 * total energy  :   -11.0936699 Eh     change       -0.2568296E-03 Eh
   gradient norm :     0.0054046 Eh/α   predicted    -0.2147655E-03 ( -16.38%)
   displ. norm   :     0.0654039 α      lambda       -0.3181855E-03
   maximum displ.:     0.0586518 α      in ANC's #1, #4, #7, ...

........................................................................
.............................. CYCLE   11 ..............................
........................................................................
   1    -11.2792646 -0.112793E+02  0.233E-01    2.23       0.0  T
   2    -11.2789137  0.350881E-03  0.310E-01    2.19       1.0  T
   3    -11.2771961  0.171757E-02  0.648E-01    2.22       1.0  T
   4    -11.2790710 -0.187485E-02  0.200E-01    2.23       1.0  T
   5    -11.2792856 -0.214646E-03  0.358E-02    2.21       1.3  T
   6    -11.2792772  0.843846E-05  0.530E-02    2.21       1.0  T
   7    -11.2792879 -0.107000E-04  0.182E-02    2.21       2.5  T
   8    -11.2792892 -0.131459E-05  0.640E-03    2.21       7.0  T
   9    -11.2792894 -0.218785E-06  0.138E-03    2.21      32.4  T
  10    -11.2792894 -0.160388E-08  0.995E-04    2.21      45.0  T
  11    -11.2792894 -0.285983E-08  0.514E-04    2.21      87.0  T
     SCC iter.                  ...        0 min,  0.001 sec
     gradient                   ...        0 min,  0.001 sec
 * total energy  :   -11.0938675 Eh     change       -0.1975984E-03 Eh
   gradient norm :     0.0146892 Eh/α   predicted    -0.1597745E-03 ( -19.14%)
   displ. norm   :     0.0647246 α      lambda       -0.2169639E-03
   maximum displ.:     0.0601677 α      in ANC's #1, #7, #9, ...

........................................................................
.............................. CYCLE   12 ..............................
........................................................................
   1    -11.2794003 -0.112794E+02  0.237E-01    2.23       0.0  T
   2    -11.2742576  0.514275E-02  0.101E+00    2.26       1.0  T
   3    -11.2790256 -0.476799E-02  0.319E-01    2.23       1.0  T
   4    -11.2794474 -0.421779E-03  0.307E-02    2.23       1.5  T
   5    -11.2794307  0.166410E-04  0.651E-02    2.23       1.0  T
   6    -11.2794426 -0.119246E-04  0.404E-02    2.23       1.1  T
   7    -11.2794472 -0.454413E-05  0.198E-02    2.23       2.3  T
   8    -11.2794483 -0.111782E-05  0.123E-02    2.23       3.6  T
   9    -11.2794489 -0.575126E-06  0.555E-03    2.23       8.1  T
  10    -11.2794490 -0.986301E-07  0.234E-03    2.23      19.1  T
  11    -11.2794490 -0.191939E-07  0.915E-04    2.23      48.9  T
  12    -11.2794490 -0.338620E-08  0.227E-05    2.23    1967.9  T
     SCC iter.                  ...        0 min,  0.001 sec
     gradient                   ...        0 min,  0.001 sec
 * total energy  :   -11.0940385 Eh     change       -0.1709739E-03 Eh
   gradient norm :     0.0143515 Eh/α   predicted    -0.1089374E-03 ( -36.28%)
   displ. norm   :     0.0965954 α      lambda       -0.2951644E-03
   maximum displ.:     0.0867971 α      in ANC's #1, #9, #7, ...

........................................................................
.............................. CYCLE   13 ..............................
........................................................................
   1    -11.2793551 -0.112794E+02  0.322E-01    2.25       0.0  T
   2    -11.2778066  0.154847E-02  0.587E-01    2.29       1.0  T
   3    -11.2779321 -0.125529E-03  0.552E-01    2.25       1.0  T
   4    -11.2792576 -0.132542E-02  0.136E-01    2.25       1.0  T
   5    -11.2793622 -0.104619E-03  0.746E-02    2.26       1.0  T
   6    -11.2793669 -0.473184E-05  0.652E-02    2.26       1.0  T
   7    -11.2793817 -0.147526E-04  0.231E-02    2.26       1.9  T
   8    -11.2793840 -0.233416E-05  0.836E-03    2.27       5.4  T
   9    -11.2793843 -0.332688E-06  0.359E-03    2.27      12.4  T
  10    -11.2793844 -0.621263E-07  0.362E-04    2.27     123.7  T
  11    -11.2793844  0.136778E-08  0.635E-04    2.27      70.4  T
     SCC iter.                  ...        0 min,  0.001 sec
     gradient                   ...        0 min,  0.001 sec
 * total energy  :   -11.0942165 Eh     change       -0.1780275E-03 Eh
   gradient norm :     0.0099797 Eh/α   predicted    -0.1489589E-03 ( -16.33%)
   displ. norm   :     0.0243965 α      lambda       -0.7674193E-04
   maximum displ.:     0.0173587 α      in ANC's #1, #9, #4, ...

........................................................................
.............................. CYCLE   14 ..............................
........................................................................
   1    -11.2810073 -0.112810E+02  0.165E-01    2.26       0.0  T
   2    -11.2783299  0.267742E-02  0.707E-01    2.23       1.0  T
   3    -11.2807255 -0.239564E-02  0.278E-01    2.26       1.0  T
   4    -11.2810599 -0.334332E-03  0.489E-02    2.26       1.0  T
   5    -11.2810618 -0.196646E-05  0.444E-02    2.26       1.0  T
   6    -11.2810625 -0.621440E-06  0.396E-02    2.26       1.1  T
   7    -11.2810687 -0.622040E-05  0.135E-02    2.26       3.3  T
   8    -11.2810693 -0.676837E-06  0.860E-03    2.26       5.2  T
   9    -11.2810696 -0.282971E-06  0.256E-03    2.26      17.5  T
  10    -11.2810697 -0.264144E-07  0.338E-04    2.26     132.2  T
  11    -11.2810697 -0.300339E-09  0.201E-04    2.26     222.6  T
     SCC iter.                  ...        0 min,  0.001 sec
     gradient                   ...        0 min,  0.001 sec
 * total energy  :   -11.0942710 Eh     change       -0.5450850E-04 Eh
   gradient norm :     0.0040041 Eh/α   predicted    -0.3839268E-04 ( -29.57%)
   displ. norm   :     0.0279351 α      lambda       -0.5428183E-04
   maximum displ.:     0.0166478 α      in ANC's #4, #1, #9, ...

........................................................................
.............................. CYCLE   15 ..............................
........................................................................
   1    -11.2815222 -0.112815E+02  0.267E-01    2.24       0.0  T
   2    -11.2752976  0.622460E-02  0.107E+00    2.18       1.0  T
   3    -11.2809830 -0.568537E-02  0.401E-01    2.23       1.0  T
   4    -11.2816717 -0.688660E-03  0.102E-01    2.23       1.0  T
   5    -11.2816642  0.745373E-05  0.112E-01    2.23       1.0  T
   6    -11.2816765 -0.122525E-04  0.935E-02    2.23       1.0  T
   7    -11.2817130 -0.365870E-04  0.187E-02    2.23       2.4  T
   8    -11.2817088  0.421913E-05  0.391E-02    2.23       1.1  T
   9    -11.2817147 -0.582998E-05  0.113E-02    2.23       4.0  T
  10    -11.2817152 -0.498034E-06  0.185E-03    2.23      24.2  T
  11    -11.2817152 -0.137026E-07  0.730E-05    2.23     612.8  T
  12    -11.2817152  0.626343E-11  0.407E-05    2.23    1098.8  T
     SCC iter.                  ...        0 min,  0.002 sec
     gradient                   ...        0 min,  0.001 sec
 * total energy  :   -11.0943049 Eh     change       -0.3390488E-04 Eh
   gradient norm :     0.0021843 Eh/α   predicted    -0.2716080E-04 ( -19.89%)
   displ. norm   :     0.0090725 α      lambda       -0.1265841E-04
   maximum displ.:     0.0067076 α      in ANC's #4, #5, #9, ...

........................................................................
.............................. CYCLE   16 ..............................
........................................................................
   1    -11.2820688 -0.112821E+02  0.814E-02    2.22       0.0  T
   2    -11.2810856  0.983186E-03  0.439E-01    2.20       1.0  T
   3    -11.2819891 -0.903419E-03  0.144E-01    2.22       1.0  T
   4    -11.2820841 -0.950349E-04  0.177E-02    2.22       2.5  T
   5    -11.2820849 -0.803586E-06  0.536E-03    2.22       8.3  T
   6    -11.2820846  0.261968E-06  0.883E-03    2.22       5.1  T
   7    -11.2820848 -0.117088E-06  0.746E-03    2.22       6.0  T
   8    -11.2820850 -0.252842E-06  0.118E-03    2.22      37.7  T
   9    -11.2820850 -0.383555E-08  0.785E-04    2.22      57.0  T
  10    -11.2820850 -0.230409E-08  0.301E-04    2.22     148.3  T
     SCC iter.                  ...        0 min,  0.001 sec
     gradient                   ...        0 min,  0.001 sec
 * total energy  :   -11.0943127 Eh     change       -0.7804320E-05 Eh
   gradient norm :     0.0012572 Eh/α   predicted    -0.6330814E-05 ( -18.88%)
   displ. norm   :     0.0055657 α      lambda       -0.3021632E-05
   maximum displ.:     0.0043859 α      in ANC's #5, #3, #4, ...

........................................................................
.............................. CYCLE   17 ..............................
........................................................................
   1    -11.2819844 -0.112820E+02  0.296E-02    2.22       0.0  T
   2    -11.2818393  0.145037E-03  0.169E-01    2.22       1.0  T
   3    -11.2819778 -0.138436E-03  0.447E-02    2.21       1.0  T
   4    -11.2819840 -0.629373E-05  0.192E-02    2.22       2.3  T
   5    -11.2819858 -0.172264E-05  0.685E-03    2.22       6.5  T
   6    -11.2819860 -0.252377E-06  0.171E-03    2.21      26.2  T
   7    -11.2819860  0.145147E-07  0.231E-03    2.21      19.4  T
   8    -11.2819860 -0.172585E-07  0.956E-04    2.22      46.8  T
   9    -11.2819860 -0.311022E-08  0.456E-04    2.22      98.0  T
     SCC iter.                  ...        0 min,  0.001 sec
     gradient                   ...        0 min,  0.001 sec
 * total energy  :   -11.0943147 Eh     change       -0.1947908E-05 Eh
   gradient norm :     0.0004692 Eh/α   predicted    -0.1509723E-05 ( -22.50%)
   displ. norm   :     0.0033312 α      lambda       -0.5329394E-06
   maximum displ.:     0.0025140 α      in ANC's #4, #1, #7, ...

   *** GEOMETRY OPTIMIZATION CONVERGED AFTER 17 ITERATIONS ***

------------------------------------------------------------------------
 total energy gain   :        -0.1541154 Eh      -96.7089 kcal/mol
 total RMSD          :         0.7947377 a0        0.4206 Å
 total power (kW/mol):       -23.8017563 (step)-5704.6552 (real)
------------------------------------------------------------------------

 ANCopt (total)                0 d,  0 h,  0 min,  0.071 sec
 optimizer setup                ...        0 min,  0.000 sec (  0.128%)
 model hessian                  ...        0 min,  0.000 sec (  0.195%)
 ANC generation                 ...        0 min,  0.000 sec (  0.107%)
 coordinate transformation      ...        0 min,  0.000 sec (  0.051%)
 single point calculation       ...        0 min,  0.069 sec ( 97.801%)
 optimization log               ...        0 min,  0.000 sec (  0.559%)
 hessian update                 ...        0 min,  0.000 sec (  0.048%)
 rational function              ...        0 min,  0.000 sec (  0.510%)

================
 final structure:
================
5
 xtb: 6.2.2 (9d81278992624c895f80dd42a50cac0aa55982e2)
C        -0.49569228733599    0.79547506177390   -0.01621155491410
C         0.75175217372543   -0.01689818214985    0.00712049025084
C        -0.53123262664383   -0.77235012462920    0.00493443945326
N         1.93890886126057   -0.04369486609917    0.02082007234311
C        -1.66373612100619    0.03746811110432   -0.01666344713312

 Bond Distances (Angstroems)
 ---------------------------
C1-C2=1.4888         C1-C3=1.5684         C1-C5=1.3924         C2-C1=1.4888         C2-C3=1.4889         C2-N4=1.1875         
C3-C1=1.5684         C3-C2=1.4889         C3-C5=1.3924         N4-C2=1.1875         C5-C1=1.3924         C5-C3=1.3924         
 C  C  Rav=1.4662 sigma=0.0669  Rmin=1.3924  Rmax=1.5684     5
 N  C  Rav=1.1875 sigma=0.0000  Rmin=1.1875  Rmax=1.1875     1

 selected bond angles (degree)
 --------------------
C3-C1-C2= 58.22                C5-C1-C2=113.94                C5-C1-C3= 55.72                C3-C2-C1= 63.57                
N4-C2-C1=148.22                N4-C2-C3=148.21                C2-C3-C1= 58.22                C5-C3-C1= 55.72                
C5-C3-C2=113.94                C3-C5-C1= 68.55                

 selected dihedral angles (degree)
 ---------------------------------
C3-C2-C1-C5=  0.03            N4-C2-C1-C3=180.16            N4-C2-C1-C5=180.18            C2-C3-C1-C5=180.03            
C5-C3-C1-C2=179.97            C1-C3-C2-N4=179.84            C5-C3-C2-C1=359.97            C5-C3-C2-N4=179.82            
C3-C5-C1-C2=359.97            C1-C5-C3-C2=  0.03            
           -------------------------------------------------
          |                Final Singlepoint                |
           -------------------------------------------------

          ...................................................
          :                      SETUP                      :
          :.................................................:
          :  # basis functions                  20          :
          :  # atomic orbitals                  20          :
          :  # shells                           10          :
          :  # electrons                        21          :
          :  max. iterations                   250          :
          :  Hamiltonian                  GFN2-xTB          :
          :  restarted?                      false          :
          :  GBSA solvation                  false          :
          :  PC potential                    false          :
          :  electronic temp.          300.0000000     K    :
          :  accuracy                    1.0000000          :
          :  -> integral cutoff          0.2500000E+02      :
          :  -> integral neglect         0.1000000E-07      :
          :  -> SCF convergence          0.1000000E-05 Eh   :
          :  -> wf. convergence          0.1000000E-03 e    :
          :  Broyden damping             0.4000000          :
          ...................................................

 iter      E             dE          RMSdq      gap      omega  full diag
   1    -11.2819860 -0.112820E+02  0.992E-04    2.22       0.0  T
   2    -11.2819858  0.182895E-06  0.595E-03    2.21       7.5  T
   3    -11.2819860 -0.153354E-06  0.264E-03    2.22      16.9  T
   4    -11.2819860 -0.315100E-07  0.240E-04    2.22     186.5  T
   5    -11.2819860 -0.190539E-09  0.125E-04    2.22     358.6  T

   *** convergence criteria satisfied after 5 iterations ***

         #    Occupation            Energy/Eh            Energy/eV
      -------------------------------------------------------------
         1        2.0000           -0.7508628             -20.4320
       ...           ...                  ...                  ...
         5        2.0000           -0.5784451             -15.7403
         6        2.0000           -0.5638308             -15.3426
         7        2.0000           -0.5026248             -13.6771
         8        2.0000           -0.4946862             -13.4611
         9        2.0000           -0.4688895             -12.7591
        10        1.7722           -0.4462663             -12.1435
        11        1.2278           -0.4439468             -12.0804 (HOMO)
        12                         -0.3625444              -9.8653 (LUMO)
        13                         -0.3312146              -9.0128
        14                         -0.2606631              -7.0930
        15                         -0.2003346              -5.4514
        16                          0.0713316               1.9410
       ...                                ...                  ...
        20                          0.8517685              23.1778
      -------------------------------------------------------------
                  HL-Gap            0.0814025 Eh            2.2151 eV
             Fermi-level           -0.4241761 Eh          -11.5424 eV

 SCC (total)                   0 d,  0 h,  0 min,  0.003 sec
 SCC setup                      ...        0 min,  0.000 sec (  1.204%)
 Dispersion                     ...        0 min,  0.000 sec (  0.348%)
 integral evaluation            ...        0 min,  0.001 sec ( 37.401%)
 zeroth order Hamiltonian       ...        0 min,  0.000 sec (  0.447%)
 iterations                     ...        0 min,  0.000 sec ( 15.752%)
 molecular gradient             ...        0 min,  0.001 sec ( 40.595%)
 printout                       ...        0 min,  0.000 sec (  4.125%)

         :::::::::::::::::::::::::::::::::::::::::::::::::::::
         ::                     SUMMARY                     ::
         :::::::::::::::::::::::::::::::::::::::::::::::::::::
         :: total energy             -11.094314659637 Eh    ::
         :: gradient norm              0.000483782701 Eh/a0 ::
         :: HOMO-LUMO gap              2.215073512330 eV    ::
         ::.................................................::
         :: SCC energy               -11.281986030905 Eh    ::
         :: -> isotropic ES            0.002310556132 Eh    ::
         :: -> anisotropic ES          0.003790918804 Eh    ::
         :: -> anisotropic XC          0.015431452930 Eh    ::
         :: -> dispersion             -0.002731095050 Eh    ::
         :: repulsion energy           0.187671410582 Eh    ::
         :: add. restraining           0.000000000000 Eh    ::
         :::::::::::::::::::::::::::::::::::::::::::::::::::::

           ------------------------------------------------- 
          |                Numerical Hessian                |
           ------------------------------------------------- 
step length          :   0.00500
SCC accuracy         :   0.30000
Hessian scale factor :   1.00000
frozen atoms in %    :   0.00000    0
RMS gradient         :   0.00048
estimated CPU  time      0.00 min
estimated wall time      0.00 min

writing file <hessian>.

 projected vibrational frequencies (cm-1)
eigval :       -0.00    -0.00     0.00     0.00     0.00     0.00
eigval :     -825.88   188.75   340.42   530.03   568.53   760.27
eigval :      943.34  1466.51  1936.12
           -------------------------------------------------
          |                Property Printout                |
           -------------------------------------------------

    * Orbital Energies and Occupations

         #    Occupation            Energy/Eh            Energy/eV
      -------------------------------------------------------------
         1        2.0000           -0.7508629             -20.4320
         2        2.0000           -0.7036476             -19.1472
         3        2.0000           -0.6493246             -17.6690
         4        2.0000           -0.6210941             -16.9008
         5        2.0000           -0.5784451             -15.7403
         6        2.0000           -0.5638308             -15.3426
         7        2.0000           -0.5026248             -13.6771
         8        2.0000           -0.4946862             -13.4611
         9        2.0000           -0.4688896             -12.7591
        10        1.7722           -0.4462664             -12.1435
        11        1.2278           -0.4439468             -12.0804 (HOMO)
        12                         -0.3625445              -9.8653 (LUMO)
        13                         -0.3312146              -9.0128
        14                         -0.2606631              -7.0930
        15                         -0.2003346              -5.4514
        16                          0.0713316               1.9410
        17                          0.0970071               2.6397
        18                          0.1707699               4.6469
        19                          0.3995638              10.8727
        20                          0.8517686              23.1778
      -------------------------------------------------------------
                  HL-Gap            0.0814023 Eh            2.2151 eV
             Fermi-level           -0.4241761 Eh          -11.5424 eV

     #   Z        covCN         q      C6AA      α(0)
     1   6 C      2.928     0.021    27.529     8.605
     2   6 C      2.879     0.193    23.897     8.014
     3   6 C      2.928     0.021    27.529     8.605
     4   7 N      0.911    -0.183    24.968     7.227
     5   6 C      1.974    -0.052    32.474     9.203

 Mol. C6AA /au·bohr⁶  :        678.856805
 Mol. C8AA /au·bohr⁸  :      18695.067299
 Mol. α(0) /au        :         41.652473


Wiberg/Mayer (AO) data.
largest (>0.10) Wiberg bond orders for each atom
          total WBO             WBO to atom ...
     1  C   3.166        C    5 1.257    C    3 1.036    C    2 0.830
     2  C   3.937        N    4 2.220    C    1 0.830    C    3 0.830
     3  C   3.165        C    5 1.257    C    1 1.036    C    2 0.830
     4  N   2.443        C    2 2.220    C    5 0.135
     5  C   2.706        C    3 1.257    C    1 1.257    N    4 0.135

MOs/occ written to file <molden.input>


molecular dipole:
                 x           y           z       tot (Debye)
 q only:       -0.274       0.006      -0.003
   full:       -0.187       0.004      -0.003       0.476
molecular quadrupole (traceless):
                xx          xy          yy          xz          yz          zz
 q only:       -2.593       0.089       1.366      -0.041      -0.001       1.227
  q+dip:       -5.153       0.156       1.778      -0.089       0.024       3.374
   full:       -7.835       0.213       1.635      -0.144       0.065       6.200

           -------------------------------------------------
          |                Geometry Summary                 |
           -------------------------------------------------

      molecular mass/u    :       62.0496468
   center of mass at/Å    :        0.0623694      -0.0014059       0.0006695
  moments of inertia/u·Å² :        0.1477194E+02   0.9884253E+02   0.1136144E+03
rotational constants/cm⁻¹ :        0.1141193E+01   0.1705504E+00   0.1483758E+00

 * 1 selected distances

     #   Z        #   Z                                     value/Å
     2   6 C      4   7 N                                 1.1875381 (max)

 * 1 distinct bonds (by element types)

   Z      Z             #   av. dist./Å        max./Å        min./Å
   6 C    7 N           1     1.1875381     1.1875381     1.1875381

           -------------------------------------------------
          |               Frequency Printout                |
           -------------------------------------------------
 projected vibrational frequencies (cm-1)
eigval :       -0.00    -0.00     0.00     0.00     0.00     0.00
eigval :     -825.88   188.75   340.42   530.03   568.53   760.27
eigval :      943.34  1466.51  1936.12
 reduced masses (amu)
   1: 12.28   2: 12.88   3: 12.21   4: 12.66   5: 12.81   6: 12.43   7: 12.19   8: 12.41
   9: 12.40  10: 12.17  11: 12.32  12: 12.12  13: 12.40  14: 12.03  15: 12.83
 IR intensities (amu)
   1:  0.06   2:  0.07   3:  0.03   4:  0.03   5:  0.04   6:  0.03   7:  1.49   8:  0.53
   9:  0.64  10:  0.20  11:  1.51  12:  1.50  13:  1.43  14:  1.25  15:  0.10
 Raman intensities (amu)
   1:  0.00   2:  0.00   3:  0.00   4:  0.00   5:  0.00   6:  0.00   7:  0.00   8:  0.00
   9:  0.00  10:  0.00  11:  0.00  12:  0.00  13:  0.00  14:  0.00  15:  0.00
Molecule has the following symmetry elements: (C2) 2*(sigma) 
It seems to be the C2v point group
 output can be read by thermo (or use thermo option).
 writing <g98.out> molden fake output.
 recommended (thermochemical) frequency scaling factor: 1.0
           -------------------------------------------------
          |             Thermodynamic Functions             |
           -------------------------------------------------

c2v symmetry found (for desy threshold:  0.10E+00) used in thermo

          ...................................................
          :                      SETUP                      :
          :.................................................:
          :  # frequencies                           8      :
          :  # imaginary freq.                       1      :
          :  linear?                             false      :
          :  only rotor calc.                    false      :
          :  symmetry                              c2v      :
          :  rotational number                       2      :
          :  scaling factor                  1.0000000      :
          :  rotor cutoff                   50.0000000 cm⁻¹ :
          :  imag. cutoff                  -20.0000000 cm⁻¹ :
          :.................................................:

    mode    ω/cm⁻¹     T·S(HO)/kcal·mol⁻¹    T·S(FR)/kcal·mol⁻¹   T·S(vib)
   ------------------------------------------------------------------------
       1    188.75    -0.00000 ( 99.51%)     0.01151 (  0.49%)     0.00006
   ------------------------------------------------------------------------

   temp. (K)  partition function   enthalpy   heat capacity  entropy
                                   cal/mol     cal/K/mol   cal/K/mol   J/K/mol
 298.15  VIB   2.49                  925.242      6.994      4.920
         ROT  0.156E+05              888.752      2.981     22.162
         INT  0.388E+05             1813.994      9.975     27.082
         TR   0.473E+27             1481.254      4.968     38.278
         TOT                        3295.2482    14.9435    65.3603   273.4674

   temp. (K)  partition function   enthalpy   heat capacity  entropy
                                   cal/mol     cal/K/mol   cal/K/mol   J/K/mol
 120.00  VIB   1.14                   84.066      2.160      0.962
         ROT  0.397E+04              357.707      2.981     19.449
         INT  0.452E+04              441.772      5.141     20.411
         TR   0.121E+27              596.178      4.968     33.759
         TOT                        1037.9504    10.1088    54.1699   226.6470

   temp. (K)  partition function   enthalpy   heat capacity  entropy
                                   cal/mol     cal/K/mol   cal/K/mol   J/K/mol
 100.00  VIB   1.08                   46.788      1.571      0.624
         ROT  0.302E+04              298.089      2.981     18.906
         INT  0.326E+04              344.877      4.552     19.530
         TR   0.919E+26              496.815      4.968     32.853
         TOT                         841.6915     9.5204    52.3830   219.1705

   temp. (K)  partition function   enthalpy   heat capacity  entropy
                                   cal/mol     cal/K/mol   cal/K/mol   J/K/mol
  80.00  VIB   1.04                   21.047      1.008      0.339
         ROT  0.216E+04              238.471      2.981     18.241
         INT  0.224E+04              259.518      3.989     18.579
         TR   0.657E+26              397.452      4.968     31.745
         TOT                         656.9697     8.9568    50.3248   210.5589

   temp. (K)  partition function   enthalpy   heat capacity  entropy
                                   cal/mol     cal/K/mol   cal/K/mol   J/K/mol
  60.00  VIB   1.01                    6.188      0.489      0.128
         ROT  0.140E+04              178.853      2.981     17.383
         INT  0.142E+04              185.041      3.470     17.511
         TR   0.427E+26              298.089      4.968     30.317
         TOT                         483.1303     8.4385    47.8278   200.1117

   temp. (K)  partition function   enthalpy   heat capacity  entropy
                                   cal/mol     cal/K/mol   cal/K/mol   J/K/mol
  40.00  VIB   1.00                    0.613      0.105      0.018
         ROT   764.                  119.236      2.981     16.175
         INT   765.                  119.848      3.086     16.193
         TR   0.232E+26              198.726      4.968     28.303
         TOT                         318.5745     8.0538    44.4963   186.1725

   temp. (K)  partition function   enthalpy   heat capacity  entropy
                                   cal/mol     cal/K/mol   cal/K/mol   J/K/mol
  20.00  VIB   1.00                    0.001      0.000     -0.003
         ROT   270.                   59.618      2.981     14.108
         INT   270.                   59.618      2.981     14.105
         TR   0.822E+25               99.363      4.968     24.861
         TOT                         158.9815     7.9495    38.9669   163.0373

   temp. (K)  partition function   enthalpy   heat capacity  entropy
                                   cal/mol     cal/K/mol   cal/K/mol   J/K/mol
  10.00  VIB   1.00                    0.000      0.000     -0.007
         ROT   95.6                   29.809      2.981     12.042
         INT   95.6                   29.809      2.981     12.035
         TR   0.290E+25               49.681      4.968     21.419
         TOT                          79.4904     7.9490    33.4548   139.9751

       T/K    H(0)-H(T)+PV         H(T)/Eh          T*S/Eh         G(T)/Eh
   ------------------------------------------------------------------------
    298.15    0.525131E-02    0.205924E-01    0.310548E-01   -0.104624E-01
    120.00    0.165408E-02    0.169952E-01    0.103590E-01    0.663613E-02
    100.00    0.134132E-02    0.166824E-01    0.834776E-02    0.833464E-02
     80.00    0.104695E-02    0.163880E-01    0.641581E-02    0.997222E-02
     60.00    0.769917E-03    0.161110E-01    0.457311E-02    0.115379E-01
     40.00    0.507681E-03    0.158488E-01    0.283637E-02    0.130124E-01
     20.00    0.253353E-03    0.155944E-01    0.124195E-02    0.143525E-01
     10.00    0.126676E-03    0.154678E-01    0.533137E-03    0.149346E-01 (used)
   ------------------------------------------------------------------------

         :::::::::::::::::::::::::::::::::::::::::::::::::::::
         ::                  THERMODYNAMIC                  ::
         :::::::::::::::::::::::::::::::::::::::::::::::::::::
         :: total free energy         -11.079380036660 Eh   ::
         ::.................................................::
         :: total energy              -11.094314659667 Eh   ::
         :: zero point energy           0.015341083839 Eh   ::
         :: G(RRHO) w/o ZPVE           -0.000406460833 Eh   ::
         :: G(RRHO) contrib.            0.014934623007 Eh   ::
         :::::::::::::::::::::::::::::::::::::::::::::::::::::
imag cut-off (cm-1) :    5.00
 found            1  significant imaginary frequency
 writing imag mode distorted coords to xtbhess.xyz
 for further optimization.

optimized geometry written to: xtbopt.xyz


           -------------------------------------------------
          | TOTAL ENERGY              -11.094314659667 Eh   |
          | TOTAL ENTHALPY            -11.078846899811 Eh   |
          | TOTAL FREE ENERGY         -11.079380036660 Eh   |
          | GRADIENT NORM               0.000484183367 Eh/α |
          | HOMO-LUMO GAP               2.215069750735 eV   |
           -------------------------------------------------

------------------------------------------------------------------------
 * finished run on 2020/05/12 at 11:44:05.455     
------------------------------------------------------------------------
 total:
 * wall-time:     0 d,  0 h,  0 min,  0.199 sec
 *  cpu-time:     0 d,  0 h,  0 min,  0.198 sec
 * ratio c/w:     0.998 speedup
 SCF:
 * wall-time:     0 d,  0 h,  0 min,  0.006 sec
 *  cpu-time:     0 d,  0 h,  0 min,  0.006 sec
 * ratio c/w:     1.000 speedup
 ANC optimizer:
 * wall-time:     0 d,  0 h,  0 min,  0.075 sec
 *  cpu-time:     0 d,  0 h,  0 min,  0.075 sec
 * ratio c/w:     0.999 speedup
 numerical hessian:
 * wall-time:     0 d,  0 h,  0 min,  0.104 sec
 *  cpu-time:     0 d,  0 h,  0 min,  0.104 sec
 * ratio c/w:     0.999 speedup

