5
 energy: -10.894448091403 gnorm: 0.218047547279 xtb: 6.2.2 (9d81278992624c895f80dd42a50cac0aa55982e2)
C        -0.35018100000000    1.03480200000000    0.08887700000000
N         0.57036900000000   -0.00736300000000    0.52207600000000
C        -0.43063700000000   -0.99697200000000    0.14812000000000
C         1.63750900000000   -0.07836100000000   -0.46357500000000
C        -1.42706000000000    0.04789400000000   -0.29549700000000
5
 energy: -10.936034885584 gnorm: 0.142086513423 xtb: 6.2.2 (9d81278992624c895f80dd42a50cac0aa55982e2)
C        -0.36129490341731    1.02217263369216    0.03547366165254
N         0.56475893442615   -0.00901412438689    0.45783116483364
C        -0.44084131748838   -0.98663223811659    0.09404688297089
C         1.61879368681953   -0.07543655352805   -0.38869549231352
C        -1.38141640033999    0.04891028233937   -0.19865521714355
5
 energy: -10.942471011243 gnorm: 0.197063171187 xtb: 6.2.2 (9d81278992624c895f80dd42a50cac0aa55982e2)
C        -0.41967354769879    0.97994188583395    0.04759698783685
N         0.62619469962784   -0.01506456228193    0.33373514257208
C        -0.49567544988457   -0.93928911015755    0.10355850367013
C         1.59714541522060   -0.07236683638040   -0.31284721630190
C        -1.30799111726509    0.04677862298594   -0.17204241777716
5
 energy: -10.966042929787 gnorm: 0.061954751440 xtb: 6.2.2 (9d81278992624c895f80dd42a50cac0aa55982e2)
C        -0.42419908659341    0.99327464248154   -0.00205546786911
N         0.60956719290339   -0.01544843633043    0.29798683696382
C        -0.50135415113297   -0.95508843508573    0.05475533279642
C         1.73281960465572   -0.07647565594852   -0.26949812667899
C        -1.41683355983273    0.05373788488314   -0.08118757521214
5
 energy: -10.972995856532 gnorm: 0.086359436402 xtb: 6.2.2 (9d81278992624c895f80dd42a50cac0aa55982e2)
C        -0.44918852239422    0.96902572719978   -0.06458441429445
N         0.63466398547898   -0.01952619219775    0.19224094646645
C        -0.52449257548758   -0.93261622632177   -0.00913720010164
C         1.85134111148178   -0.07809744280548   -0.16411700414776
C        -1.51232399907897    0.06121413412523    0.04559867207741
5
 energy: -10.977666575831 gnorm: 0.052740551802 xtb: 6.2.2 (9d81278992624c895f80dd42a50cac0aa55982e2)
C        -0.47214649708087    0.95374770029036   -0.02813224035897
N         0.65495231440404   -0.02193169593028    0.13730124720064
C        -0.54608655571201   -0.91347657912163    0.02631105945018
C         1.86545912301351   -0.07836237738688   -0.15401037436181
C        -1.50217838462466    0.06002295214844    0.01853130806996
5
 energy: -10.979640568433 gnorm: 0.054627534594 xtb: 6.2.2 (9d81278992624c895f80dd42a50cac0aa55982e2)
C        -0.46000716872368    0.94786956117413   -0.02957644095405
N         0.66098328608570   -0.02301433613772    0.10836740072086
C        -0.53352312469932   -0.90867045221594    0.02455563758076
C         1.83371142211014   -0.07632882648048   -0.12738218634746
C        -1.50116441477284    0.06014405366002    0.02403658899989
5
 energy: -10.981963570447 gnorm: 0.019692729471 xtb: 6.2.2 (9d81278992624c895f80dd42a50cac0aa55982e2)
C        -0.46575183187641    0.94642122675014   -0.03969434642533
N         0.65207336335614   -0.02471721798839    0.03787217013173
C        -0.53915841418597   -0.90736488141587    0.01435803929170
C         1.86651429060908   -0.07625389145865   -0.08027600691792
C        -1.51367740790284    0.06191476411278    0.06774114391983
5
 energy: -10.982740261060 gnorm: 0.014087968297 xtb: 6.2.2 (9d81278992624c895f80dd42a50cac0aa55982e2)
C        -0.46007266880122    0.95322248680809   -0.03949200549718
N         0.63511745814518   -0.02496557114221    0.00634421850232
C        -0.53403424265005   -0.91457105181818    0.01496965577211
C         1.85791366981646   -0.07539704330771   -0.06259440257056
C        -1.49892421651037    0.06171117946001    0.08077353379331
5
 energy: -10.982902850446 gnorm: 0.005091196917 xtb: 6.2.2 (9d81278992624c895f80dd42a50cac0aa55982e2)
C        -0.45554162899739    0.95297000698928   -0.04153892374118
N         0.63000346755661   -0.02498917395703   -0.00138966173410
C        -0.52950278087481   -0.91479622648164    0.01292225148699
C         1.84872648409479   -0.07483485483096   -0.05580480468433
C        -1.49368554177920    0.06165024828035    0.08581213867262
5
 energy: -10.982937561673 gnorm: 0.004283580614 xtb: 6.2.2 (9d81278992624c895f80dd42a50cac0aa55982e2)
C        -0.45535889304014    0.95044183415110   -0.04532215703142
N         0.63031017537282   -0.02528846385036   -0.01124543643954
C        -0.52912881277217   -0.91251511183708    0.00899866453967
C         1.84910573726076   -0.07458289179376   -0.04663777452522
C        -1.49492820682127    0.06194463333009    0.09420770345650
5
 energy: -10.982956047823 gnorm: 0.002592889659 xtb: 6.2.2 (9d81278992624c895f80dd42a50cac0aa55982e2)
C        -0.45584208204411    0.94952008490054   -0.04813260171842
N         0.63109377595589   -0.02535118192347   -0.01230924649731
C        -0.52954479226363   -0.91172153282759    0.00613812221339
C         1.84852678114117   -0.07448019436611   -0.04390675306927
C        -1.49423368278932    0.06203282421663    0.09821147907160
5
 energy: -10.982990993804 gnorm: 0.004355051306 xtb: 6.2.2 (9d81278992624c895f80dd42a50cac0aa55982e2)
C        -0.45700941951153    0.94816061876126   -0.05753190013146
N         0.63194645686974   -0.02543380393470   -0.01398276263413
C        -0.53062146218662   -0.91082184025459   -0.00332773053512
C         1.84866843816041   -0.07427120661631   -0.03651790773930
C        -1.49298401333200    0.06236623204433    0.11136130104001
5
 energy: -10.983014291500 gnorm: 0.004776319065 xtb: 6.2.2 (9d81278992624c895f80dd42a50cac0aa55982e2)
C        -0.45836939600235    0.94732277820902   -0.06990123173650
N         0.63161422509374   -0.02540602272611   -0.01355791713213
C        -0.53193526055212   -0.91060567197901   -0.01572761965417
C         1.84927819068104   -0.07407433969837   -0.02889936926561
C        -1.49058775922031    0.06276325619447    0.12808713778840
5
 energy: -10.983021875435 gnorm: 0.002009194396 xtb: 6.2.2 (9d81278992624c895f80dd42a50cac0aa55982e2)
C        -0.45840643169557    0.94778165549114   -0.06871238658742
N         0.63077394294103   -0.02533466242028   -0.01222513162355
C        -0.53200879214219   -0.91099273106999   -0.01451199768457
C         1.84966901625310   -0.07414405594480   -0.03084195796001
C        -1.49002773535637    0.06268979394394    0.12629247385554
5
 energy: -10.983024089032 gnorm: 0.000963292217 xtb: 6.2.2 (9d81278992624c895f80dd42a50cac0aa55982e2)
C        -0.45794244236068    0.94768566129847   -0.06938482616175
N         0.62964580743615   -0.02520693252543   -0.00925499995579
C        -0.53154867504479   -0.91097050828740   -0.01518512448147
C         1.85005089520751   -0.07420364775885   -0.03251978914126
C        -1.49020558523820    0.06269542727322    0.12634573974027
