 Entering Gaussian System
 *********************************************
 Gaussian 98:
 frequency output generated by the xtb code
 *********************************************
                         Standard orientation:
 --------------------------------------------------------------------
  Center     Atomic     Atomic              Coordinates (Angstroms)
  Number     Number      Type              X           Y           Z
 --------------------------------------------------------------------
    1          8             0        0.632957   -0.033287    0.320795
    2          8             0       -0.632961    0.033072   -0.320808
    3          1             0        1.241141    0.002400   -0.427980
    4          1             0       -1.241136   -0.002184    0.427993
 --------------------------------------------------------------------
     1 basis functions        1 primitive gaussians
     1 alpha electrons        1 beta electrons

 Harmonic frequencies (cm**-1), IR intensities (KM/Mole),
 Raman scattering activities (A**4/amu), Raman depolarization ratios,
 reduced masses (AMU), force constants (mDyne/A) and normal coordinates:
                      1                      2                      3
                        a                      a                      a 
 Frequencies --   241.7435              1108.0508              1155.3240
 Red. masses --     1.8964                15.4675                 1.8964
 Frc consts  --     0.0000                 0.0000                 0.0000
 IR Inten    --     0.7698                 0.0000                 0.5542
 Raman Activ --     0.0000                 0.0000                 0.0000
 Depolar     --     0.0000                 0.0000                 0.0000
 Atom AN      X      Y      Z        X      Y      Z        X      Y      Z
   1   8     0.00   0.17   0.01    -0.64   0.03  -0.28     0.13  -0.01   0.11
   2   8     0.00   0.17   0.01     0.64  -0.03   0.28     0.13  -0.01   0.11
   3   1    -0.01  -0.68  -0.04    -0.12   0.01  -0.05    -0.53   0.04  -0.43
   4   1    -0.01  -0.68  -0.04     0.12  -0.01   0.05    -0.53   0.04  -0.43
                      4                      5                      6
                        a                      a                      a 
 Frequencies --  1354.9806              3541.4098              3544.8177
 Red. masses --     3.3367                 1.8656                 1.8964
 Frc consts  --     0.0000                 0.0000                 0.0000
 IR Inten    --     0.0000                 0.0001                 0.3804
 Raman Activ --     0.0000                 0.0000                 0.0000
 Depolar     --     0.0000                 0.0000                 0.0000
 Atom AN      X      Y      Z        X      Y      Z        X      Y      Z
   1   8     0.01  -0.02   0.28    -0.10  -0.01   0.13     0.11   0.01  -0.13
   2   8    -0.01   0.02  -0.28     0.10   0.01  -0.13     0.11   0.01  -0.13
   3   1    -0.53   0.03  -0.37     0.44   0.03  -0.53    -0.43  -0.03   0.53
   4   1     0.53  -0.03   0.37    -0.44  -0.02   0.53    -0.43  -0.02   0.53
