[Molden Format]
[Title]
[Atoms] AU
O      1     8  0.11961158241046E+01 -0.62902739782163E-01  0.60621396298775E+00
O      2     8 -0.11961230876788E+01  0.62496779834529E-01 -0.60623990850729E+00
H      3     1  0.23454155925158E+01  0.45359175372305E-02 -0.80876406846161E+00
H      4     1 -0.23454064392057E+01 -0.41280678735456E-02  0.80879001397126E+00
[GTO]
           1 0
 s           4   1.0000000000000000     
   69.137961906196551      -0.20478756370077797     
   11.906129132707308      -0.24997023136827334     
  0.95670827744340703       0.40025880240639616     
  0.36462520496073686       0.15952206667693555     
 p           4   1.0000000000000000     
   8.2124193257781641        1.1321556799186829     
   2.1293576997098116        1.0476840782254817     
  0.75066448202360914       0.54956508217158984     
  0.29885246543283073        8.2908486592766617E-002

           2 0
 s           4   1.0000000000000000     
   69.137961906196551      -0.20478756370077797     
   11.906129132707308      -0.24997023136827334     
  0.95670827744340703       0.40025880240639616     
  0.36462520496073686       0.15952206667693555     
 p           4   1.0000000000000000     
   8.2124193257781641        1.1321556799186829     
   2.1293576997098116        1.0476840782254817     
  0.75066448202360914       0.54956508217158984     
  0.29885246543283073        8.2908486592766617E-002

           3 0
 s           3   1.0000000000000000     
   3.3702276975336001       0.27359110588908298     
  0.61389118221497996       0.26460540653860526     
  0.16614291148415999        8.2465947534082318E-002

           4 0
 s           3   1.0000000000000000     
   3.3702276975336001       0.27359110588908298     
  0.61389118221497996       0.26460540653860526     
  0.16614291148415999        8.2465947534082318E-002

[MO]
Sym=     1a
Ene=  -0.72419518503215785     
Spin= Alpha
Occup=     2.00000000
           1  0.56028176087038228     
           2 -0.14441951224518662     
           3   8.0073898353920439E-003
           4  -7.9801023233660895E-002
           5  0.56028175814788750     
           6  0.14442015763708496     
           7  -7.9752458826394795E-003
           8   7.9803076706098292E-002
           9   9.3361668968481526E-002
          10   9.3361671869258159E-002
Sym=     2a
Ene=  -0.69623317370888016     
Spin= Alpha
Occup=     2.00000000
           1  0.58309425647802160     
           2  0.19303364276689133     
           3  -2.7855469505954022E-003
           4  -1.6956957921156746E-002
           5 -0.58309425363033840     
           6  0.19303288108053318     
           7  -2.8230019913442397E-003
           8  -1.6959347578887861E-002
           9  0.17948179396836933     
          10 -0.17948179020790261     
Sym=     3a
Ene=  -0.61540798461915858     
Spin= Alpha
Occup=     2.00000000
           1 -0.31022857674754983     
           2  0.19219908636681926     
           3   2.7711348917780862E-002
           4 -0.49503068354374841     
           5  0.31022859383958812     
           6  0.19219758047972121     
           7   2.7637763029145668E-002
           8 -0.49503537857313534     
           9  0.21489867633573390     
          10 -0.21489867039111624     
Sym=     4a
Ene=  -0.59772612374045764     
Spin= Alpha
Occup=     2.00000000
           1  0.14374415945222335     
           2  0.57332014504646966     
           3  -1.8214785575185202E-002
           4  0.10688726495360211     
           5  0.14374415986106140     
           6 -0.57331478698650307     
           7   1.8481657171537175E-002
           8 -0.10687023304761938     
           9  0.19947722826681663     
          10  0.19947723669093892     
Sym=     5a
Ene=  -0.54659508931388578     
Spin= Alpha
Occup=     2.00000000
           1   2.2521377153292049E-004
           2  -1.3378008800372992E-002
           3 -0.67129391932402582     
           4  -4.2480520366805434E-002
           5   2.2519288534592665E-004
           6  -1.3640933789550667E-002
           7 -0.67125145000445374     
           8  -4.3063967734855199E-002
           9  -1.3253415695918934E-004
          10  -1.3253647402037224E-004
Sym=     6a
Ene=  -0.51573741697480857     
Spin= Alpha
Occup=     2.00000000
           1  0.28429501948914809     
           2  -3.2900039768672111E-002
           3  -3.7174652965944237E-002
           4  0.59950849456936461     
           5  0.28429501613386338     
           6   3.2914572184889371E-002
           7   3.7897014185518323E-002
           8 -0.59946246271275683     
           9 -0.26023745988194913     
          10 -0.26023745929840358     
Sym=     7a
Ene=  -0.42821960606417248     
Spin= Alpha
Occup=     2.00000000
           1   4.0752482802772552E-005
           2  -1.4954609080568958E-002
           3 -0.74563548287298609     
           4  -4.7587458252739620E-002
           5  -4.0739046136814764E-005
           6   1.5057619364916860E-002
           7  0.74564318645222305     
           8   4.7434046399314068E-002
           9  -4.9574807513305880E-005
          10   4.9576491047459545E-005
Sym=     8a
Ene=  -0.14957222780687732     
Spin= Alpha
Occup=     0.00000000
           1  0.42702834401977130     
           2 -0.69623117888073360     
           3   4.2458424621366203E-002
           4 -0.44615344630257264     
           5 -0.42702833185799616     
           6 -0.69623193753864121     
           7   4.2421412982262909E-002
           8 -0.44615578930531358     
           9  -8.1495598611449602E-002
          10   8.1495580527899444E-002
Sym=     9a
Ene=   0.11443017703398185     
Spin= Alpha
Occup=     0.00000000
           1  0.46015092475783115     
           2  0.36251663818784602     
           3   2.2778406663575310E-002
           4 -0.47010276274249063     
           5  0.46015096909850300     
           6 -0.36251185068406167     
           7  -2.2539402753245626E-002
           8  0.47011805179756466     
           9 -0.80210410505553198     
          10 -0.80210419399368149     
Sym=    10a
Ene=   0.15692908777553774     
Spin= Alpha
Occup=     0.00000000
           1 -0.36021073066053760     
           2 -0.45984214427780118     
           3  -1.5159304222418081E-002
           4  0.38097007058242399     
           5  0.36021068127163497     
           6 -0.45983652446853251     
           7  -1.4882545475271384E-002
           8  0.38098766198465023     
           9  0.85994555977109666     
          10 -0.85994547641551389     
