4
 energy: -9.044950108225 gnorm: 0.116915260983 xtb: 6.2.2 (9d81278992624c895f80dd42a50cac0aa55982e2)
O         0.60583000000000   -0.33250000000000    0.22210400000000
O        -0.61809400000000   -0.27709500000000   -0.26094700000000
H         1.12571600000000    0.30464200000000   -0.33164100000000
H        -1.11345100000000    0.30495400000000    0.37048400000000
4
 energy: -9.051316065473 gnorm: 0.039769655903 xtb: 6.2.2 (9d81278992624c895f80dd42a50cac0aa55982e2)
O         0.63658391091785   -0.31775382480865    0.22421378331762
O        -0.64822717886514   -0.26098041805445   -0.26109045001385
H         1.16099033630631    0.28882740810228   -0.33783057264940
H        -1.14934606835902    0.28990783476082    0.37470723934564
4
 energy: -9.052471060869 gnorm: 0.010674597502 xtb: 6.2.2 (9d81278992624c895f80dd42a50cac0aa55982e2)
O         0.64734358874657   -0.29905944647431    0.23633960627535
O        -0.65819843716702   -0.24048285009942   -0.27071903447220
H         1.17585007692606    0.26946566409976   -0.34757163487795
H        -1.16499422850560    0.27007763247397    0.38195106307480
4
 energy: -9.052932321414 gnorm: 0.007854573732 xtb: 6.2.2 (9d81278992624c895f80dd42a50cac0aa55982e2)
O         0.64882987240688   -0.27327864017954    0.25555615459736
O        -0.65860174697120   -0.21243366598378   -0.28650558867120
H         1.19145052333138    0.24314499714695   -0.36371067326864
H        -1.18167764876706    0.24256830901636    0.39466010734247
4
 energy: -9.053214144790 gnorm: 0.019492514076 xtb: 6.2.2 (9d81278992624c895f80dd42a50cac0aa55982e2)
O         0.64585184970611   -0.23703385012465    0.28001925833441
O        -0.65411173692169   -0.17352669697812   -0.30618008541245
H         1.20813581277896    0.20638665017104   -0.38444224941034
H        -1.19987492556338    0.20417489693173    0.41060307648839
4
 energy: -9.053471237106 gnorm: 0.014194570017 xtb: 6.2.2 (9d81278992624c895f80dd42a50cac0aa55982e2)
O         0.64347202984174   -0.22411502541765    0.28558423789563
O        -0.65120208579347   -0.16011200191077   -0.31006711126260
H         1.20631234210269    0.19342106168192   -0.38794628464418
H        -1.19858128615096    0.19080696564649    0.41242915801114
4
 energy: -9.053897118403 gnorm: 0.014292942603 xtb: 6.2.2 (9d81278992624c895f80dd42a50cac0aa55982e2)
O         0.63514442767036   -0.17848709261411    0.30303774436898
O        -0.64100874886171   -0.11300888099285   -0.32161184162996
H         1.21768128225166    0.14768610579453   -0.40468102371745
H        -1.21181596106031    0.14381086781243    0.42325512097843
4
 energy: -9.054190109076 gnorm: 0.008700513745 xtb: 6.2.2 (9d81278992624c895f80dd42a50cac0aa55982e2)
O         0.62944267357210   -0.14755555687225    0.30420333992339
O        -0.63406944892394   -0.08243279300754   -0.31885818043209
H         1.22303152307177    0.11699069235480   -0.40944182641868
H        -1.21840374771993    0.11299865752499    0.42409666692738
4
 energy: -9.053842000508 gnorm: 0.036541731420 xtb: 6.2.2 (9d81278992624c895f80dd42a50cac0aa55982e2)
O         0.62383289366200   -0.07982681336178    0.32355814445180
O        -0.62570155200837   -0.01307520931305   -0.32947789588836
H         1.24652587241644    0.04906213406344   -0.43130850170596
H        -1.24465621407007    0.04384088861138    0.43722825314251
4
 energy: -9.054404860340 gnorm: 0.004175797558 xtb: 6.2.2 (9d81278992624c895f80dd42a50cac0aa55982e2)
O         0.63129655345850   -0.12244386584793    0.30954794143988
O        -0.63490222906030   -0.05679196971068   -0.32096884927315
H         1.23274230675415    0.09172438187869   -0.41601157166369
H        -1.22913563115235    0.08751245367992    0.42743247949695
4
 energy: -9.054483762577 gnorm: 0.002900764912 xtb: 6.2.2 (9d81278992624c895f80dd42a50cac0aa55982e2)
O         0.63198348167287   -0.10867516609297    0.31201933257247
O        -0.63503071907993   -0.04280458349047   -0.32167162964229
H         1.23657576463377    0.07789544136255   -0.41896501331547
H        -1.23352752722671    0.07358530822089    0.42861731038529
4
 energy: -9.054504934042 gnorm: 0.015777651460 xtb: 6.2.2 (9d81278992624c895f80dd42a50cac0aa55982e2)
O         0.63279459158261   -0.05051210259916    0.32221027975214
O        -0.63348511335198    0.01616693882076   -0.32439879929289
H         1.24910057080636    0.01955625647438   -0.43060347291859
H        -1.24840904903700    0.01478990730402    0.43279199245934
4
 energy: -9.054604624893 gnorm: 0.001107951606 xtb: 6.2.2 (9d81278992624c895f80dd42a50cac0aa55982e2)
O         0.63326690114744   -0.07761754052037    0.31619949150656
O        -0.63505825061865   -0.01144125240562   -0.32187434226579
H         1.24169863251728    0.04675148217763   -0.42381342160420
H        -1.23990628304607    0.04230831074836    0.42948827236343
4
 energy: -9.054641410600 gnorm: 0.002272778272 xtb: 6.2.2 (9d81278992624c895f80dd42a50cac0aa55982e2)
O         0.63313306532706   -0.06053469899090    0.31862122260901
O        -0.63423398900016    0.00579164007219   -0.32210948398729
H         1.24317830058305    0.02964621628414   -0.42630840071628
H        -1.24207637690995    0.02509784263456    0.42979666209457
4
 energy: -9.054660308535 gnorm: 0.002445869763 xtb: 6.2.2 (9d81278992624c895f80dd42a50cac0aa55982e2)
O         0.63295414708550   -0.04623362710514    0.32019373550805
O        -0.63347829790100    0.02015793674559   -0.32185531897549
H         1.24304351322022    0.01534189604352   -0.42773101693382
H        -1.24251836240472    0.01073479431603    0.42939260040126
4
 energy: -9.054668015991 gnorm: 0.001345059768 xtb: 6.2.2 (9d81278992624c895f80dd42a50cac0aa55982e2)
O         0.63288714499523   -0.03771732689307    0.32079787603794
O        -0.63306864316927    0.02867250559263   -0.32137425502395
H         1.24212841573243    0.00683198709463   -0.42812544925322
H        -1.24194591755839    0.00221383420581    0.42870182823924
4
 energy: -9.054669518035 gnorm: 0.000577446062 xtb: 6.2.2 (9d81278992624c895f80dd42a50cac0aa55982e2)
O         0.63295634893396   -0.03328394522340    0.32079679525306
O        -0.63296019147955    0.03306912045448   -0.32081052542035
H         1.24114207814672    0.00240754996854   -0.42797521713311
H        -1.24113723560114   -0.00219172519963    0.42798894730040
