      -----------------------------------------------------------      
     |                   =====================                   |     
     |                           x T B                           |     
     |                   =====================                   |     
     |                         S. Grimme                         |     
     |          Mulliken Center for Theoretical Chemistry        |     
     |                    University of Bonn                     |     
      -----------------------------------------------------------      

   * xtb version 6.2.2 (9d81278992624c895f80dd42a50cac0aa55982e2) compiled by '@Darwin' on 04/03/2020

   xtb is free software: you can redistribute it and/or modify it under
   the terms of the GNU Lesser General Public License as published by
   the Free Software Foundation, either version 3 of the License, or
   (at your option) any later version.
   
   xtb is distributed in the hope that it will be useful,
   but WITHOUT ANY WARRANTY; without even the implied warranty of
   MERCHANTABILITY or FITNESS FOR A PARTICULAR PURPOSE.  See the
   GNU Lesser General Public License for more details.
   
   Cite this work as:
   * S. Grimme, C. Bannwarth, P. Shushkov, J. Chem. Theory Comput., 2017,
     13, 1989-2009. DOI: 10.1021/acs.jctc.7b00118
   * C. Bannwarth, S. Ehlert and S. Grimme., J. Chem. Theory Comput., 2019,
     15, 1652-1671. DOI: 10.1021/acs.jctc.8b01176
   * P. Pracht, E. Caldeweyher, S. Ehlert, S. Grimme, ChemRxiv, 2019, preprint.
     DOI: 10.26434/chemrxiv.8326202.v1
   
   for DFT-D4:
   * E. Caldeweyher, C. Bannwarth and S. Grimme, J. Chem. Phys., 2017,
     147, 034112. DOI: 10.1063/1.4993215
   * E. Caldeweyher, S. Ehlert, A. Hansen, H. Neugebauer, S. Spicher,
     C. Bannwarth and S. Grimme, J. Chem. Phys., 2019, 150, 154122.
     DOI: 10.1063/1.5090222
   
   for sTDA-xTB:
   * S. Grimme and C. Bannwarth, J. Chem. Phys., 2016, 145, 054103.
     DOI: 10.1063/1.4959605
   
   in the mass-spec context:
   * V. Asgeirsson, C. Bauer and S. Grimme, Chem. Sci., 2017, 8, 4879.
     DOI: 10.1039/c7sc00601b
   
   for metadynamics refer to:
   * S. Grimme, J. Chem. Theory Comput., 2019, 155, 2847-2862
     DOI: 10.1021/acs.jctc.9b00143
   
   with help from (in alphabetical order)
   C. Bannwarth, F. Bohle, G. Brandenburg, E. Caldeweyher, M. Checinski,
   S. Dohm, S. Ehlert, S. Ehrlich, F. März, H. Neugebauer, J. Pisarek,
   P. Pracht, P. Shushkov, and S. Spicher.
   
 * started run on 2020/05/12 at 11:43:54.940     

           -------------------------------------------------
          |                Calculation Setup                |
           -------------------------------------------------

          program call               : xtb --input H2O2_0_S_0.input H2O2_0_S_0.xyz --ohess --molden --namespace H2O2_0_S_0 output.out
          calculation namespace      : H2O2_0_S_0
          coordinate file            : H2O2_0_S_0.xyz
          number of atoms            :                     4
          number of electrons        :                    14
          charge                     :                     0
          spin                       :                   0.0
          first test random number   :      0.84579765434519

   ID    Z sym.   atoms
    1    8 O      1, 2
    2    1 H      3, 4

           -------------------------------------------------
          |                 G F N 2 - x T B                 |
           -------------------------------------------------

        Reference                      10.1021/acs.jctc.8b01176
      * Hamiltonian:
        H0-scaling (s, p, d)           1.850000    2.230000    2.230000
        zeta-weighting                 0.500000
      * Dispersion:
        s8                             2.700000
        a1                             0.520000
        a2                             5.000000
        s9                             5.000000
      * Repulsion:
        kExp                           1.500000    1.000000
        rExp                           1.000000
      * Coulomb:
        alpha                          2.000000
        third order                    shell-resolved
        anisotropic                    true
        a3                             3.000000
        a5                             4.000000
        cn-shift                       1.200000
        cn-exp                         4.000000
        max-rad                        5.000000


          ...................................................
          :                      SETUP                      :
          :.................................................:
          :  # basis functions                  10          :
          :  # atomic orbitals                  10          :
          :  # shells                            6          :
          :  # electrons                        14          :
          :  max. iterations                   250          :
          :  Hamiltonian                  GFN2-xTB          :
          :  restarted?                      false          :
          :  GBSA solvation                  false          :
          :  PC potential                    false          :
          :  electronic temp.          300.0000000     K    :
          :  accuracy                    1.0000000          :
          :  -> integral cutoff          0.2500000E+02      :
          :  -> integral neglect         0.1000000E-07      :
          :  -> SCF convergence          0.1000000E-05 Eh   :
          :  -> wf. convergence          0.1000000E-03 e    :
          :  Broyden damping             0.4000000          :
          ...................................................

 iter      E             dE          RMSdq      gap      omega  full diag
   1     -9.0715259 -0.907153E+01  0.600E+00   11.04       0.0  T
   2     -9.0722557 -0.729854E-03  0.355E+00   11.07       1.0  T
   3     -9.0725324 -0.276696E-03  0.241E-01   11.12       1.0  T
   4     -9.0725641 -0.316745E-04  0.657E-02   11.14       1.0  T
   5     -9.0725672 -0.311305E-05  0.322E-02   11.13       1.6  T
   6     -9.0725674 -0.136052E-06  0.295E-03   11.14      17.0  T
   7     -9.0725674 -0.229322E-08  0.764E-04   11.14      65.5  T
   8     -9.0725674 -0.251440E-09  0.372E-05   11.14    1344.6  T

   *** convergence criteria satisfied after 8 iterations ***

         #    Occupation            Energy/Eh            Energy/eV
      -------------------------------------------------------------
         1        2.0000           -0.7380243             -20.0827
         2        2.0000           -0.6991624             -19.0252
         3        2.0000           -0.6236880             -16.9714
         4        2.0000           -0.6092559             -16.5787
         5        2.0000           -0.5739260             -15.6173
         6        2.0000           -0.4582390             -12.4693
         7        2.0000           -0.4420080             -12.0277 (HOMO)
         8                         -0.0327927              -0.8923 (LUMO)
         9                          0.0692305               1.8839
        10                          0.1215344               3.3071
      -------------------------------------------------------------
                  HL-Gap            0.4092153 Eh           11.1353 eV
             Fermi-level           -0.2374004 Eh           -6.4600 eV

 SCC (total)                   0 d,  0 h,  0 min,  0.001 sec
 SCC setup                      ...        0 min,  0.000 sec (  5.560%)
 Dispersion                     ...        0 min,  0.000 sec (  0.574%)
 integral evaluation            ...        0 min,  0.000 sec ( 24.713%)
 zeroth order Hamiltonian       ...        0 min,  0.000 sec (  1.009%)
 iterations                     ...        0 min,  0.001 sec ( 41.571%)
 molecular gradient             ...        0 min,  0.000 sec ( 22.913%)
 printout                       ...        0 min,  0.000 sec (  3.146%)

         :::::::::::::::::::::::::::::::::::::::::::::::::::::
         ::                     SUMMARY                     ::
         :::::::::::::::::::::::::::::::::::::::::::::::::::::
         :: total energy              -9.044950108289 Eh    ::
         :: gradient norm              0.116915138487 Eh/a0 ::
         :: HOMO-LUMO gap             11.135315417737 eV    ::
         ::.................................................::
         :: SCC energy                -9.072567353284 Eh    ::
         :: -> isotropic ES            0.031426042937 Eh    ::
         :: -> anisotropic ES         -0.003326092220 Eh    ::
         :: -> anisotropic XC         -0.012850398734 Eh    ::
         :: -> dispersion             -0.000471918396 Eh    ::
         :: repulsion energy           0.027617244067 Eh    ::
         :: add. restraining           0.000000000000 Eh    ::
         :::::::::::::::::::::::::::::::::::::::::::::::::::::

      ----------------------------------------------------------- 
     |                   =====================                   |
     |                        A N C O P T                        |
     |                   =====================                   |
     |               Approximate Normal Coordinate               |
     |                Rational Function Optimizer                |
      ----------------------------------------------------------- 

          ...................................................
          :                      SETUP                      :
          :.................................................:
          :   optimization level            normal          :
          :   max. optcycles                   200          :
          :   ANC micro-cycles                  20          :
          :   degrees of freedom                 6          :
          :.................................................:
          :   RF solver                   davidson          :
          :   write xtbopt.log                true          :
          :   linear?                        false          :
          :   energy convergence         0.5000000E-05 Eh   :
          :   grad. convergence          0.1000000E-02 Eh/α :
          :   maximium RF displ.         1.0000000          :
          :   Hlow (freq-cutoff)         0.1000000E-01      :
          :   Hmax (freq-cutoff)         5.0000000          :
          :   S6 in model hess.         20.0000000          :
          ...................................................

generating ANC from model Hessian ...
Using Lindh-Hessian (1995)
 Shifting diagonal of input Hessian by    0.0000000000000000     
 Lowest  eigenvalues of input Hessian
   -0.000000    0.000000    0.000000    0.000000    0.000000    0.000000
    0.038674    0.219289    0.324351    1.156349    1.174508    1.604460
 Highest eigenvalues
    0.038674    0.219289    0.324351    1.156349    1.174508    1.604460


........................................................................
.............................. CYCLE    1 ..............................
........................................................................
   1     -9.0725674 -0.907257E+01  0.195E-06   11.14       0.0  T
   2     -9.0725674 -0.355271E-14  0.935E-07   11.14   53462.4  T
   3     -9.0725674  0.710543E-14  0.276E-07   11.14  100000.0  T
     SCC iter.                  ...        0 min,  0.000 sec
     gradient                   ...        0 min,  0.000 sec
 * total energy  :    -9.0449501 Eh     change        0.6388490E-10 Eh
   gradient norm :     0.1169153 Eh/α   predicted     0.0000000E+00 (-100.00%)
   displ. norm   :     0.1388760 α      lambda       -0.9971946E-02
   maximum displ.:     0.0925706 α      in ANC's #1, #2, #6, ...

........................................................................
.............................. CYCLE    2 ..............................
........................................................................
   1     -9.0806888 -0.908069E+01  0.429E-01    9.31       0.0  T
   2     -9.0807253 -0.365505E-04  0.263E-01    9.31       1.0  T
   3     -9.0807348 -0.947080E-05  0.496E-02    9.31       1.0  T
   4     -9.0807359 -0.110254E-05  0.819E-03    9.31       6.1  T
   5     -9.0807359 -0.881142E-08  0.151E-03    9.31      33.0  T
   6     -9.0807359 -0.375385E-09  0.428E-04    9.31     117.0  T
   7     -9.0807359 -0.150742E-10  0.158E-05    9.31    3168.0  T
     SCC iter.                  ...        0 min,  0.000 sec
     gradient                   ...        0 min,  0.000 sec
 * total energy  :    -9.0513161 Eh     change       -0.6365957E-02 Eh
   gradient norm :     0.0397687 Eh/α   predicted    -0.5082137E-02 ( -20.17%)
   displ. norm   :     0.0964635 α      lambda       -0.1754405E-02
   maximum displ.:     0.0885486 α      in ANC's #1, #6, #4, ...

........................................................................
.............................. CYCLE    3 ..............................
........................................................................
   1     -9.0836521 -0.908365E+01  0.386E-01    8.54       0.0  T
   2     -9.0836644 -0.123024E-04  0.242E-01    8.54       1.0  T
   3     -9.0836695 -0.512779E-05  0.277E-02    8.54       1.8  T
   4     -9.0836699 -0.413218E-06  0.672E-03    8.54       7.4  T
   5     -9.0836699 -0.503545E-08  0.950E-04    8.54      52.6  T
   6     -9.0836699 -0.124393E-09  0.234E-04    8.54     213.4  T
     SCC iter.                  ...        0 min,  0.000 sec
     gradient                   ...        0 min,  0.000 sec
 * total energy  :    -9.0524711 Eh     change       -0.1154995E-02 Eh
   gradient norm :     0.0106745 Eh/α   predicted    -0.8853673E-03 ( -23.34%)
   displ. norm   :     0.1262799 α      lambda       -0.6262093E-03
   maximum displ.:     0.1216991 α      in ANC's #1, #2, #6, ...

........................................................................
.............................. CYCLE    4 ..............................
........................................................................
   1     -9.0837877 -0.908379E+01  0.526E-01    8.08       0.0  T
   2     -9.0837956 -0.795805E-05  0.329E-01    8.08       1.0  T
   3     -9.0838009 -0.523481E-05  0.175E-02    8.08       2.9  T
   4     -9.0838009 -0.650287E-07  0.441E-03    8.08      11.3  T
   5     -9.0838009 -0.379933E-08  0.113E-03    8.08      44.2  T
   6     -9.0838009 -0.524345E-09  0.202E-04    8.08     248.1  T
   7     -9.0838009 -0.325251E-11  0.928E-06    8.08    5385.4  T
     SCC iter.                  ...        0 min,  0.000 sec
     gradient                   ...        0 min,  0.000 sec
 * total energy  :    -9.0529323 Eh     change       -0.4612605E-03 Eh
   gradient norm :     0.0078546 Eh/α   predicted    -0.3180987E-03 ( -31.04%)
   displ. norm   :     0.1686070 α      lambda       -0.5051792E-03
   maximum displ.:     0.1607004 α      in ANC's #1, #2, #6, ...

........................................................................
.............................. CYCLE    5 ..............................
........................................................................
   1     -9.0825908 -0.908259E+01  0.677E-01    7.72       0.0  T
   2     -9.0826005 -0.974692E-05  0.421E-01    7.72       1.0  T
   3     -9.0826072 -0.664136E-05  0.174E-02    7.72       2.9  T
   4     -9.0826072 -0.331374E-07  0.267E-03    7.72      18.7  T
   5     -9.0826072 -0.135693E-08  0.815E-04    7.72      61.3  T
   6     -9.0826072 -0.264496E-09  0.213E-04    7.72     234.7  T
     SCC iter.                  ...        0 min,  0.000 sec
     gradient                   ...        0 min,  0.000 sec
 * total energy  :    -9.0532141 Eh     change       -0.2818234E-03 Eh
   gradient norm :     0.0194922 Eh/α   predicted    -0.2597691E-03 (  -7.83%)
   displ. norm   :     0.0525900 α      lambda       -0.3156759E-03
   maximum displ.:     0.0404870 α      in ANC's #1, #2, #4, ...

........................................................................
.............................. CYCLE    6 ..............................
........................................................................
   1     -9.0842187 -0.908422E+01  0.193E-01    7.72       0.0  T
   2     -9.0842204 -0.172413E-05  0.120E-01    7.72       1.0  T
   3     -9.0842213 -0.931793E-06  0.105E-02    7.72       4.7  T
   4     -9.0842214 -0.393281E-07  0.273E-03    7.72      18.3  T
   5     -9.0842214 -0.113138E-08  0.430E-04    7.72     116.3  T
   6     -9.0842214 -0.431513E-10  0.634E-05    7.72     789.0  T
     SCC iter.                  ...        0 min,  0.000 sec
     gradient                   ...        0 min,  0.000 sec
 * total energy  :    -9.0534712 Eh     change       -0.2570923E-03 Eh
   gradient norm :     0.0141931 Eh/α   predicted    -0.1582740E-03 ( -38.44%)
   displ. norm   :     0.1881559 α      lambda       -0.6140543E-03
   maximum displ.:     0.1705073 α      in ANC's #1, #2, #4, ...

........................................................................
.............................. CYCLE    7 ..............................
........................................................................
   1     -9.0844073 -0.908441E+01  0.663E-01    7.71       0.0  T
   2     -9.0844157 -0.837907E-05  0.410E-01    7.71       1.0  T
   3     -9.0844212 -0.547713E-05  0.180E-02    7.71       2.8  T
   4     -9.0844212 -0.494419E-07  0.391E-03    7.71      12.8  T
   5     -9.0844212 -0.298350E-08  0.124E-03    7.71      40.4  T
   6     -9.0844212 -0.685322E-09  0.216E-04    7.71     231.3  T
   7     -9.0844212 -0.366818E-11  0.673E-06    7.71    7427.5  T
     SCC iter.                  ...        0 min,  0.000 sec
     gradient                   ...        0 min,  0.000 sec
 * total energy  :    -9.0538971 Eh     change       -0.4258813E-03 Eh
   gradient norm :     0.0142925 Eh/α   predicted    -0.3178978E-03 ( -25.36%)
   displ. norm   :     0.1190416 α      lambda       -0.5749470E-03
   maximum displ.:     0.0979999 α      in ANC's #1, #4, #2, ...

........................................................................
.............................. CYCLE    8 ..............................
........................................................................
   1     -9.0870707 -0.908707E+01  0.385E-01    7.92       0.0  T
   2     -9.0870753 -0.467104E-05  0.236E-01    7.92       1.0  T
   3     -9.0870778 -0.241780E-05  0.174E-02    7.92       2.9  T
   4     -9.0870779 -0.981324E-07  0.447E-03    7.92      11.2  T
   5     -9.0870779 -0.313761E-08  0.101E-03    7.92      49.6  T
   6     -9.0870779 -0.236763E-09  0.124E-04    7.92     401.9  T
   7     -9.0870779 -0.113864E-11  0.425E-06    7.92   11754.5  T
     SCC iter.                  ...        0 min,  0.000 sec
     gradient                   ...        0 min,  0.000 sec
 * total energy  :    -9.0541901 Eh     change       -0.2929907E-03 Eh
   gradient norm :     0.0086961 Eh/α   predicted    -0.2915488E-03 (  -0.49%)
   displ. norm   :     0.2756370 α      lambda       -0.4994725E-03
   maximum displ.:     0.2536252 α      in ANC's #1, #4, #2, ...

........................................................................
.............................. CYCLE    9 ..............................
........................................................................
   1     -9.0807622 -0.908076E+01  0.855E-01    7.81       0.0  T
   2     -9.0807742 -0.119478E-04  0.524E-01    7.81       1.0  T
   3     -9.0807804 -0.625769E-05  0.166E-02    7.81       3.0  T
   4     -9.0807806 -0.123358E-06  0.322E-03    7.81      15.5  T
   5     -9.0807806  0.478728E-11  0.137E-03    7.81      36.5  T
   6     -9.0807806 -0.196259E-09  0.751E-05    7.81     665.8  T
   7     -9.0807806 -0.733635E-12  0.406E-06    7.81   12310.3  T
     SCC iter.                  ...        0 min,  0.000 sec
     gradient                   ...        0 min,  0.000 sec
 * total energy  :    -9.0538420 Eh     change        0.3481086E-03 Eh
   gradient norm :     0.0365366 Eh/α   predicted    -0.2687112E-03 (-177.19%)
   displ. norm   :     0.1754956 α      lambda       -0.1523149E-02
   maximum displ.:     0.1616164 α      in ANC's #1, #4, #2, ...

........................................................................
.............................. CYCLE   10 ..............................
........................................................................
   1     -9.0868410 -0.908684E+01  0.552E-01    7.74       0.0  T
   2     -9.0868529 -0.118994E-04  0.337E-01    7.74       1.0  T
   3     -9.0868571 -0.425557E-05  0.248E-02    7.75       2.0  T
   4     -9.0868575 -0.345755E-06  0.404E-03    7.75      12.4  T
   5     -9.0868575 -0.786887E-09  0.147E-03    7.75      34.0  T
   6     -9.0868575 -0.174449E-09  0.157E-04    7.75     318.7  T
   7     -9.0868575 -0.342659E-11  0.355E-06    7.75   14067.0  T
     SCC iter.                  ...        0 min,  0.000 sec
     gradient                   ...        0 min,  0.000 sec
 * total energy  :    -9.0544049 Eh     change       -0.5628598E-03 Eh
   gradient norm :     0.0041736 Eh/α   predicted    -0.7850315E-03 (  39.47%)
   displ. norm   :     0.0541673 α      lambda       -0.8817439E-04
   maximum displ.:     0.0474400 α      in ANC's #1, #4, #2, ...

........................................................................
.............................. CYCLE   11 ..............................
........................................................................
   1     -9.0868160 -0.908682E+01  0.166E-01    7.68       0.0  T
   2     -9.0868164 -0.420819E-06  0.102E-01    7.68       1.0  T
   3     -9.0868167 -0.258939E-06  0.301E-03    7.68      16.6  T
   4     -9.0868167 -0.149511E-08  0.754E-04    7.68      66.3  T
   5     -9.0868167 -0.605684E-10  0.256E-04    7.68     195.2  T
     SCC iter.                  ...        0 min,  0.000 sec
     gradient                   ...        0 min,  0.000 sec
 * total energy  :    -9.0544838 Eh     change       -0.7890224E-04 Eh
   gradient norm :     0.0028996 Eh/α   predicted    -0.4421643E-04 ( -43.96%)
   displ. norm   :     0.2265031 α      lambda       -0.2836376E-03
   maximum displ.:     0.1945745 α      in ANC's #1, #4, #2, ...

........................................................................
.............................. CYCLE   12 ..............................
........................................................................
   1     -9.0843166 -0.908432E+01  0.680E-01    7.52       0.0  T
   2     -9.0843226 -0.607249E-05  0.417E-01    7.52       1.0  T
   3     -9.0843263 -0.369786E-05  0.799E-03    7.52       6.3  T
   4     -9.0843263 -0.303284E-08  0.197E-03    7.52      25.3  T
   5     -9.0843263  0.152660E-10  0.364E-04    7.52     137.5  T
   6     -9.0843263 -0.683720E-10  0.220E-05    7.52    2271.7  T
     SCC iter.                  ...        0 min,  0.000 sec
     gradient                   ...        0 min,  0.000 sec
 * total energy  :    -9.0545049 Eh     change       -0.2117147E-04 Eh
   gradient norm :     0.0157776 Eh/α   predicted    -0.1490979E-03 ( 604.24%)
   displ. norm   :     0.1072836 α      lambda       -0.3106961E-03
   maximum displ.:     0.0952528 α      in ANC's #1, #4, #2, ...

........................................................................
.............................. CYCLE   13 ..............................
........................................................................
   1     -9.0871174 -0.908712E+01  0.324E-01    7.58       0.0  T
   2     -9.0871203 -0.288857E-05  0.198E-01    7.58       1.0  T
   3     -9.0871215 -0.122949E-05  0.113E-02    7.58       4.4  T
   4     -9.0871216 -0.661523E-07  0.217E-03    7.58      23.1  T
   5     -9.0871216 -0.299757E-09  0.798E-04    7.58      62.7  T
   6     -9.0871216 -0.721201E-10  0.849E-05    7.58     588.7  T
     SCC iter.                  ...        0 min,  0.001 sec
     gradient                   ...        0 min,  0.000 sec
 * total energy  :    -9.0546046 Eh     change       -0.9969085E-04 Eh
   gradient norm :     0.0011079 Eh/α   predicted    -0.1571369E-03 (  57.62%)
   displ. norm   :     0.0653917 α      lambda       -0.3223215E-04
   maximum displ.:     0.0528050 α      in ANC's #1, #4, #2, ...

........................................................................
.............................. CYCLE   14 ..............................
........................................................................
   1     -9.0868578 -0.908686E+01  0.197E-01    7.56       0.0  T
   2     -9.0868583 -0.513611E-06  0.121E-01    7.56       1.0  T
   3     -9.0868586 -0.315403E-06  0.229E-03    7.56      21.8  T
   4     -9.0868586 -0.126231E-09  0.569E-04    7.56      87.8  T
   5     -9.0868586 -0.728306E-11  0.739E-05    7.56     676.4  T
     SCC iter.                  ...        0 min,  0.000 sec
     gradient                   ...        0 min,  0.000 sec
 * total energy  :    -9.0546414 Eh     change       -0.3678571E-04 Eh
   gradient norm :     0.0022728 Eh/α   predicted    -0.1614883E-04 ( -56.10%)
   displ. norm   :     0.0543559 α      lambda       -0.2751601E-04
   maximum displ.:     0.0413100 α      in ANC's #1, #4, #2, ...

........................................................................
.............................. CYCLE   15 ..............................
........................................................................
   1     -9.0868512 -0.908685E+01  0.163E-01    7.57       0.0  T
   2     -9.0868515 -0.348930E-06  0.998E-02    7.57       1.0  T
   3     -9.0868517 -0.214043E-06  0.189E-03    7.57      26.5  T
   4     -9.0868517 -0.949267E-10  0.471E-04    7.57     106.1  T
   5     -9.0868517 -0.472866E-11  0.637E-05    7.57     785.1  T
     SCC iter.                  ...        0 min,  0.000 sec
     gradient                   ...        0 min,  0.000 sec
 * total energy  :    -9.0546603 Eh     change       -0.1889794E-04 Eh
   gradient norm :     0.0024459 Eh/α   predicted    -0.1379849E-04 ( -26.98%)
   displ. norm   :     0.0323258 α      lambda       -0.1171613E-04
   maximum displ.:     0.0227402 α      in ANC's #1, #4, #2, ...

........................................................................
.............................. CYCLE   16 ..............................
........................................................................
   1     -9.0870688 -0.908707E+01  0.963E-02    7.58       0.0  T
   2     -9.0870689 -0.131997E-06  0.591E-02    7.58       1.0  T
   3     -9.0870690 -0.781907E-07  0.143E-03    7.58      35.1  T
   4     -9.0870690 -0.432795E-09  0.359E-04    7.58     139.3  T
   5     -9.0870690 -0.381384E-11  0.132E-04    7.58     379.8  T
     SCC iter.                  ...        0 min,  0.000 sec
     gradient                   ...        0 min,  0.000 sec
 * total energy  :    -9.0546680 Eh     change       -0.7707456E-05 Eh
   gradient norm :     0.0013451 Eh/α   predicted    -0.5865255E-05 ( -23.90%)
   displ. norm   :     0.0169509 α      lambda       -0.2957529E-05
   maximum displ.:     0.0111684 α      in ANC's #4, #1, #2, ...

........................................................................
.............................. CYCLE   17 ..............................
........................................................................
   1     -9.0874165 -0.908742E+01  0.506E-02    7.58       0.0  T
   2     -9.0874165 -0.572707E-07  0.310E-02    7.58       1.6  T
   3     -9.0874166 -0.280127E-07  0.148E-03    7.58      33.7  T
   4     -9.0874166 -0.973282E-09  0.329E-04    7.58     151.8  T
   5     -9.0874166 -0.113669E-10  0.780E-05    7.58     641.4  T
     SCC iter.                  ...        0 min,  0.000 sec
     gradient                   ...        0 min,  0.000 sec
 * total energy  :    -9.0546695 Eh     change       -0.1502044E-05 Eh
   gradient norm :     0.0005774 Eh/α   predicted    -0.1479216E-05 (  -1.52%)
   displ. norm   :     0.0037798 α      lambda       -0.3369208E-06
   maximum displ.:     0.0033764 α      in ANC's #1, #4, #2, ...

   *** GEOMETRY OPTIMIZATION CONVERGED AFTER 17 ITERATIONS ***

------------------------------------------------------------------------
 total energy gain   :        -0.0097194 Eh       -6.0990 kcal/mol
 total RMSD          :         0.6180812 a0        0.3271 Å
 total power (kW/mol):        -1.5010769 (step)-1566.8731 (real)
------------------------------------------------------------------------

 ANCopt (total)                0 d,  0 h,  0 min,  0.016 sec
 optimizer setup                ...        0 min,  0.000 sec (  0.331%)
 model hessian                  ...        0 min,  0.000 sec (  0.360%)
 ANC generation                 ...        0 min,  0.000 sec (  0.234%)
 coordinate transformation      ...        0 min,  0.000 sec (  0.214%)
 single point calculation       ...        0 min,  0.015 sec ( 92.049%)
 optimization log               ...        0 min,  0.000 sec (  2.565%)
 hessian update                 ...        0 min,  0.000 sec (  0.164%)
 rational function              ...        0 min,  0.000 sec (  1.586%)

================
 final structure:
================
4
 xtb: 6.2.2 (9d81278992624c895f80dd42a50cac0aa55982e2)
O         0.63295634893396   -0.03328394522340    0.32079679525306
O        -0.63296019147955    0.03306912045448   -0.32081052542035
H         1.24114207814672    0.00240754996854   -0.42797521713311
H        -1.24113723560114   -0.00219172519963    0.42798894730040

 Bond Distances (Angstroems)
 ---------------------------
O1-O2=1.4208         O1-H3=0.9653         O2-O1=1.4208         O2-H4=0.9653         H3-O1=0.9653         H4-O2=0.9653         
 O  H  Rav=0.9653 sigma=0.0000  Rmin=0.9653  Rmax=0.9653     2
 O  O  Rav=1.4208 sigma=0.0000  Rmin=1.4208  Rmax=1.4208     1

 selected bond angles (degree)
 --------------------
H3-O1-O2=102.08                H4-O2-O1=102.08                

 selected dihedral angles (degree)
 ---------------------------------
H4-O2-O1-H3=180.03            
           -------------------------------------------------
          |                Final Singlepoint                |
           -------------------------------------------------

          ...................................................
          :                      SETUP                      :
          :.................................................:
          :  # basis functions                  10          :
          :  # atomic orbitals                  10          :
          :  # shells                            6          :
          :  # electrons                        14          :
          :  max. iterations                   250          :
          :  Hamiltonian                  GFN2-xTB          :
          :  restarted?                      false          :
          :  GBSA solvation                  false          :
          :  PC potential                    false          :
          :  electronic temp.          300.0000000     K    :
          :  accuracy                    1.0000000          :
          :  -> integral cutoff          0.2500000E+02      :
          :  -> integral neglect         0.1000000E-07      :
          :  -> SCF convergence          0.1000000E-05 Eh   :
          :  -> wf. convergence          0.1000000E-03 e    :
          :  Broyden damping             0.4000000          :
          ...................................................

 iter      E             dE          RMSdq      gap      omega  full diag
   1     -9.0874166 -0.908742E+01  0.918E-06    7.58       0.0  T
   2     -9.0874166 -0.213163E-13  0.621E-06    7.58    8052.8  T
   3     -9.0874166 -0.142109E-13  0.640E-07    7.58   78150.1  T

   *** convergence criteria satisfied after 3 iterations ***

         #    Occupation            Energy/Eh            Energy/eV
      -------------------------------------------------------------
         1        2.0000           -0.7241952             -19.7064
         2        2.0000           -0.6962332             -18.9455
         3        2.0000           -0.6154080             -16.7461
         4        2.0000           -0.5977261             -16.2650
         5        2.0000           -0.5465951             -14.8736
         6        2.0000           -0.5157374             -14.0339
         7        2.0000           -0.4282196             -11.6524 (HOMO)
         8                         -0.1495722              -4.0701 (LUMO)
         9                          0.1144302               3.1138
        10                          0.1569291               4.2703
      -------------------------------------------------------------
                  HL-Gap            0.2786474 Eh            7.5824 eV
             Fermi-level           -0.2888959 Eh           -7.8613 eV

 SCC (total)                   0 d,  0 h,  0 min,  0.001 sec
 SCC setup                      ...        0 min,  0.000 sec (  7.877%)
 Dispersion                     ...        0 min,  0.000 sec (  0.403%)
 integral evaluation            ...        0 min,  0.000 sec ( 42.705%)
 zeroth order Hamiltonian       ...        0 min,  0.000 sec (  0.498%)
 iterations                     ...        0 min,  0.000 sec ( 13.832%)
 molecular gradient             ...        0 min,  0.000 sec ( 30.866%)
 printout                       ...        0 min,  0.000 sec (  3.084%)

         :::::::::::::::::::::::::::::::::::::::::::::::::::::
         ::                     SUMMARY                     ::
         :::::::::::::::::::::::::::::::::::::::::::::::::::::
         :: total energy              -9.054669517927 Eh    ::
         :: gradient norm              0.000576843498 Eh/a0 ::
         :: HOMO-LUMO gap              7.582381060617 eV    ::
         ::.................................................::
         :: SCC energy                -9.087416575128 Eh    ::
         :: -> isotropic ES            0.030618754571 Eh    ::
         :: -> anisotropic ES         -0.006197091164 Eh    ::
         :: -> anisotropic XC         -0.008118654246 Eh    ::
         :: -> dispersion             -0.000468525173 Eh    ::
         :: repulsion energy           0.032747058082 Eh    ::
         :: add. restraining           0.000000000000 Eh    ::
         :::::::::::::::::::::::::::::::::::::::::::::::::::::

           ------------------------------------------------- 
          |                Numerical Hessian                |
           ------------------------------------------------- 
step length          :   0.00500
SCC accuracy         :   0.30000
Hessian scale factor :   1.00000
frozen atoms in %    :   0.00000    0
RMS gradient         :   0.00058
estimated CPU  time      0.00 min
estimated wall time      0.00 min

writing file <hessian>.

 projected vibrational frequencies (cm-1)
eigval :       -0.00    -0.00    -0.00     0.00     0.00     0.00
eigval :      241.74  1108.05  1155.32  1354.98  3541.41  3544.82
           -------------------------------------------------
          |                Property Printout                |
           -------------------------------------------------

    * Orbital Energies and Occupations

         #    Occupation            Energy/Eh            Energy/eV
      -------------------------------------------------------------
         1        2.0000           -0.7241952             -19.7064
         2        2.0000           -0.6962332             -18.9455
         3        2.0000           -0.6154080             -16.7461
         4        2.0000           -0.5977261             -16.2650
         5        2.0000           -0.5465951             -14.8736
         6        2.0000           -0.5157374             -14.0339
         7        2.0000           -0.4282196             -11.6524 (HOMO)
         8                         -0.1495722              -4.0701 (LUMO)
         9                          0.1144302               3.1138
        10                          0.1569291               4.2703
      -------------------------------------------------------------
                  HL-Gap            0.2786474 Eh            7.5824 eV
             Fermi-level           -0.2888959 Eh           -7.8613 eV

     #   Z        covCN         q      C6AA      α(0)
     1   8 O      1.736    -0.324    19.406     5.948
     2   8 O      1.736    -0.324    19.406     5.948
     3   1 H      0.805     0.324     0.653     1.270
     4   1 H      0.805     0.324     0.653     1.270

 Mol. C6AA /au·bohr⁶  :        108.199003
 Mol. C8AA /au·bohr⁸  :       2034.816270
 Mol. α(0) /au        :         14.435698


Wiberg/Mayer (AO) data.
largest (>0.10) Wiberg bond orders for each atom
          total WBO             WBO to atom ...
     1  O   1.895        O    2 1.004    H    3 0.891
     2  O   1.895        O    1 1.004    H    4 0.891
     3  H   0.895        O    1 0.891
     4  H   0.895        O    2 0.891

MOs/occ written to file <molden.input>


molecular dipole:
Molecule has the following symmetry elements: (i) (C2) (sigma) 
It seems to be the C2h point group
                 x           y           z       tot (Debye)
 q only:        0.000       0.000       0.000
   full:        0.000       0.000       0.000       0.001
molecular quadrupole (traceless):
                xx          xy          yy          xz          yz          zz
 q only:        2.545       0.083      -1.413      -2.547       0.034      -1.131
  q+dip:        2.454       0.201      -1.149      -4.290       0.097      -1.304
   full:        3.112       0.150      -1.824      -3.912       0.045      -1.289

           -------------------------------------------------
          |                Geometry Summary                 |
           -------------------------------------------------

      molecular mass/u    :       34.0146913
   center of mass at/Å    :       -0.0000017      -0.0000947      -0.0000061
  moments of inertia/u·Å² :        0.1610211E+01   0.1801262E+02   0.1962283E+02
rotational constants/cm⁻¹ :        0.1046921E+02   0.9358788E+00   0.8590824E+00

 * 3 selected distances

     #   Z        #   Z                                     value/Å
     1   8 O      2   8 O                                 1.4207770 (max)
     1   8 O      3   1 H                                 0.9653099 (min)
     2   8 O      4   1 H                                 0.9653099

 * 2 distinct bonds (by element types)

   Z      Z             #   av. dist./Å        max./Å        min./Å
   1 H    8 O           2     0.9653099     0.9653099     0.9653099
   8 O    8 O           1     1.4207770     1.4207770     1.4207770

           -------------------------------------------------
          |               Frequency Printout                |
           -------------------------------------------------
 projected vibrational frequencies (cm-1)
eigval :       -0.00    -0.00    -0.00     0.00     0.00     0.00
eigval :      241.74  1108.05  1155.32  1354.98  3541.41  3544.82
 reduced masses (amu)
   1:  3.46   2: 14.28   3: 15.11   4: 15.77   5: 14.54   6: 12.54   7:  1.90   8: 15.47
   9:  1.90  10:  3.34  11:  1.87  12:  1.90
 IR intensities (amu)
   1:  0.09   2:  0.36   3:  0.39   4:  0.15   5:  0.22   6:  0.13   7:  0.77   8:  0.00
   9:  0.55  10:  0.00  11:  0.00  12:  0.38
 Raman intensities (amu)
   1:  0.00   2:  0.00   3:  0.00   4:  0.00   5:  0.00   6:  0.00   7:  0.00   8:  0.00
   9:  0.00  10:  0.00  11:  0.00  12:  0.00
 output can be read by thermo (or use thermo option).
 writing <g98.out> molden fake output.
 recommended (thermochemical) frequency scaling factor: 1.0
           -------------------------------------------------
          |             Thermodynamic Functions             |
           -------------------------------------------------

c2h symmetry found (for desy threshold:  0.10E+00) used in thermo

          ...................................................
          :                      SETUP                      :
          :.................................................:
          :  # frequencies                           6      :
          :  # imaginary freq.                       0      :
          :  linear?                             false      :
          :  only rotor calc.                    false      :
          :  symmetry                              c2h      :
          :  rotational number                       2      :
          :  scaling factor                  1.0000000      :
          :  rotor cutoff                   50.0000000 cm⁻¹ :
          :  imag. cutoff                  -20.0000000 cm⁻¹ :
          :.................................................:

    mode    ω/cm⁻¹     T·S(HO)/kcal·mol⁻¹    T·S(FR)/kcal·mol⁻¹   T·S(vib)
   ------------------------------------------------------------------------
       1    241.74    -0.00000 ( 99.82%)     0.01401 (  0.18%)     0.00003
   ------------------------------------------------------------------------

   temp. (K)  partition function   enthalpy   heat capacity  entropy
                                   cal/mol     cal/K/mol   cal/K/mol   J/K/mol
 298.15  VIB   1.47                  345.961      2.409      1.922
         ROT   911.                  888.752      2.981     16.524
         INT  0.134E+04             1234.713      5.390     18.446
         TR   0.192E+27             1481.254      4.968     36.487
         TOT                        2715.9670    10.3579    54.9328   229.8388

   temp. (K)  partition function   enthalpy   heat capacity  entropy
                                   cal/mol     cal/K/mol   cal/K/mol   J/K/mol
 120.00  VIB   1.06                   40.321      1.031      0.450
         ROT   233.                  357.707      2.981     13.811
         INT   246.                  398.028      4.012     14.260
         TR   0.490E+26              596.178      4.968     31.968
         TOT                         994.2058     8.9805    46.2282   193.4188

   temp. (K)  partition function   enthalpy   heat capacity  entropy
                                   cal/mol     cal/K/mol   cal/K/mol   J/K/mol
 100.00  VIB   1.03                   22.013      0.790      0.284
         ROT   177.                  298.089      2.981     13.267
         INT   183.                  320.102      3.771     13.551
         TR   0.373E+26              496.815      4.968     31.062
         TOT                         816.9174     8.7392    44.6131   186.6612

   temp. (K)  partition function   enthalpy   heat capacity  entropy
                                   cal/mol     cal/K/mol   cal/K/mol   J/K/mol
  80.00  VIB   1.01                    9.059      0.499      0.140
         ROT   127.                  238.471      2.981     12.602
         INT   128.                  247.530      3.480     12.742
         TR   0.267E+26              397.452      4.968     29.954
         TOT                         644.9822     8.4478    42.6964   178.6418

   temp. (K)  partition function   enthalpy   heat capacity  entropy
                                   cal/mol     cal/K/mol   cal/K/mol   J/K/mol
  60.00  VIB   1.00                    2.105      0.204      0.042
         ROT   82.3                  178.853      2.981     11.745
         INT   82.5                  180.959      3.185     11.786
         TR   0.173E+26              298.089      4.968     28.526
         TOT                         479.0479     8.1531    40.3120   168.6653

   temp. (K)  partition function   enthalpy   heat capacity  entropy
                                   cal/mol     cal/K/mol   cal/K/mol   J/K/mol
  40.00  VIB   1.00                    0.116      0.025      0.003
         ROT   44.8                  119.236      2.981     10.536
         INT   44.8                  119.351      3.006     10.539
         TR   0.943E+25              198.726      4.968     26.512
         TOT                         318.0773     7.9742    37.0513   155.0227

   temp. (K)  partition function   enthalpy   heat capacity  entropy
                                   cal/mol     cal/K/mol   cal/K/mol   J/K/mol
  20.00  VIB   1.00                    0.000      0.000     -0.001
         ROT   15.8                   59.618      2.981      8.470
         INT   15.8                   59.618      2.981      8.468
         TR   0.333E+25               99.363      4.968     23.070
         TOT                         158.9808     7.9491    31.5387   131.9578

   temp. (K)  partition function   enthalpy   heat capacity  entropy
                                   cal/mol     cal/K/mol   cal/K/mol   J/K/mol
  10.00  VIB   1.00                    0.000      0.000     -0.003
         ROT   5.60                   29.809      2.981      6.403
         INT   5.60                   29.809      2.981      6.401
         TR   0.118E+25               49.681      4.968     19.628
         TOT                          79.4904     7.9490    26.0292   108.9063

       T/K    H(0)-H(T)+PV         H(T)/Eh          T*S/Eh         G(T)/Eh
   ------------------------------------------------------------------------
    298.15    0.432817E-02    0.292657E-01    0.261003E-01    0.316539E-02
    120.00    0.158437E-02    0.265219E-01    0.884032E-02    0.176816E-01
    100.00    0.130184E-02    0.262394E-01    0.710955E-02    0.191299E-01
     80.00    0.102784E-02    0.259654E-01    0.544328E-02    0.205221E-01
     60.00    0.763411E-03    0.257010E-01    0.385447E-02    0.218465E-01
     40.00    0.506888E-03    0.254445E-01    0.236180E-02    0.230827E-01
     20.00    0.253352E-03    0.251909E-01    0.100520E-02    0.241857E-01
     10.00    0.126676E-03    0.250642E-01    0.414802E-03    0.246494E-01 (used)
   ------------------------------------------------------------------------

         :::::::::::::::::::::::::::::::::::::::::::::::::::::
         ::                  THERMODYNAMIC                  ::
         :::::::::::::::::::::::::::::::::::::::::::::::::::::
         :: total free energy          -9.030020077735 Eh   ::
         ::.................................................::
         :: total energy               -9.054669517930 Eh   ::
         :: zero point energy           0.024937566399 Eh   ::
         :: G(RRHO) w/o ZPVE           -0.000288126204 Eh   ::
         :: G(RRHO) contrib.            0.024649440195 Eh   ::
         :::::::::::::::::::::::::::::::::::::::::::::::::::::

optimized geometry written to: xtbopt.xyz


           -------------------------------------------------
          | TOTAL ENERGY               -9.054669517930 Eh   |
          | TOTAL ENTHALPY             -9.029605275515 Eh   |
          | TOTAL FREE ENERGY          -9.030020077735 Eh   |
          | GRADIENT NORM               0.000576834215 Eh/α |
          | HOMO-LUMO GAP               7.582381102932 eV   |
           -------------------------------------------------

------------------------------------------------------------------------
 * finished run on 2020/05/12 at 11:43:54.994     
------------------------------------------------------------------------
 total:
 * wall-time:     0 d,  0 h,  0 min,  0.053 sec
 *  cpu-time:     0 d,  0 h,  0 min,  0.053 sec
 * ratio c/w:     0.998 speedup
 SCF:
 * wall-time:     0 d,  0 h,  0 min,  0.001 sec
 *  cpu-time:     0 d,  0 h,  0 min,  0.001 sec
 * ratio c/w:     0.999 speedup
 ANC optimizer:
 * wall-time:     0 d,  0 h,  0 min,  0.018 sec
 *  cpu-time:     0 d,  0 h,  0 min,  0.018 sec
 * ratio c/w:     0.998 speedup
 numerical hessian:
 * wall-time:     0 d,  0 h,  0 min,  0.020 sec
 *  cpu-time:     0 d,  0 h,  0 min,  0.020 sec
 * ratio c/w:     0.999 speedup

