$hessian                                                                        
        0.4858739301  -0.0052994734  -0.0690906262  -0.2762439142   0.0137600597
       -0.1282884926  -0.1772971644  -0.0097091499   0.2070810932  -0.0323328514
        0.0012485635  -0.0097019744
       -0.0052994734   0.0027938143  -0.0256418688   0.0137558054   0.0000534921
        0.0112734722  -0.0076892177  -0.0018748312   0.0153280662  -0.0007671143
       -0.0009724753  -0.0009596697
       -0.0690906262  -0.0256418688   0.4238477501  -0.1282887486   0.0112740852
       -0.1354304439   0.1754433565   0.0159647348  -0.3056348914   0.0219360183
       -0.0015969513   0.0172175852
       -0.2762439142   0.0137558054  -0.1282887486   0.4858697333  -0.0054038466
       -0.0690937223  -0.0323331670   0.0012409484  -0.0097026575  -0.1772926521
       -0.0095929073   0.2070851284
        0.0137600597   0.0000534921   0.0112740852  -0.0054038466   0.0027756461
       -0.0254670128  -0.0007752029  -0.0009710318  -0.0009690266  -0.0075810103
       -0.0018581065   0.0151619542
       -0.1282884926   0.0112734722  -0.1354304439  -0.0690937223  -0.0254670128
        0.4238700849   0.0219353422  -0.0016051848   0.0172164619   0.1754468727
        0.0157987254  -0.3056561029
       -0.1772971644  -0.0076892177   0.1754433565  -0.0323331670  -0.0007752029
        0.0219353422   0.2167400314   0.0081577783  -0.1951612393  -0.0071097000
        0.0003066423  -0.0022174594
       -0.0097091499  -0.0018748312   0.0159647348   0.0012409484  -0.0009710318
       -0.0016051848   0.0081577783   0.0018077334  -0.0144280548   0.0003104231
        0.0010381295   0.0000685047
        0.2070810932   0.0153280662  -0.3056348914  -0.0097026575  -0.0009690266
        0.0172164619  -0.1951612393  -0.0144280548   0.2878152081  -0.0022171964
        0.0000690151   0.0006032214
       -0.0323328514  -0.0007671143   0.0219360183  -0.1772926521  -0.0075810103
        0.1754468727  -0.0071097000   0.0003104231  -0.0022171964   0.2167352034
        0.0080377014  -0.1951656946
        0.0012485635  -0.0009724753  -0.0015969513  -0.0095929073  -0.0018581065
        0.0157987254   0.0003066423   0.0010381295   0.0000690151   0.0080377014
        0.0017924523  -0.0142707893
       -0.0097019744  -0.0009596697   0.0172175852   0.2070851284   0.0151619542
       -0.3056561029  -0.0022174594   0.0000685047   0.0006032214  -0.1951656946
       -0.0142707893   0.2878352963
