 Entering Gaussian System, Link 0=g16
 Input=C7O_1X.com
 Output=C7O_1X.log
 Initial command:
 /home/spantaleone/g16/l1.exe "/scratch/cnt0027/pag0797/spantaleone/GAUSSIAN/gauss_scratch/Gau-21339.inp" -scrdir="/scratch/cnt0027/pag0797/spantaleone/GAUSSIAN/gauss_scratch/"
 Entering Link 1 = /home/spantaleone/g16/l1.exe PID=     21340.
  
 Copyright (c) 1988-2017, Gaussian, Inc.  All Rights Reserved.
  
 This is part of the Gaussian(R) 16 program.  It is based on
 the Gaussian(R) 09 system (copyright 2009, Gaussian, Inc.),
 the Gaussian(R) 03 system (copyright 2003, Gaussian, Inc.),
 the Gaussian(R) 98 system (copyright 1998, Gaussian, Inc.),
 the Gaussian(R) 94 system (copyright 1995, Gaussian, Inc.),
 the Gaussian 92(TM) system (copyright 1992, Gaussian, Inc.),
 the Gaussian 90(TM) system (copyright 1990, Gaussian, Inc.),
 the Gaussian 88(TM) system (copyright 1988, Gaussian, Inc.),
 the Gaussian 86(TM) system (copyright 1986, Carnegie Mellon
 University), and the Gaussian 82(TM) system (copyright 1983,
 Carnegie Mellon University). Gaussian is a federally registered
 trademark of Gaussian, Inc.
  
 This software contains proprietary and confidential information,
 including trade secrets, belonging to Gaussian, Inc.
  
 This software is provided under written license and may be
 used, copied, transmitted, or stored only in accord with that
 written license.
  
 The following legend is applicable only to US Government
 contracts under FAR:
  
                    RESTRICTED RIGHTS LEGEND
  
 Use, reproduction and disclosure by the US Government is
 subject to restrictions as set forth in subparagraphs (a)
 and (c) of the Commercial Computer Software - Restricted
 Rights clause in FAR 52.227-19.
  
 Gaussian, Inc.
 340 Quinnipiac St., Bldg. 40, Wallingford CT 06492
  
  
 ---------------------------------------------------------------
 Warning -- This program may not be used in any manner that
 competes with the business of Gaussian, Inc. or will provide
 assistance to any competitor of Gaussian, Inc.  The licensee
 of this program is prohibited from giving any competitor of
 Gaussian, Inc. access to this program.  By using this program,
 the user acknowledges that Gaussian, Inc. is engaged in the
 business of creating and licensing software in the field of
 computational chemistry and represents and warrants to the
 licensee that it is not a competitor of Gaussian, Inc. and that
 it will not use this program in any manner prohibited above.
 ---------------------------------------------------------------
  

 Cite this work as:
 Gaussian 16, Revision B.01,
 M. J. Frisch, G. W. Trucks, H. B. Schlegel, G. E. Scuseria, 
 M. A. Robb, J. R. Cheeseman, G. Scalmani, V. Barone, 
 G. A. Petersson, H. Nakatsuji, X. Li, M. Caricato, A. V. Marenich, 
 J. Bloino, B. G. Janesko, R. Gomperts, B. Mennucci, H. P. Hratchian, 
 J. V. Ortiz, A. F. Izmaylov, J. L. Sonnenberg, D. Williams-Young, 
 F. Ding, F. Lipparini, F. Egidi, J. Goings, B. Peng, A. Petrone, 
 T. Henderson, D. Ranasinghe, V. G. Zakrzewski, J. Gao, N. Rega, 
 G. Zheng, W. Liang, M. Hada, M. Ehara, K. Toyota, R. Fukuda, 
 J. Hasegawa, M. Ishida, T. Nakajima, Y. Honda, O. Kitao, H. Nakai, 
 T. Vreven, K. Throssell, J. A. Montgomery, Jr., J. E. Peralta, 
 F. Ogliaro, M. J. Bearpark, J. J. Heyd, E. N. Brothers, K. N. Kudin, 
 V. N. Staroverov, T. A. Keith, R. Kobayashi, J. Normand, 
 K. Raghavachari, A. P. Rendell, J. C. Burant, S. S. Iyengar, 
 J. Tomasi, M. Cossi, J. M. Millam, M. Klene, C. Adamo, R. Cammi, 
 J. W. Ochterski, R. L. Martin, K. Morokuma, O. Farkas, 
 J. B. Foresman, and D. J. Fox, Gaussian, Inc., Wallingford CT, 2016.
 
 ******************************************
 Gaussian 16:  ES64L-G16RevB.01 20-Dec-2017
                12-Oct-2020 
 ******************************************
 %nosave
 %nproc=24
 Will use up to   24 processors via shared memory.
 %mem=8gb
 %chk=input
 ----------------------------------------------------------------
 #P M062X/cc-pvtz nosymm opt(noeigentest) optcyc=120 freq scf=xqc
 ----------------------------------------------------------------
 1/6=120,11=1,18=20,19=15,26=3,38=1/1,3;
 2/9=110,12=2,15=1,17=6,18=5,40=1/2;
 3/5=16,6=1,11=2,25=1,30=1,71=1,74=-55/1,2,3;
 4//1;
 5/5=2,8=3,13=1,38=5/2,8;
 6/7=2,8=2,9=2,10=2,28=1/1;
 7/30=1/1,2,3,16;
 1/6=120,11=1,18=20,19=15,26=3/3(2);
 2/9=110,15=1/2;
 99//99;
 2/9=110,15=1/2;
 3/5=16,6=1,11=2,25=1,30=1,71=1,74=-55/1,2,3;
 4/5=5,16=3,69=1/1;
 5/5=2,8=3,13=1,38=5/2,8;
 7/30=1/1,2,3,16;
 1/6=120,11=1,18=20,19=15,26=3/3(-5);
 2/9=110,15=1/2;
 6/7=2,8=2,9=2,10=2,19=2,28=1/1;
 99/9=1/99;
 Leave Link    1 at Mon Oct 12 17:18:36 2020, MaxMem=  1073741824 cpu:               2.3 elap:               0.1
 (Enter /home/spantaleone/g16/l101.exe)
 -----
 Title
 -----
 Symbolic Z-matrix:
 Charge =  0 Multiplicity = 1
 C
 C                    1    B1
 C                    2    B2       1    A2
 C                    3    B3       2    A3       1    D3       0
 C                    4    B4       3    A4       2    D4       0
 C                    5    B5       4    A5       3    D5       0
 O                    6    B6       5    A6       4    D6       0
 C                    1    B7       2    A7       3    D7       0
       Variables:
  B1                    1.28116                  
  B2                    1.2811                   
  A2                  179.97438                  
  B3                    1.28097                  
  A3                  179.97438                  
  D3                    0.                       
  B4                    1.28115                  
  A4                  179.97438                  
  D4                    0.                       
  B5                    1.28113                  
  A5                  179.97438                  
  D5                    0.                       
  B6                    1.19623                  
  A6                  179.97438                  
  D6                  360.                       
  B7                    1.30499                  
  A7                  179.97438                  
  D7                    0.                       
 
 ITRead=  0  0  0  0  0  0  0  0
 MicOpt= -1 -1 -1 -1 -1 -1 -1 -1
 NAtoms=      8 NQM=        8 NQMF=       0 NMMI=      0 NMMIF=      0
                NMic=       0 NMicF=      0.
                    Isotopes and Nuclear Properties:
 (Nuclear quadrupole moments (NQMom) in fm**2, nuclear magnetic moments (NMagM)
  in nuclear magnetons)

  Atom         1           2           3           4           5           6           7           8
 IAtWgt=          12          12          12          12          12          12          16          12
 AtmWgt=  12.0000000  12.0000000  12.0000000  12.0000000  12.0000000  12.0000000  15.9949146  12.0000000
 NucSpn=           0           0           0           0           0           0           0           0
 AtZEff=  -0.0000000  -0.0000000  -0.0000000  -0.0000000  -0.0000000  -0.0000000  -0.0000000  -0.0000000
 NQMom=    0.0000000   0.0000000   0.0000000   0.0000000   0.0000000   0.0000000   0.0000000   0.0000000
 NMagM=    0.0000000   0.0000000   0.0000000   0.0000000   0.0000000   0.0000000   0.0000000   0.0000000
 AtZNuc=   6.0000000   6.0000000   6.0000000   6.0000000   6.0000000   6.0000000   8.0000000   6.0000000
 Leave Link  101 at Mon Oct 12 17:18:36 2020, MaxMem=  1073741824 cpu:              11.5 elap:               0.5
 (Enter /home/spantaleone/g16/l103.exe)

 GradGradGradGradGradGradGradGradGradGradGradGradGradGradGradGradGradGrad
 Berny optimization.
 Initialization pass.
                           ----------------------------
                           !    Initial Parameters    !
                           ! (Angstroms and Degrees)  !
 --------------------------                            --------------------------
 ! Name  Definition              Value          Derivative Info.                !
 --------------------------------------------------------------------------------
 ! R1    R(1,2)                  1.2812         estimate D2E/DX2                !
 ! R2    R(1,8)                  1.305          estimate D2E/DX2                !
 ! R3    R(2,3)                  1.2811         estimate D2E/DX2                !
 ! R4    R(3,4)                  1.281          estimate D2E/DX2                !
 ! R5    R(4,5)                  1.2812         estimate D2E/DX2                !
 ! R6    R(5,6)                  1.2811         estimate D2E/DX2                !
 ! R7    R(6,7)                  1.1962         estimate D2E/DX2                !
 ! A1    L(2,1,8,-2,-1)        180.0256         estimate D2E/DX2                !
 ! A2    L(1,2,3,-2,-1)        179.9744         estimate D2E/DX2                !
 ! A3    L(2,3,4,-2,-1)        179.9744         estimate D2E/DX2                !
 ! A4    L(3,4,5,-2,-1)        179.9744         estimate D2E/DX2                !
 ! A5    L(4,5,6,-2,-1)        179.9744         estimate D2E/DX2                !
 ! A6    L(5,6,7,-2,-1)        179.9744         estimate D2E/DX2                !
 ! A7    L(2,1,8,-1,-2)        180.0            estimate D2E/DX2                !
 ! A8    L(1,2,3,-1,-2)        180.0            estimate D2E/DX2                !
 ! A9    L(2,3,4,-1,-2)        180.0            estimate D2E/DX2                !
 ! A10   L(3,4,5,-1,-2)        180.0            estimate D2E/DX2                !
 ! A11   L(4,5,6,-1,-2)        180.0            estimate D2E/DX2                !
 ! A12   L(5,6,7,-1,-2)        180.0            estimate D2E/DX2                !
 --------------------------------------------------------------------------------
 Trust Radius=3.00D-01 FncErr=1.00D-07 GrdErr=1.00D-06 EigMax=2.50D+02 EigMin=1.00D-04
 Number of steps in this run=    100 maximum allowed number of steps=    100.
 GradGradGradGradGradGradGradGradGradGradGradGradGradGradGradGradGradGrad

 Leave Link  103 at Mon Oct 12 17:18:36 2020, MaxMem=  1073741824 cpu:               0.4 elap:               0.0
 (Enter /home/spantaleone/g16/l202.exe)
                          Input orientation:                          
 ---------------------------------------------------------------------
 Center     Atomic      Atomic             Coordinates (Angstroms)
 Number     Number       Type             X           Y           Z
 ---------------------------------------------------------------------
      1          6           0        0.000000    0.000000    0.000000
      2          6           0        0.000000    0.000000    1.281160
      3          6           0        0.000573    0.000000    2.562260
      4          6           0        0.001718    0.000000    3.843229
      5          6           0        0.003437    0.000000    5.124378
      6          6           0        0.005728    0.000000    6.405506
      7          8           0        0.008403    0.000000    7.601733
      8          6           0        0.000584    0.000000   -1.304990
 ---------------------------------------------------------------------
                    Distance matrix (angstroms):
                    1          2          3          4          5
     1  C    0.000000
     2  C    1.281160   0.000000
     3  C    2.562260   1.281100   0.000000
     4  C    3.843230   2.562070   1.280970   0.000000
     5  C    5.124379   3.843220   2.562120   1.281150   0.000000
     6  C    6.405509   5.124349   3.843250   2.562280   1.281130
     7  O    7.601738   6.320579   5.039479   3.758510   2.477360
     8  C    1.304990   2.586150   3.867250   5.148219   6.429369
                    6          7          8
     6  C    0.000000
     7  O    1.196230   0.000000
     8  C    7.710498   8.906726   0.000000
 Symmetry turned off by external request.
 This structure is nearly, but not quite of a higher symmetry.
 Consider Symm=Loose if the higher symmetry is desired.
 Stoichiometry    C7O
 Framework group  CS[SG(C7O)]
 Deg. of freedom    13
 Full point group                 CS      NOp   2
 Rotational constants (GHZ):     2888686.3380983           0.5644427           0.5644426
 Leave Link  202 at Mon Oct 12 17:18:37 2020, MaxMem=  1073741824 cpu:               0.9 elap:               0.1
 (Enter /home/spantaleone/g16/l301.exe)
 Standard basis: CC-pVTZ (5D, 7F)
 Ernie: Thresh=  0.10000D-02 Tol=  0.10000D-05 Strict=F.
 Ernie:  24 primitive shells out of 208 were deleted.
   240 basis functions,   416 primitive gaussians,   280 cartesian basis functions
    25 alpha electrons       25 beta electrons
       nuclear repulsion energy       218.8941004374 Hartrees.
 IExCor= 4336 DFT=T Ex+Corr=M062X ExCW=0 ScaHFX=  0.540000
 ScaDFX=  1.000000  1.000000  1.000000  1.000000 ScalE2=  1.000000  1.000000
 IRadAn=      5 IRanWt=     -1 IRanGd=            0 ICorTp=0 IEmpDi=  4
 NAtoms=    8 NActive=    8 NUniq=    8 SFac= 1.00D+00 NAtFMM=   60 NAOKFM=F Big=F
 Integral buffers will be    131072 words long.
 Raffenetti 2 integral format.
 Two-electron integral symmetry is turned off.
 Leave Link  301 at Mon Oct 12 17:18:37 2020, MaxMem=  1073741824 cpu:               1.9 elap:               0.1
 (Enter /home/spantaleone/g16/l302.exe)
 NPDir=0 NMtPBC=     1 NCelOv=     1 NCel=       1 NClECP=     1 NCelD=      1
         NCelK=      1 NCelE2=     1 NClLst=     1 CellRange=     0.0.
 One-electron integrals computed using PRISM.
 NBasis=   240 RedAO= T EigKep=  1.34D-05  NBF=   240
 NBsUse=   240 1.00D-06 EigRej= -1.00D+00 NBFU=   240
 Precomputing XC quadrature grid using
 IXCGrd= 4 IRadAn=           5 IRanWt=          -1 IRanGd=           0 AccXCQ= 0.00D+00.
 Generated NRdTot=       0 NPtTot=           0 NUsed=           0 NTot=          32
 NSgBfM=   278   278   278   278   278 MxSgAt=     8 MxSgA2=     8.
 Leave Link  302 at Mon Oct 12 17:18:37 2020, MaxMem=  1073741824 cpu:               7.4 elap:               0.3
 (Enter /home/spantaleone/g16/l303.exe)
 DipDrv:  MaxL=1.
 Leave Link  303 at Mon Oct 12 17:18:38 2020, MaxMem=  1073741824 cpu:               1.2 elap:               0.1
 (Enter /home/spantaleone/g16/l401.exe)
 ExpMin= 1.21D-01 ExpMax= 1.53D+04 ExpMxC= 5.22D+02 IAcc=3 IRadAn=         5 AccDes= 0.00D+00
 Harris functional with IExCor= 1009 and IRadAn=       5 diagonalized for initial guess.
 HarFok:  IExCor= 1009 AccDes= 0.00D+00 IRadAn=         5 IDoV= 1 UseB2=F ITyADJ=14
 ICtDFT=  3500011 ScaDFX=  1.000000  1.000000  1.000000  1.000000
 FoFCou: FMM=F IPFlag=           0 FMFlag=      100000 FMFlg1=           0
         NFxFlg=           0 DoJE=T BraDBF=F KetDBF=T FulRan=T
         wScrn=  0.000000 ICntrl=       500 IOpCl=  0 I1Cent=   200000004 NGrid=           0
         NMat0=    1 NMatS0=      1 NMatT0=    0 NMatD0=    1 NMtDS0=    0 NMtDT0=    0
 Symmetry not used in FoFCou.
 Harris En= -341.507688324802    
 JPrj=0 DoOrth=F DoCkMO=F.
 Leave Link  401 at Mon Oct 12 17:18:38 2020, MaxMem=  1073741824 cpu:              13.8 elap:               0.6
 (Enter /home/spantaleone/g16/l502.exe)
 Keep R1 ints in memory in canonical form, NReq=444928472.
 FoFCou: FMM=F IPFlag=           0 FMFlag=           0 FMFlg1=           0
         NFxFlg=           0 DoJE=F BraDBF=F KetDBF=F FulRan=T
         wScrn=  0.000000 ICntrl=       600 IOpCl=  0 I1Cent=           0 NGrid=           0
         NMat0=    1 NMatS0=  28920 NMatT0=    0 NMatD0=    1 NMtDS0=    0 NMtDT0=    0
 Symmetry not used in FoFCou.
 Two-electron integral symmetry not used.
 Closed shell SCF:
 Using DIIS extrapolation, IDIIS=  1040.
 NGot=  1073741824 LenX=   655378862 LenY=   655300021
 Requested convergence on RMS density matrix=1.00D-08 within  32 cycles.
 Requested convergence on MAX density matrix=1.00D-06.
 Requested convergence on             energy=1.00D-06.
 No special actions if energy rises.
 Integral accuracy reduced to 1.0D-05 until final iterations.

 Cycle   1  Pass 0  IDiag  1:
 E= -341.511546815818    
 DIIS: error= 2.94D-02 at cycle   1 NSaved=   1.
 NSaved= 1 IEnMin= 1 EnMin= -341.511546815818     IErMin= 1 ErrMin= 2.94D-02
 ErrMax= 2.94D-02  0.00D+00 EMaxC= 1.00D-01 BMatC= 1.84D-01 BMatP= 1.84D-01
 IDIUse=3 WtCom= 7.06D-01 WtEn= 2.94D-01
 Coeff-Com:  0.100D+01
 Coeff-En:   0.100D+01
 Coeff:      0.100D+01
 Gap=     0.171 Goal=   None    Shift=    0.000
 GapD=    0.171 DampG=1.000 DampE=0.500 DampFc=0.5000 IDamp=-1.
 Damping current iteration by 5.00D-01
 RMSDP=1.60D-02 MaxDP=8.29D-01              OVMax= 3.25D-01

 Cycle   2  Pass 0  IDiag  1:
 E= -341.558426245772     Delta-E=       -0.046879429953 Rises=F Damp=T
 DIIS: error= 1.29D-02 at cycle   2 NSaved=   2.
 NSaved= 2 IEnMin= 2 EnMin= -341.558426245772     IErMin= 2 ErrMin= 1.29D-02
 ErrMax= 1.29D-02  0.00D+00 EMaxC= 1.00D-01 BMatC= 3.13D-02 BMatP= 1.84D-01
 IDIUse=3 WtCom= 8.71D-01 WtEn= 1.29D-01
 Coeff-Com: -0.289D-01 0.103D+01
 Coeff-En:   0.246D+00 0.754D+00
 Coeff:      0.666D-02 0.993D+00
 Gap=     0.216 Goal=   None    Shift=    0.000
 RMSDP=6.17D-03 MaxDP=2.64D-01 DE=-4.69D-02 OVMax= 3.77D-01

 Cycle   3  Pass 0  IDiag  1:
 E= -341.556233699238     Delta-E=        0.002192546533 Rises=F Damp=F
 DIIS: error= 3.31D-02 at cycle   3 NSaved=   3.
 NSaved= 3 IEnMin= 2 EnMin= -341.558426245772     IErMin= 2 ErrMin= 1.29D-02
 ErrMax= 3.31D-02  0.00D+00 EMaxC= 1.00D-01 BMatC= 6.54D-02 BMatP= 3.13D-02
 IDIUse=2 WtCom= 0.00D+00 WtEn= 1.00D+00
 Coeff-En:   0.000D+00 0.507D+00 0.493D+00
 Coeff:      0.000D+00 0.507D+00 0.493D+00
 Gap=     0.204 Goal=   None    Shift=    0.000
 RMSDP=6.64D-03 MaxDP=3.25D-01 DE= 2.19D-03 OVMax= 2.80D-01

 Cycle   4  Pass 0  IDiag  1:
 E= -341.612255947057     Delta-E=       -0.056022247819 Rises=F Damp=F
 DIIS: error= 2.08D-02 at cycle   4 NSaved=   4.
 NSaved= 4 IEnMin= 4 EnMin= -341.612255947057     IErMin= 2 ErrMin= 1.29D-02
 ErrMax= 2.08D-02  0.00D+00 EMaxC= 1.00D-01 BMatC= 2.98D-02 BMatP= 3.13D-02
 IDIUse=3 WtCom= 7.92D-01 WtEn= 2.08D-01
 Coeff-Com: -0.131D-01 0.140D+00 0.385D+00 0.487D+00
 Coeff-En:   0.000D+00 0.000D+00 0.363D+00 0.637D+00
 Coeff:     -0.104D-01 0.111D+00 0.381D+00 0.518D+00
 Gap=     0.188 Goal=   None    Shift=    0.000
 RMSDP=4.76D-03 MaxDP=2.37D-01 DE=-5.60D-02 OVMax= 1.32D-01

 Cycle   5  Pass 0  IDiag  1:
 E= -341.659755597969     Delta-E=       -0.047499650912 Rises=F Damp=F
 DIIS: error= 3.56D-03 at cycle   5 NSaved=   5.
 NSaved= 5 IEnMin= 5 EnMin= -341.659755597969     IErMin= 5 ErrMin= 3.56D-03
 ErrMax= 3.56D-03  0.00D+00 EMaxC= 1.00D-01 BMatC= 7.68D-04 BMatP= 2.98D-02
 IDIUse=3 WtCom= 9.64D-01 WtEn= 3.56D-02
 Coeff-Com: -0.471D-02 0.189D-01 0.908D-01 0.177D+00 0.718D+00
 Coeff-En:   0.000D+00 0.000D+00 0.000D+00 0.000D+00 0.100D+01
 Coeff:     -0.454D-02 0.182D-01 0.876D-01 0.171D+00 0.728D+00
 Gap=     0.182 Goal=   None    Shift=    0.000
 RMSDP=4.10D-04 MaxDP=2.22D-02 DE=-4.75D-02 OVMax= 1.97D-02

 Cycle   6  Pass 0  IDiag  1:
 E= -341.659999447081     Delta-E=       -0.000243849113 Rises=F Damp=F
 DIIS: error= 2.72D-03 at cycle   6 NSaved=   6.
 NSaved= 6 IEnMin= 6 EnMin= -341.659999447081     IErMin= 6 ErrMin= 2.72D-03
 ErrMax= 2.72D-03  0.00D+00 EMaxC= 1.00D-01 BMatC= 6.35D-04 BMatP= 7.68D-04
 IDIUse=3 WtCom= 9.73D-01 WtEn= 2.72D-02
 Coeff-Com: -0.877D-02 0.792D-02-0.204D-01-0.680D-02 0.511D+00 0.517D+00
 Coeff-En:   0.000D+00 0.000D+00 0.000D+00 0.000D+00 0.439D+00 0.561D+00
 Coeff:     -0.853D-02 0.770D-02-0.198D-01-0.662D-02 0.510D+00 0.518D+00
 Gap=     0.184 Goal=   None    Shift=    0.000
 RMSDP=4.00D-04 MaxDP=2.03D-02 DE=-2.44D-04 OVMax= 1.31D-02

 Cycle   7  Pass 0  IDiag  1:
 E= -341.660727741923     Delta-E=       -0.000728294842 Rises=F Damp=F
 DIIS: error= 6.05D-04 at cycle   7 NSaved=   7.
 NSaved= 7 IEnMin= 7 EnMin= -341.660727741923     IErMin= 7 ErrMin= 6.05D-04
 ErrMax= 6.05D-04  0.00D+00 EMaxC= 1.00D-01 BMatC= 5.35D-05 BMatP= 6.35D-04
 IDIUse=3 WtCom= 9.94D-01 WtEn= 6.05D-03
 Coeff-Com: -0.831D-02 0.142D-01-0.184D-01-0.273D-01 0.221D+00 0.314D+00
 Coeff-Com:  0.505D+00
 Coeff-En:   0.000D+00 0.000D+00 0.000D+00 0.000D+00 0.000D+00 0.000D+00
 Coeff-En:   0.100D+01
 Coeff:     -0.826D-02 0.141D-01-0.183D-01-0.271D-01 0.219D+00 0.312D+00
 Coeff:      0.508D+00
 Gap=     0.185 Goal=   None    Shift=    0.000
 RMSDP=3.41D-05 MaxDP=1.29D-03 DE=-7.28D-04 OVMax= 2.92D-03

 Cycle   8  Pass 0  IDiag  1:
 E= -341.660777580433     Delta-E=       -0.000049838510 Rises=F Damp=F
 DIIS: error= 1.70D-04 at cycle   8 NSaved=   8.
 NSaved= 8 IEnMin= 8 EnMin= -341.660777580433     IErMin= 8 ErrMin= 1.70D-04
 ErrMax= 1.70D-04  0.00D+00 EMaxC= 1.00D-01 BMatC= 5.94D-06 BMatP= 5.35D-05
 IDIUse=3 WtCom= 9.98D-01 WtEn= 1.70D-03
 Coeff-Com: -0.490D-02 0.107D-01-0.956D-02-0.207D-01 0.363D-01 0.108D+00
 Coeff-Com:  0.298D+00 0.582D+00
 Coeff-En:   0.000D+00 0.000D+00 0.000D+00 0.000D+00 0.000D+00 0.000D+00
 Coeff-En:   0.000D+00 0.100D+01
 Coeff:     -0.490D-02 0.107D-01-0.954D-02-0.206D-01 0.363D-01 0.108D+00
 Coeff:      0.298D+00 0.583D+00
 Gap=     0.185 Goal=   None    Shift=    0.000
 RMSDP=5.29D-05 MaxDP=2.69D-03 DE=-4.98D-05 OVMax= 7.07D-04

 Cycle   9  Pass 0  IDiag  1:
 E= -341.660783113481     Delta-E=       -0.000005533048 Rises=F Damp=F
 DIIS: error= 6.54D-05 at cycle   9 NSaved=   9.
 NSaved= 9 IEnMin= 9 EnMin= -341.660783113481     IErMin= 9 ErrMin= 6.54D-05
 ErrMax= 6.54D-05  0.00D+00 EMaxC= 1.00D-01 BMatC= 5.86D-07 BMatP= 5.94D-06
 IDIUse=1 WtCom= 1.00D+00 WtEn= 0.00D+00
 Coeff-Com: -0.171D-02 0.452D-02-0.254D-02-0.806D-02-0.229D-01 0.557D-02
 Coeff-Com:  0.817D-01 0.228D+00 0.715D+00
 Coeff:     -0.171D-02 0.452D-02-0.254D-02-0.806D-02-0.229D-01 0.557D-02
 Coeff:      0.817D-01 0.228D+00 0.715D+00
 Gap=     0.185 Goal=   None    Shift=    0.000
 RMSDP=6.95D-06 MaxDP=3.11D-04 DE=-5.53D-06 OVMax= 3.27D-04

 Initial convergence to 1.0D-05 achieved.  Increase integral accuracy.
 Cycle  10  Pass 1  IDiag  1:
 E= -341.660740461569     Delta-E=        0.000042651912 Rises=F Damp=F
 DIIS: error= 3.50D-05 at cycle   1 NSaved=   1.
 NSaved= 1 IEnMin= 1 EnMin= -341.660740461569     IErMin= 1 ErrMin= 3.50D-05
 ErrMax= 3.50D-05  0.00D+00 EMaxC= 1.00D-01 BMatC= 1.60D-07 BMatP= 1.60D-07
 IDIUse=1 WtCom= 1.00D+00 WtEn= 0.00D+00
 Coeff-Com:  0.100D+01
 Coeff:      0.100D+01
 Gap=     0.185 Goal=   None    Shift=    0.000
 RMSDP=6.95D-06 MaxDP=3.11D-04 DE= 4.27D-05 OVMax= 2.72D-04

 Cycle  11  Pass 1  IDiag  1:
 E= -341.660740185850     Delta-E=        0.000000275719 Rises=F Damp=F
 DIIS: error= 5.95D-05 at cycle   2 NSaved=   2.
 NSaved= 2 IEnMin= 1 EnMin= -341.660740461569     IErMin= 1 ErrMin= 3.50D-05
 ErrMax= 5.95D-05  0.00D+00 EMaxC= 1.00D-01 BMatC= 4.35D-07 BMatP= 1.60D-07
 IDIUse=1 WtCom= 1.00D+00 WtEn= 0.00D+00
 Coeff-Com:  0.632D+00 0.368D+00
 Coeff:      0.632D+00 0.368D+00
 Gap=     0.185 Goal=   None    Shift=    0.000
 RMSDP=7.24D-06 MaxDP=3.82D-04 DE= 2.76D-07 OVMax= 1.74D-04

 Cycle  12  Pass 1  IDiag  1:
 E= -341.660740626248     Delta-E=       -0.000000440398 Rises=F Damp=F
 DIIS: error= 9.47D-06 at cycle   3 NSaved=   3.
 NSaved= 3 IEnMin= 3 EnMin= -341.660740626248     IErMin= 3 ErrMin= 9.47D-06
 ErrMax= 9.47D-06  0.00D+00 EMaxC= 1.00D-01 BMatC= 5.88D-09 BMatP= 1.60D-07
 IDIUse=1 WtCom= 1.00D+00 WtEn= 0.00D+00
 Coeff-Com:  0.115D+00 0.112D+00 0.772D+00
 Coeff:      0.115D+00 0.112D+00 0.772D+00
 Gap=     0.185 Goal=   None    Shift=    0.000
 RMSDP=2.02D-06 MaxDP=1.08D-04 DE=-4.40D-07 OVMax= 4.79D-05

 Cycle  13  Pass 1  IDiag  1:
 E= -341.660740628220     Delta-E=       -0.000000001972 Rises=F Damp=F
 DIIS: error= 7.87D-06 at cycle   4 NSaved=   4.
 NSaved= 4 IEnMin= 4 EnMin= -341.660740628220     IErMin= 4 ErrMin= 7.87D-06
 ErrMax= 7.87D-06  0.00D+00 EMaxC= 1.00D-01 BMatC= 4.63D-09 BMatP= 5.88D-09
 IDIUse=1 WtCom= 1.00D+00 WtEn= 0.00D+00
 Coeff-Com: -0.399D-01 0.202D-02 0.513D+00 0.525D+00
 Coeff:     -0.399D-01 0.202D-02 0.513D+00 0.525D+00
 Gap=     0.185 Goal=   None    Shift=    0.000
 RMSDP=2.87D-07 MaxDP=1.17D-05 DE=-1.97D-09 OVMax= 2.86D-05

 Cycle  14  Pass 1  IDiag  1:
 E= -341.660740633196     Delta-E=       -0.000000004976 Rises=F Damp=F
 DIIS: error= 1.38D-06 at cycle   5 NSaved=   5.
 NSaved= 5 IEnMin= 5 EnMin= -341.660740633196     IErMin= 5 ErrMin= 1.38D-06
 ErrMax= 1.38D-06  0.00D+00 EMaxC= 1.00D-01 BMatC= 2.76D-10 BMatP= 4.63D-09
 IDIUse=1 WtCom= 1.00D+00 WtEn= 0.00D+00
 Coeff-Com: -0.237D-01-0.672D-02 0.194D+00 0.269D+00 0.567D+00
 Coeff:     -0.237D-01-0.672D-02 0.194D+00 0.269D+00 0.567D+00
 Gap=     0.185 Goal=   None    Shift=    0.000
 RMSDP=1.34D-07 MaxDP=6.46D-06 DE=-4.98D-09 OVMax= 9.68D-06

 Cycle  15  Pass 1  IDiag  1:
 E= -341.660740633478     Delta-E=       -0.000000000282 Rises=F Damp=F
 DIIS: error= 6.24D-07 at cycle   6 NSaved=   6.
 NSaved= 6 IEnMin= 6 EnMin= -341.660740633478     IErMin= 6 ErrMin= 6.24D-07
 ErrMax= 6.24D-07  0.00D+00 EMaxC= 1.00D-01 BMatC= 7.40D-11 BMatP= 2.76D-10
 IDIUse=1 WtCom= 1.00D+00 WtEn= 0.00D+00
 Coeff-Com: -0.605D-02-0.614D-02-0.108D-01 0.347D-01 0.363D+00 0.625D+00
 Coeff:     -0.605D-02-0.614D-02-0.108D-01 0.347D-01 0.363D+00 0.625D+00
 Gap=     0.185 Goal=   None    Shift=    0.000
 RMSDP=4.54D-08 MaxDP=1.99D-06 DE=-2.82D-10 OVMax= 3.13D-06

 Cycle  16  Pass 1  IDiag  1:
 E= -341.660740633549     Delta-E=       -0.000000000072 Rises=F Damp=F
 DIIS: error= 1.99D-07 at cycle   7 NSaved=   7.
 NSaved= 7 IEnMin= 7 EnMin= -341.660740633549     IErMin= 7 ErrMin= 1.99D-07
 ErrMax= 1.99D-07  0.00D+00 EMaxC= 1.00D-01 BMatC= 8.09D-12 BMatP= 7.40D-11
 IDIUse=1 WtCom= 1.00D+00 WtEn= 0.00D+00
 Coeff-Com: -0.406D-03-0.300D-02-0.341D-01-0.162D-01 0.158D+00 0.342D+00
 Coeff-Com:  0.553D+00
 Coeff:     -0.406D-03-0.300D-02-0.341D-01-0.162D-01 0.158D+00 0.342D+00
 Coeff:      0.553D+00
 Gap=     0.185 Goal=   None    Shift=    0.000
 RMSDP=7.23D-08 MaxDP=3.62D-06 DE=-7.16D-11 OVMax= 1.44D-06

 Cycle  17  Pass 1  IDiag  1:
 E= -341.660740633556     Delta-E=       -0.000000000007 Rises=F Damp=F
 DIIS: error= 1.46D-07 at cycle   8 NSaved=   8.
 NSaved= 8 IEnMin= 8 EnMin= -341.660740633556     IErMin= 8 ErrMin= 1.46D-07
 ErrMax= 1.46D-07  0.00D+00 EMaxC= 1.00D-01 BMatC= 1.54D-12 BMatP= 8.09D-12
 IDIUse=1 WtCom= 1.00D+00 WtEn= 0.00D+00
 Coeff-Com:  0.618D-03-0.944D-03-0.192D-01-0.153D-01 0.463D-01 0.103D+00
 Coeff-Com:  0.343D+00 0.542D+00
 Coeff:      0.618D-03-0.944D-03-0.192D-01-0.153D-01 0.463D-01 0.103D+00
 Coeff:      0.343D+00 0.542D+00
 Gap=     0.185 Goal=   None    Shift=    0.000
 RMSDP=1.32D-08 MaxDP=5.87D-07 DE=-7.05D-12 OVMax= 8.26D-07

 Cycle  18  Pass 1  IDiag  1:
 E= -341.660740633557     Delta-E=       -0.000000000001 Rises=F Damp=F
 DIIS: error= 3.87D-08 at cycle   9 NSaved=   9.
 NSaved= 9 IEnMin= 9 EnMin= -341.660740633557     IErMin= 9 ErrMin= 3.87D-08
 ErrMax= 3.87D-08  0.00D+00 EMaxC= 1.00D-01 BMatC= 1.22D-13 BMatP= 1.54D-12
 IDIUse=1 WtCom= 1.00D+00 WtEn= 0.00D+00
 Coeff-Com:  0.331D-03-0.385D-03-0.875D-02-0.764D-02 0.183D-01 0.370D-01
 Coeff-Com:  0.172D+00 0.332D+00 0.457D+00
 Coeff:      0.331D-03-0.385D-03-0.875D-02-0.764D-02 0.183D-01 0.370D-01
 Coeff:      0.172D+00 0.332D+00 0.457D+00
 Gap=     0.185 Goal=   None    Shift=    0.000
 RMSDP=8.36D-09 MaxDP=4.33D-07 DE=-6.82D-13 OVMax= 2.99D-07

 SCF Done:  E(RM062X) =  -341.660740634     A.U. after   18 cycles
            NFock= 18  Conv=0.84D-08     -V/T= 2.0065
 KE= 3.394447542746D+02 PE=-1.231674165771D+03 EE= 3.316745704249D+02
 Leave Link  502 at Mon Oct 12 17:18:58 2020, MaxMem=  1073741824 cpu:             236.6 elap:              20.0
 (Enter /home/spantaleone/g16/l508.exe)
 QCSCF skips out because SCF is already converged.
 Leave Link  508 at Mon Oct 12 17:18:59 2020, MaxMem=  1073741824 cpu:               0.0 elap:               0.0
 (Enter /home/spantaleone/g16/l601.exe)
 Copying SCF densities to generalized density rwf, IOpCl= 0 IROHF=0.

 **********************************************************************

            Population analysis using the SCF Density.

 **********************************************************************

 Alpha  occ. eigenvalues --  -19.74023 -10.73178 -10.68075 -10.67064 -10.62279
 Alpha  occ. eigenvalues --  -10.61069 -10.60887 -10.56787  -1.26590  -0.98414
 Alpha  occ. eigenvalues --   -0.94562  -0.89034  -0.82652  -0.75501  -0.69616
 Alpha  occ. eigenvalues --   -0.63800  -0.57194  -0.57194  -0.49831  -0.49831
 Alpha  occ. eigenvalues --   -0.42571  -0.42571  -0.37822  -0.32172  -0.32172
 Alpha virt. eigenvalues --   -0.13696  -0.13696   0.00190   0.00190   0.09491
 Alpha virt. eigenvalues --    0.13630   0.13631   0.13651   0.15842   0.21304
 Alpha virt. eigenvalues --    0.22877   0.25274   0.25274   0.25392   0.26322
 Alpha virt. eigenvalues --    0.26322   0.28779   0.29142   0.29142   0.33332
 Alpha virt. eigenvalues --    0.33992   0.33992   0.38351   0.39932   0.39932
 Alpha virt. eigenvalues --    0.47533   0.47533   0.49261   0.49261   0.49325
 Alpha virt. eigenvalues --    0.53681   0.53681   0.57335   0.57335   0.59276
 Alpha virt. eigenvalues --    0.60589   0.60589   0.63780   0.66206   0.68782
 Alpha virt. eigenvalues --    0.68782   0.69887   0.69887   0.70836   0.77279
 Alpha virt. eigenvalues --    0.78025   0.78025   0.81337   0.82032   0.82032
 Alpha virt. eigenvalues --    0.82763   0.82763   0.88105   0.92800   0.98841
 Alpha virt. eigenvalues --    0.99158   0.99158   1.03627   1.03628   1.07224
 Alpha virt. eigenvalues --    1.14862   1.15848   1.15848   1.18482   1.18482
 Alpha virt. eigenvalues --    1.23718   1.25437   1.32284   1.32284   1.33612
 Alpha virt. eigenvalues --    1.46976   1.46977   1.55973   1.55973   1.58186
 Alpha virt. eigenvalues --    1.58186   1.66392   1.66392   1.71681   1.77500
 Alpha virt. eigenvalues --    1.90203   1.90893   1.90893   1.99854   2.07268
 Alpha virt. eigenvalues --    2.07268   2.12633   2.22034   2.22034   2.29533
 Alpha virt. eigenvalues --    2.31552   2.31676   2.31676   2.32960   2.32961
 Alpha virt. eigenvalues --    2.35361   2.35623   2.35623   2.36592   2.36592
 Alpha virt. eigenvalues --    2.39581   2.41268   2.41269   2.42774   2.42774
 Alpha virt. eigenvalues --    2.46383   2.46383   2.49459   2.49459   2.51860
 Alpha virt. eigenvalues --    2.52196   2.52196   2.56405   2.61456   2.61456
 Alpha virt. eigenvalues --    2.63439   2.63439   2.64096   2.64096   2.66887
 Alpha virt. eigenvalues --    2.66887   2.73398   2.73399   2.75211   2.75212
 Alpha virt. eigenvalues --    2.78125   2.78125   2.78759   2.78760   2.80191
 Alpha virt. eigenvalues --    2.80191   2.82854   2.85150   2.91465   2.91465
 Alpha virt. eigenvalues --    2.92056   2.92056   2.96171   2.96171   2.97063
 Alpha virt. eigenvalues --    2.99892   2.99892   3.02455   3.02455   3.03038
 Alpha virt. eigenvalues --    3.03038   3.09215   3.12227   3.12228   3.13470
 Alpha virt. eigenvalues --    3.22270   3.22271   3.23239   3.23239   3.24307
 Alpha virt. eigenvalues --    3.24307   3.29658   3.29658   3.41279   3.47955
 Alpha virt. eigenvalues --    3.47955   3.52790   3.52790   3.59815   3.59816
 Alpha virt. eigenvalues --    3.68065   3.77939   3.92173   3.92173   3.93689
 Alpha virt. eigenvalues --    3.93689   4.04068   4.16985   4.16985   4.28675
 Alpha virt. eigenvalues --    4.36284   4.36284   4.38330   4.47979   4.47981
 Alpha virt. eigenvalues --    4.48091   4.76844   4.82448   4.84341   4.84342
 Alpha virt. eigenvalues --    5.09741   5.09741   5.26602   5.26603   5.29725
 Alpha virt. eigenvalues --    5.37990   5.51068   5.51068   5.69535   5.69535
 Alpha virt. eigenvalues --    5.74451   5.81206   5.84110   5.89683   5.89684
 Alpha virt. eigenvalues --    6.24051   6.24052   6.41720   6.75333   6.75333
 Alpha virt. eigenvalues --    6.88474   6.88474   7.03631  11.36757  12.28636
 Alpha virt. eigenvalues --   13.44148  14.06784  14.91872  15.09682  15.12819
          Condensed to atoms (all electrons):
               1          2          3          4          5          6
     1  C    6.325463  -0.553665  -0.430491   0.009638  -0.008453  -0.000219
     2  C   -0.553665   6.082188   0.474732  -0.205694  -0.021555  -0.002822
     3  C   -0.430491   0.474732   5.647881   0.481559  -0.159069   0.015456
     4  C    0.009638  -0.205694   0.481559   5.729950  -0.063870  -0.373517
     5  C   -0.008453  -0.021555  -0.159069  -0.063870   6.052038   0.487033
     6  C   -0.000219  -0.002822   0.015456  -0.373517   0.487033   5.108318
     7  O    0.000000   0.000008   0.000739   0.015299  -0.046211   0.652624
     8  C    1.033457  -0.175926  -0.010727  -0.000001  -0.000211  -0.000002
               7          8
     1  C    0.000000   1.033457
     2  C    0.000008  -0.175926
     3  C    0.000739  -0.010727
     4  C    0.015299  -0.000001
     5  C   -0.046211  -0.000211
     6  C    0.652624  -0.000002
     7  O    7.589311   0.000000
     8  C    0.000000   5.228629
 Mulliken charges:
               1
     1  C   -0.375730
     2  C    0.402734
     3  C   -0.020080
     4  C    0.406636
     5  C   -0.239701
     6  C    0.113130
     7  O   -0.211771
     8  C   -0.075219
 Sum of Mulliken charges =  -0.00000
 Mulliken charges with hydrogens summed into heavy atoms:
               1
     1  C   -0.375730
     2  C    0.402734
     3  C   -0.020080
     4  C    0.406636
     5  C   -0.239701
     6  C    0.113130
     7  O   -0.211771
     8  C   -0.075219
 Electronic spatial extent (au):  <R**2>=           3720.6968
 Charge=             -0.0000 electrons
 Dipole moment (field-independent basis, Debye):
    X=             -0.0013    Y=             -0.0000    Z=              3.3116  Tot=              3.3116
 Quadrupole moment (field-independent basis, Debye-Ang):
   XX=            -43.6256   YY=            -43.6256   ZZ=            -46.2361
   XY=              0.0000   XZ=             -0.0097   YZ=              0.0000
 Traceless Quadrupole moment (field-independent basis, Debye-Ang):
   XX=              0.8702   YY=              0.8702   ZZ=             -1.7403
   XY=              0.0000   XZ=             -0.0097   YZ=              0.0000
 Octapole moment (field-independent basis, Debye-Ang**2):
  XXX=             -0.3187  YYY=             -0.0000  ZZZ=           -449.2752  XYY=             -0.1062
  XXY=             -0.0000  XXZ=           -133.1208  XZZ=             -0.2545  YZZ=              0.0000
  YYZ=           -133.1206  XYZ=              0.0000
 Hexadecapole moment (field-independent basis, Debye-Ang**3):
 XXXX=            -46.7318 YYYY=            -46.7281 ZZZZ=          -5645.7901 XXXY=              0.0000
 XXXZ=             -1.9336 YYYX=              0.0000 YYYZ=              0.0000 ZZZX=             -3.4302
 ZZZY=              0.0000 XXYY=            -15.5767 XXZZ=           -797.5942 YYZZ=           -797.5914
 XXYZ=              0.0000 YYXZ=             -0.6445 ZZXY=              0.0000
 N-N= 2.188941004374D+02 E-N=-1.231674164210D+03  KE= 3.394447542746D+02
 No NMR shielding tensors so no spin-rotation constants.
 Leave Link  601 at Mon Oct 12 17:18:59 2020, MaxMem=  1073741824 cpu:               5.1 elap:               0.3
 (Enter /home/spantaleone/g16/l701.exe)
 ... and contract with generalized density number  0.
 Compute integral first derivatives.
 Leave Link  701 at Mon Oct 12 17:19:00 2020, MaxMem=  1073741824 cpu:               6.0 elap:               0.3
 (Enter /home/spantaleone/g16/l702.exe)
 L702 exits ... SP integral derivatives will be done elsewhere.
 Leave Link  702 at Mon Oct 12 17:19:00 2020, MaxMem=  1073741824 cpu:               0.7 elap:               0.1
 (Enter /home/spantaleone/g16/l703.exe)
 Integral derivatives from FoFJK, PRISM(SPDF).
 Compute integral first derivatives, UseDBF=F ICtDFT=           0.
 Calling FoFJK, ICntrl=      2127 FMM=F ISym2X=0 I1Cent= 0 IOpClX= 0 NMat=1 NMatS=1 NMatT=0.
 FoFJK:  IHMeth= 1 ICntrl=    2127 DoSepK=F KAlg= 0 I1Cent=           0 FoldK=F
 IRaf=         0 NMat=       1 IRICut=       1 DoRegI=T DoRafI=F ISym2E= 0 IDoP0=0 IntGTp=1.
 FoFCou: FMM=F IPFlag=           0 FMFlag=      100000 FMFlg1=         800
         NFxFlg=           0 DoJE=F BraDBF=F KetDBF=F FulRan=T
         wScrn=  0.000000 ICntrl=      2127 IOpCl=  0 I1Cent=           0 NGrid=           0
         NMat0=    1 NMatS0=      1 NMatT0=    0 NMatD0=    1 NMtDS0=    0 NMtDT0=    0
 Symmetry not used in FoFCou.
 Leave Link  703 at Mon Oct 12 17:19:03 2020, MaxMem=  1073741824 cpu:              82.9 elap:               3.5
 (Enter /home/spantaleone/g16/l716.exe)
 Dipole        =-4.96466366D-04-4.84687867D-15 1.30287125D+00
 -------------------------------------------------------------------
 Center     Atomic                   Forces (Hartrees/Bohr)
 Number     Number              X              Y              Z
 -------------------------------------------------------------------
      1        6           0.000003436    0.000000000   -0.047416396
      2        6           0.000043450   -0.000000000    0.035285313
      3        6          -0.000033829   -0.000000000   -0.018911313
      4        6           0.000057299   -0.000000000    0.017891916
      5        6          -0.000062639    0.000000000   -0.021023775
      6        6           0.000231861   -0.000000000    0.079858694
      7        8          -0.000217616    0.000000000   -0.083630477
      8        6          -0.000021962    0.000000000    0.037946037
 -------------------------------------------------------------------
 Cartesian Forces:  Max     0.083630477 RMS     0.028449229
 Leave Link  716 at Mon Oct 12 17:19:04 2020, MaxMem=  1073741824 cpu:               0.8 elap:               0.1
 (Enter /home/spantaleone/g16/l103.exe)

 GradGradGradGradGradGradGradGradGradGradGradGradGradGradGradGradGradGrad
 Berny optimization.
 FormGI is forming the generalized inverse of G from B-inverse, IUseBI=4.
 Internal  Forces:  Max     0.083630757 RMS     0.022788294
 Search for a local minimum.
 Step number   1 out of a maximum of  100
 All quantities printed in internal units (Hartrees-Bohrs-Radians)
 RMS Force = .22788D-01 SwitMx=.10000D-02 MixMth= 1
 Mixed Optimization -- RFO/linear search
 Second derivative matrix not updated -- first step.
 The second derivative matrix:
                          R1        R2        R3        R4        R5
           R1           0.72709
           R2           0.00000   0.65826
           R3           0.00000   0.00000   0.72728
           R4           0.00000   0.00000   0.00000   0.72768
           R5           0.00000   0.00000   0.00000   0.00000   0.72712
           R6           0.00000   0.00000   0.00000   0.00000   0.00000
           R7           0.00000   0.00000   0.00000   0.00000   0.00000
           A1           0.00000   0.00000   0.00000   0.00000   0.00000
           A2           0.00000   0.00000   0.00000   0.00000   0.00000
           A3           0.00000   0.00000   0.00000   0.00000   0.00000
           A4           0.00000   0.00000   0.00000   0.00000   0.00000
           A5           0.00000   0.00000   0.00000   0.00000   0.00000
           A6           0.00000   0.00000   0.00000   0.00000   0.00000
           A7           0.00000   0.00000   0.00000   0.00000   0.00000
           A8           0.00000   0.00000   0.00000   0.00000   0.00000
           A9           0.00000   0.00000   0.00000   0.00000   0.00000
           A10          0.00000   0.00000   0.00000   0.00000   0.00000
           A11          0.00000   0.00000   0.00000   0.00000   0.00000
           A12          0.00000   0.00000   0.00000   0.00000   0.00000
                          R6        R7        A1        A2        A3
           R6           0.72718
           R7           0.00000   1.06740
           A1           0.00000   0.00000   0.03346
           A2           0.00000   0.00000   0.00000   0.03662
           A3           0.00000   0.00000   0.00000   0.00000   0.03663
           A4           0.00000   0.00000   0.00000   0.00000   0.00000
           A5           0.00000   0.00000   0.00000   0.00000   0.00000
           A6           0.00000   0.00000   0.00000   0.00000   0.00000
           A7           0.00000   0.00000   0.00000   0.00000   0.00000
           A8           0.00000   0.00000   0.00000   0.00000   0.00000
           A9           0.00000   0.00000   0.00000   0.00000   0.00000
           A10          0.00000   0.00000   0.00000   0.00000   0.00000
           A11          0.00000   0.00000   0.00000   0.00000   0.00000
           A12          0.00000   0.00000   0.00000   0.00000   0.00000
                          A4        A5        A6        A7        A8
           A4           0.03661
           A5           0.00000   0.03661
           A6           0.00000   0.00000   0.04387
           A7           0.00000   0.00000   0.00000   0.03346
           A8           0.00000   0.00000   0.00000   0.00000   0.03662
           A9           0.00000   0.00000   0.00000   0.00000   0.00000
           A10          0.00000   0.00000   0.00000   0.00000   0.00000
           A11          0.00000   0.00000   0.00000   0.00000   0.00000
           A12          0.00000   0.00000   0.00000   0.00000   0.00000
                          A9        A10       A11       A12
           A9           0.03663
           A10          0.00000   0.03661
           A11          0.00000   0.00000   0.03661
           A12          0.00000   0.00000   0.00000   0.04387
 ITU=  0
     Eigenvalues ---    0.03346   0.03357   0.03661   0.03661   0.03661
     Eigenvalues ---    0.03661   0.03662   0.03663   0.03663   0.04366
     Eigenvalues ---    0.04387   0.65826   0.72709   0.72712   0.72718
     Eigenvalues ---    0.72728   0.72768   1.06740
 RFO step:  Lambda=-1.05830355D-02 EMin= 3.34555597D-02
 Linear search not attempted -- first point.
 Iteration  1 RMS(Cart)=  0.03766834 RMS(Int)=  0.00000599
 Iteration  2 RMS(Cart)=  0.00000874 RMS(Int)=  0.00000001
 Iteration  3 RMS(Cart)=  0.00000001 RMS(Int)=  0.00000000
 ITry= 1 IFail=0 DXMaxC= 1.14D-01 DCOld= 1.00D+10 DXMaxT= 3.00D-01 DXLimC= 3.00D+00 Rises=F
 Variable       Old X    -DE/DX   Delta X   Delta X   Delta X     New X
                                 (Linear)    (Quad)   (Total)
    R1        2.42104   0.00947   0.00000   0.01284   0.01284   2.43388
    R2        2.46607  -0.03795   0.00000  -0.05673  -0.05673   2.40934
    R3        2.42093  -0.02581   0.00000  -0.03499  -0.03499   2.38594
    R4        2.42068  -0.00690   0.00000  -0.00935  -0.00935   2.41133
    R5        2.42102  -0.02480   0.00000  -0.03361  -0.03361   2.38741
    R6        2.42098  -0.00377   0.00000  -0.00511  -0.00511   2.41587
    R7        2.26055  -0.08363   0.00000  -0.07758  -0.07758   2.18297
    A1        3.14204   0.00000   0.00000   0.00010   0.00010   3.14214
    A2        3.14115   0.00003   0.00000   0.00043   0.00043   3.14157
    A3        3.14115  -0.00002   0.00000  -0.00054  -0.00054   3.14060
    A4        3.14115   0.00002   0.00000   0.00021   0.00021   3.14136
    A5        3.14115  -0.00001   0.00000  -0.00031  -0.00031   3.14084
    A6        3.14115   0.00006   0.00000   0.00101   0.00101   3.14216
    A7        3.14159  -0.00000   0.00000  -0.00000   0.00000   3.14159
    A8        3.14159   0.00000   0.00000   0.00000   0.00000   3.14159
    A9        3.14159   0.00000   0.00000   0.00000   0.00000   3.14159
   A10        3.14159   0.00000   0.00000   0.00000   0.00000   3.14159
   A11        3.14159   0.00000   0.00000   0.00000   0.00000   3.14159
   A12        3.14159   0.00000   0.00000   0.00000   0.00000   3.14159
         Item               Value     Threshold  Converged?
 Maximum Force            0.083631     0.000450     NO 
 RMS     Force            0.022788     0.000300     NO 
 Maximum Displacement     0.114401     0.001800     NO 
 RMS     Displacement     0.037668     0.001200     NO 
 Predicted change in Energy=-5.354335D-03
 Lowest energy point so far.  Saving SCF results.
 GradGradGradGradGradGradGradGradGradGradGradGradGradGradGradGradGradGrad

 Leave Link  103 at Mon Oct 12 17:19:04 2020, MaxMem=  1073741824 cpu:               2.9 elap:               0.1
 (Enter /home/spantaleone/g16/l202.exe)
                          Input orientation:                          
 ---------------------------------------------------------------------
 Center     Atomic      Atomic             Coordinates (Angstroms)
 Number     Number       Type             X           Y           Z
 ---------------------------------------------------------------------
      1          6           0        0.000018    0.000000    0.017676
      2          6           0        0.000161    0.000000    1.305629
      3          6           0        0.000327   -0.000000    2.568215
      4          6           0        0.001761   -0.000000    3.844236
      5          6           0        0.003474    0.000000    5.107598
      6          6           0        0.006171    0.000000    6.386020
      7          8           0        0.007954    0.000000    7.541195
      8          6           0        0.000578   -0.000000   -1.257292
 ---------------------------------------------------------------------
                    Distance matrix (angstroms):
                    1          2          3          4          5
     1  C    0.000000
     2  C    1.287954   0.000000
     3  C    2.550540   1.262586   0.000000
     4  C    3.826561   2.538607   1.276022   0.000000
     5  C    5.089924   3.801970   2.539385   1.263363   0.000000
     6  C    6.368347   5.080394   3.817809   2.541788   1.278425
     7  O    7.523523   6.235570   4.972985   3.696964   2.433601
     8  C    1.274968   2.562921   3.825507   5.101528   6.364891
                    6          7          8
     6  C    0.000000
     7  O    1.155176   0.000000
     8  C    7.643314   8.798490   0.000000
 Symmetry turned off by external request.
 Stoichiometry    C7O
 Framework group  CS[SG(C7O)]
 Deg. of freedom    13
 Full point group                 CS      NOp   2
 Rotational constants (GHZ):     3124031.6448977           0.5762403           0.5762401
 Leave Link  202 at Mon Oct 12 17:19:04 2020, MaxMem=  1073741824 cpu:               0.1 elap:               0.0
 (Enter /home/spantaleone/g16/l301.exe)
 Standard basis: CC-pVTZ (5D, 7F)
 Ernie: Thresh=  0.10000D-02 Tol=  0.10000D-05 Strict=F.
 Ernie:  24 primitive shells out of 208 were deleted.
   240 basis functions,   416 primitive gaussians,   280 cartesian basis functions
    25 alpha electrons       25 beta electrons
       nuclear repulsion energy       221.5380514912 Hartrees.
 IExCor= 4336 DFT=T Ex+Corr=M062X ExCW=0 ScaHFX=  0.540000
 ScaDFX=  1.000000  1.000000  1.000000  1.000000 ScalE2=  1.000000  1.000000
 IRadAn=      5 IRanWt=     -1 IRanGd=            0 ICorTp=0 IEmpDi=  4
 NAtoms=    8 NActive=    8 NUniq=    8 SFac= 1.00D+00 NAtFMM=   60 NAOKFM=F Big=F
 Integral buffers will be    131072 words long.
 Raffenetti 2 integral format.
 Two-electron integral symmetry is turned off.
 Leave Link  301 at Mon Oct 12 17:19:04 2020, MaxMem=  1073741824 cpu:               0.9 elap:               0.0
 (Enter /home/spantaleone/g16/l302.exe)
 NPDir=0 NMtPBC=     1 NCelOv=     1 NCel=       1 NClECP=     1 NCelD=      1
         NCelK=      1 NCelE2=     1 NClLst=     1 CellRange=     0.0.
 One-electron integrals computed using PRISM.
 NBasis=   240 RedAO= T EigKep=  1.28D-05  NBF=   240
 NBsUse=   240 1.00D-06 EigRej= -1.00D+00 NBFU=   240
 Precomputing XC quadrature grid using
 IXCGrd= 4 IRadAn=           5 IRanWt=          -1 IRanGd=           0 AccXCQ= 0.00D+00.
 Generated NRdTot=       0 NPtTot=           0 NUsed=           0 NTot=          32
 NSgBfM=   278   278   278   278   278 MxSgAt=     8 MxSgA2=     8.
 Leave Link  302 at Mon Oct 12 17:19:04 2020, MaxMem=  1073741824 cpu:               6.3 elap:               0.3
 (Enter /home/spantaleone/g16/l303.exe)
 DipDrv:  MaxL=1.
 Leave Link  303 at Mon Oct 12 17:19:04 2020, MaxMem=  1073741824 cpu:               1.0 elap:               0.1
 (Enter /home/spantaleone/g16/l401.exe)
 Initial guess from the checkpoint file:  "input.chk"
 B after Tr=     0.000011   -0.000000   -0.004576
         Rot=    1.000000    0.000000    0.000004    0.000000 Ang=   0.00 deg.
 Guess basis will be translated and rotated to current coordinates.
 JPrj=2 DoOrth=T DoCkMO=T.
 Generating alternative initial guess.
 ExpMin= 1.21D-01 ExpMax= 1.53D+04 ExpMxC= 5.22D+02 IAcc=3 IRadAn=         5 AccDes= 0.00D+00
 Harris functional with IExCor= 1009 and IRadAn=       5 diagonalized for initial guess.
 HarFok:  IExCor= 1009 AccDes= 0.00D+00 IRadAn=         5 IDoV= 1 UseB2=F ITyADJ=14
 ICtDFT=  3500011 ScaDFX=  1.000000  1.000000  1.000000  1.000000
 FoFCou: FMM=F IPFlag=           0 FMFlag=      100000 FMFlg1=           0
         NFxFlg=           0 DoJE=T BraDBF=F KetDBF=T FulRan=T
         wScrn=  0.000000 ICntrl=       500 IOpCl=  0 I1Cent=   200000004 NGrid=           0
         NMat0=    1 NMatS0=      1 NMatT0=    0 NMatD0=    1 NMtDS0=    0 NMtDT0=    0
 Symmetry not used in FoFCou.
 Harris En= -341.526179243223    
 Leave Link  401 at Mon Oct 12 17:19:05 2020, MaxMem=  1073741824 cpu:              15.7 elap:               0.7
 (Enter /home/spantaleone/g16/l502.exe)
 Keep R1 ints in memory in canonical form, NReq=444928472.
 FoFCou: FMM=F IPFlag=           0 FMFlag=           0 FMFlg1=           0
         NFxFlg=           0 DoJE=F BraDBF=F KetDBF=F FulRan=T
         wScrn=  0.000000 ICntrl=       600 IOpCl=  0 I1Cent=           0 NGrid=           0
         NMat0=    1 NMatS0=  28920 NMatT0=    0 NMatD0=    1 NMtDS0=    0 NMtDT0=    0
 Symmetry not used in FoFCou.
 Two-electron integral symmetry not used.
 Closed shell SCF:
 Using DIIS extrapolation, IDIIS=  1040.
 NGot=  1073741824 LenX=   655378862 LenY=   655300021
 Requested convergence on RMS density matrix=1.00D-08 within  32 cycles.
 Requested convergence on MAX density matrix=1.00D-06.
 Requested convergence on             energy=1.00D-06.
 No special actions if energy rises.
 Integral accuracy reduced to 1.0D-05 until final iterations.

 Cycle   1  Pass 0  IDiag  1:
 E= -341.664431867500    
 DIIS: error= 4.16D-03 at cycle   1 NSaved=   1.
 NSaved= 1 IEnMin= 1 EnMin= -341.664431867500     IErMin= 1 ErrMin= 4.16D-03
 ErrMax= 4.16D-03  0.00D+00 EMaxC= 1.00D-01 BMatC= 2.88D-03 BMatP= 2.88D-03
 IDIUse=3 WtCom= 9.58D-01 WtEn= 4.16D-02
 Coeff-Com:  0.100D+01
 Coeff-En:   0.100D+01
 Coeff:      0.100D+01
 Gap=     1.344 Goal=   None    Shift=    0.000
 GapD=    1.344 DampG=2.000 DampE=1.000 DampFc=2.0000 IDamp=-1.
 RMSDP=1.73D-03 MaxDP=1.08D-01              OVMax= 2.09D-02

 Cycle   2  Pass 0  IDiag  1:
 E= -341.666227181269     Delta-E=       -0.001795313769 Rises=F Damp=F
 DIIS: error= 2.63D-03 at cycle   2 NSaved=   2.
 NSaved= 2 IEnMin= 2 EnMin= -341.666227181269     IErMin= 2 ErrMin= 2.63D-03
 ErrMax= 2.63D-03  0.00D+00 EMaxC= 1.00D-01 BMatC= 7.52D-04 BMatP= 2.88D-03
 IDIUse=3 WtCom= 9.74D-01 WtEn= 2.63D-02
 Coeff-Com:  0.275D+00 0.725D+00
 Coeff-En:   0.000D+00 0.100D+01
 Coeff:      0.268D+00 0.732D+00
 Gap=     0.189 Goal=   None    Shift=    0.000
 RMSDP=1.69D-03 MaxDP=8.36D-02 DE=-1.80D-03 OVMax= 2.29D-02

 Cycle   3  Pass 0  IDiag  1:
 E= -341.666055270316     Delta-E=        0.000171910953 Rises=F Damp=F
 DIIS: error= 3.60D-03 at cycle   3 NSaved=   3.
 NSaved= 3 IEnMin= 2 EnMin= -341.666227181269     IErMin= 2 ErrMin= 2.63D-03
 ErrMax= 3.60D-03  0.00D+00 EMaxC= 1.00D-01 BMatC= 7.25D-04 BMatP= 7.52D-04
 IDIUse=3 WtCom= 9.64D-01 WtEn= 3.60D-02
 Coeff-Com:  0.609D-01 0.485D+00 0.454D+00
 Coeff-En:   0.000D+00 0.545D+00 0.455D+00
 Coeff:      0.587D-01 0.487D+00 0.454D+00
 Gap=     0.190 Goal=   None    Shift=    0.000
 RMSDP=5.27D-04 MaxDP=2.63D-02 DE= 1.72D-04 OVMax= 1.70D-02

 Cycle   4  Pass 0  IDiag  1:
 E= -341.666872421101     Delta-E=       -0.000817150785 Rises=F Damp=F
 DIIS: error= 9.88D-04 at cycle   4 NSaved=   4.
 NSaved= 4 IEnMin= 4 EnMin= -341.666872421101     IErMin= 4 ErrMin= 9.88D-04
 ErrMax= 9.88D-04  0.00D+00 EMaxC= 1.00D-01 BMatC= 4.85D-05 BMatP= 7.25D-04
 IDIUse=3 WtCom= 9.90D-01 WtEn= 9.88D-03
 Coeff-Com: -0.117D-01 0.111D+00 0.236D+00 0.665D+00
 Coeff-En:   0.000D+00 0.000D+00 0.598D-01 0.940D+00
 Coeff:     -0.116D-01 0.110D+00 0.234D+00 0.668D+00
 Gap=     0.190 Goal=   None    Shift=    0.000
 RMSDP=3.01D-04 MaxDP=1.56D-02 DE=-8.17D-04 OVMax= 4.82D-03

 Cycle   5  Pass 0  IDiag  1:
 E= -341.666927368443     Delta-E=       -0.000054947342 Rises=F Damp=F
 DIIS: error= 3.47D-04 at cycle   5 NSaved=   5.
 NSaved= 5 IEnMin= 5 EnMin= -341.666927368443     IErMin= 5 ErrMin= 3.47D-04
 ErrMax= 3.47D-04  0.00D+00 EMaxC= 1.00D-01 BMatC= 1.20D-05 BMatP= 4.85D-05
 IDIUse=3 WtCom= 9.97D-01 WtEn= 3.47D-03
 Coeff-Com: -0.125D-01 0.700D-02 0.888D-01 0.417D+00 0.500D+00
 Coeff-En:   0.000D+00 0.000D+00 0.000D+00 0.154D+00 0.846D+00
 Coeff:     -0.125D-01 0.697D-02 0.885D-01 0.416D+00 0.501D+00
 Gap=     0.190 Goal=   None    Shift=    0.000
 RMSDP=1.33D-05 MaxDP=5.24D-04 DE=-5.49D-05 OVMax= 1.45D-03

 Cycle   6  Pass 0  IDiag  1:
 E= -341.666940056050     Delta-E=       -0.000012687607 Rises=F Damp=F
 DIIS: error= 5.57D-05 at cycle   6 NSaved=   6.
 NSaved= 6 IEnMin= 6 EnMin= -341.666940056050     IErMin= 6 ErrMin= 5.57D-05
 ErrMax= 5.57D-05  0.00D+00 EMaxC= 1.00D-01 BMatC= 4.83D-07 BMatP= 1.20D-05
 IDIUse=1 WtCom= 1.00D+00 WtEn= 0.00D+00
 Coeff-Com: -0.157D-02-0.153D-01-0.124D-01 0.159D-01 0.175D+00 0.838D+00
 Coeff:     -0.157D-02-0.153D-01-0.124D-01 0.159D-01 0.175D+00 0.838D+00
 Gap=     0.190 Goal=   None    Shift=    0.000
 RMSDP=4.49D-05 MaxDP=2.30D-03 DE=-1.27D-05 OVMax= 1.95D-04

 Cycle   7  Pass 0  IDiag  1:
 E= -341.666940532394     Delta-E=       -0.000000476343 Rises=F Damp=F
 DIIS: error= 1.21D-05 at cycle   7 NSaved=   7.
 NSaved= 7 IEnMin= 7 EnMin= -341.666940532394     IErMin= 7 ErrMin= 1.21D-05
 ErrMax= 1.21D-05  0.00D+00 EMaxC= 1.00D-01 BMatC= 3.36D-08 BMatP= 4.83D-07
 IDIUse=1 WtCom= 1.00D+00 WtEn= 0.00D+00
 Coeff-Com:  0.332D-03-0.701D-02-0.116D-01-0.197D-01 0.444D-01 0.337D+00
 Coeff-Com:  0.657D+00
 Coeff:      0.332D-03-0.701D-02-0.116D-01-0.197D-01 0.444D-01 0.337D+00
 Coeff:      0.657D+00
 Gap=     0.190 Goal=   None    Shift=    0.000
 RMSDP=2.32D-06 MaxDP=1.09D-04 DE=-4.76D-07 OVMax= 8.48D-05

 Initial convergence to 1.0D-05 achieved.  Increase integral accuracy.
 Cycle   8  Pass 1  IDiag  1:
 E= -341.666891368381     Delta-E=        0.000049164012 Rises=F Damp=F
 DIIS: error= 1.01D-05 at cycle   1 NSaved=   1.
 NSaved= 1 IEnMin= 1 EnMin= -341.666891368381     IErMin= 1 ErrMin= 1.01D-05
 ErrMax= 1.01D-05  0.00D+00 EMaxC= 1.00D-01 BMatC= 3.99D-08 BMatP= 3.99D-08
 IDIUse=1 WtCom= 1.00D+00 WtEn= 0.00D+00
 Coeff-Com:  0.100D+01
 Coeff:      0.100D+01
 Gap=     0.190 Goal=   None    Shift=    0.000
 RMSDP=2.32D-06 MaxDP=1.09D-04 DE= 4.92D-05 OVMax= 5.19D-05

 Cycle   9  Pass 1  IDiag  1:
 E= -341.666891379474     Delta-E=       -0.000000011093 Rises=F Damp=F
 DIIS: error= 9.23D-06 at cycle   2 NSaved=   2.
 NSaved= 2 IEnMin= 2 EnMin= -341.666891379474     IErMin= 2 ErrMin= 9.23D-06
 ErrMax= 9.23D-06  0.00D+00 EMaxC= 1.00D-01 BMatC= 1.22D-08 BMatP= 3.99D-08
 IDIUse=1 WtCom= 1.00D+00 WtEn= 0.00D+00
 Coeff-Com:  0.290D+00 0.710D+00
 Coeff:      0.290D+00 0.710D+00
 Gap=     0.190 Goal=   None    Shift=    0.000
 RMSDP=3.28D-06 MaxDP=1.64D-04 DE=-1.11D-08 OVMax= 7.19D-05

 Cycle  10  Pass 1  IDiag  1:
 E= -341.666891380726     Delta-E=       -0.000000001252 Rises=F Damp=F
 DIIS: error= 9.44D-06 at cycle   3 NSaved=   3.
 NSaved= 3 IEnMin= 3 EnMin= -341.666891380726     IErMin= 2 ErrMin= 9.23D-06
 ErrMax= 9.44D-06  0.00D+00 EMaxC= 1.00D-01 BMatC= 1.18D-08 BMatP= 1.22D-08
 IDIUse=1 WtCom= 1.00D+00 WtEn= 0.00D+00
 Coeff-Com: -0.144D-01 0.498D+00 0.517D+00
 Coeff:     -0.144D-01 0.498D+00 0.517D+00
 Gap=     0.190 Goal=   None    Shift=    0.000
 RMSDP=1.85D-06 MaxDP=9.03D-05 DE=-1.25D-09 OVMax= 3.47D-05

 Cycle  11  Pass 1  IDiag  1:
 E= -341.666891391109     Delta-E=       -0.000000010383 Rises=F Damp=F
 DIIS: error= 1.13D-06 at cycle   4 NSaved=   4.
 NSaved= 4 IEnMin= 4 EnMin= -341.666891391109     IErMin= 4 ErrMin= 1.13D-06
 ErrMax= 1.13D-06  0.00D+00 EMaxC= 1.00D-01 BMatC= 2.32D-10 BMatP= 1.18D-08
 IDIUse=1 WtCom= 1.00D+00 WtEn= 0.00D+00
 Coeff-Com: -0.219D-01 0.221D+00 0.244D+00 0.557D+00
 Coeff:     -0.219D-01 0.221D+00 0.244D+00 0.557D+00
 Gap=     0.190 Goal=   None    Shift=    0.000
 RMSDP=2.06D-07 MaxDP=1.02D-05 DE=-1.04D-08 OVMax= 5.46D-06

 Cycle  12  Pass 1  IDiag  1:
 E= -341.666891391293     Delta-E=       -0.000000000184 Rises=F Damp=F
 DIIS: error= 4.39D-07 at cycle   5 NSaved=   5.
 NSaved= 5 IEnMin= 5 EnMin= -341.666891391293     IErMin= 5 ErrMin= 4.39D-07
 ErrMax= 4.39D-07  0.00D+00 EMaxC= 1.00D-01 BMatC= 1.28D-11 BMatP= 2.32D-10
 IDIUse=1 WtCom= 1.00D+00 WtEn= 0.00D+00
 Coeff-Com: -0.356D-02 0.137D-01 0.791D-02 0.149D+00 0.833D+00
 Coeff:     -0.356D-02 0.137D-01 0.791D-02 0.149D+00 0.833D+00
 Gap=     0.190 Goal=   None    Shift=    0.000
 RMSDP=1.90D-07 MaxDP=9.36D-06 DE=-1.84D-10 OVMax= 4.49D-06

 Cycle  13  Pass 1  IDiag  1:
 E= -341.666891391280     Delta-E=        0.000000000013 Rises=F Damp=F
 DIIS: error= 6.79D-07 at cycle   6 NSaved=   6.
 NSaved= 6 IEnMin= 5 EnMin= -341.666891391293     IErMin= 5 ErrMin= 4.39D-07
 ErrMax= 6.79D-07  0.00D+00 EMaxC= 1.00D-01 BMatC= 1.83D-11 BMatP= 1.28D-11
 IDIUse=1 WtCom= 1.00D+00 WtEn= 0.00D+00
 Coeff-Com: -0.521D-04-0.171D-01-0.265D-01 0.288D-01 0.621D+00 0.394D+00
 Coeff:     -0.521D-04-0.171D-01-0.265D-01 0.288D-01 0.621D+00 0.394D+00
 Gap=     0.190 Goal=   None    Shift=    0.000
 RMSDP=9.76D-08 MaxDP=4.96D-06 DE= 1.27D-11 OVMax= 2.65D-06

 Cycle  14  Pass 1  IDiag  1:
 E= -341.666891391308     Delta-E=       -0.000000000028 Rises=F Damp=F
 DIIS: error= 3.72D-08 at cycle   7 NSaved=   7.
 NSaved= 7 IEnMin= 7 EnMin= -341.666891391308     IErMin= 7 ErrMin= 3.72D-08
 ErrMax= 3.72D-08  0.00D+00 EMaxC= 1.00D-01 BMatC= 2.31D-13 BMatP= 1.28D-11
 IDIUse=1 WtCom= 1.00D+00 WtEn= 0.00D+00
 Coeff-Com:  0.450D-03-0.637D-02-0.102D-01-0.206D-01 0.557D-01 0.921D-01
 Coeff-Com:  0.889D+00
 Coeff:      0.450D-03-0.637D-02-0.102D-01-0.206D-01 0.557D-01 0.921D-01
 Coeff:      0.889D+00
 Gap=     0.190 Goal=   None    Shift=    0.000
 RMSDP=1.81D-08 MaxDP=8.58D-07 DE=-2.80D-11 OVMax= 1.84D-07

 Cycle  15  Pass 1  IDiag  1:
 E= -341.666891391309     Delta-E=       -0.000000000001 Rises=F Damp=F
 DIIS: error= 9.12D-09 at cycle   8 NSaved=   8.
 NSaved= 8 IEnMin= 8 EnMin= -341.666891391309     IErMin= 8 ErrMin= 9.12D-09
 ErrMax= 9.12D-09  0.00D+00 EMaxC= 1.00D-01 BMatC= 2.15D-14 BMatP= 2.31D-13
 IDIUse=1 WtCom= 1.00D+00 WtEn= 0.00D+00
 Coeff-Com:  0.200D-03-0.206D-02-0.347D-02-0.118D-01-0.653D-02 0.252D-01
 Coeff-Com:  0.392D+00 0.606D+00
 Coeff:      0.200D-03-0.206D-02-0.347D-02-0.118D-01-0.653D-02 0.252D-01
 Coeff:      0.392D+00 0.606D+00
 Gap=     0.190 Goal=   None    Shift=    0.000
 RMSDP=1.30D-09 MaxDP=5.88D-08 DE=-9.09D-13 OVMax= 5.19D-08

 SCF Done:  E(RM062X) =  -341.666891391     A.U. after   15 cycles
            NFock= 15  Conv=0.13D-08     -V/T= 2.0053
 KE= 3.398721321737D+02 PE=-1.237263968759D+03 EE= 3.341868937032D+02
 Leave Link  502 at Mon Oct 12 17:19:22 2020, MaxMem=  1073741824 cpu:             207.8 elap:              17.4
 (Enter /home/spantaleone/g16/l508.exe)
 QCSCF skips out because SCF is already converged.
 Leave Link  508 at Mon Oct 12 17:19:23 2020, MaxMem=  1073741824 cpu:               0.0 elap:               0.0
 (Enter /home/spantaleone/g16/l701.exe)
 ... and contract with generalized density number  0.
 Compute integral first derivatives.
 Leave Link  701 at Mon Oct 12 17:19:23 2020, MaxMem=  1073741824 cpu:               5.9 elap:               0.3
 (Enter /home/spantaleone/g16/l702.exe)
 L702 exits ... SP integral derivatives will be done elsewhere.
 Leave Link  702 at Mon Oct 12 17:19:23 2020, MaxMem=  1073741824 cpu:               0.7 elap:               0.0
 (Enter /home/spantaleone/g16/l703.exe)
 Integral derivatives from FoFJK, PRISM(SPDF).
 Compute integral first derivatives, UseDBF=F ICtDFT=           0.
 Calling FoFJK, ICntrl=      2127 FMM=F ISym2X=0 I1Cent= 0 IOpClX= 0 NMat=1 NMatS=1 NMatT=0.
 FoFJK:  IHMeth= 1 ICntrl=    2127 DoSepK=F KAlg= 0 I1Cent=           0 FoldK=F
 IRaf=         0 NMat=       1 IRICut=       1 DoRegI=T DoRafI=F ISym2E= 0 IDoP0=0 IntGTp=1.
 FoFCou: FMM=F IPFlag=           0 FMFlag=      100000 FMFlg1=         800
         NFxFlg=           0 DoJE=F BraDBF=F KetDBF=F FulRan=T
         wScrn=  0.000000 ICntrl=      2127 IOpCl=  0 I1Cent=           0 NGrid=           0
         NMat0=    1 NMatS0=      1 NMatT0=    0 NMatD0=    1 NMtDS0=    0 NMtDT0=    0
 Symmetry not used in FoFCou.
 Leave Link  703 at Mon Oct 12 17:19:26 2020, MaxMem=  1073741824 cpu:              82.5 elap:               3.4
 (Enter /home/spantaleone/g16/l716.exe)
 Dipole        = 7.26871032D-04 1.67087504D-09 1.87791797D+00
 -------------------------------------------------------------------
 Center     Atomic                   Forces (Hartrees/Bohr)
 Number     Number              X              Y              Z
 -------------------------------------------------------------------
      1        6           0.000007786   -0.000000000   -0.008221814
      2        6          -0.000011809   -0.000000000    0.009420305
      3        6          -0.000003995   -0.000000000   -0.010488016
      4        6           0.000037964    0.000000000    0.010574004
      5        6          -0.000005475   -0.000000000   -0.011916685
      6        6          -0.000033585   -0.000000000    0.021382029
      7        8           0.000015968    0.000000000   -0.013056444
      8        6          -0.000006854    0.000000000    0.002306621
 -------------------------------------------------------------------
 Cartesian Forces:  Max     0.021382029 RMS     0.006931634
 Leave Link  716 at Mon Oct 12 17:19:27 2020, MaxMem=  1073741824 cpu:               0.8 elap:               0.0
 (Enter /home/spantaleone/g16/l103.exe)

 GradGradGradGradGradGradGradGradGradGradGradGradGradGradGradGradGradGrad
 Berny optimization.
 Using GEDIIS/GDIIS optimizer.
 FormGI is forming the generalized inverse of G from B-inverse, IUseBI=4.
 Internal  Forces:  Max     0.013056408 RMS     0.004316709
 Search for a local minimum.
 Step number   2 out of a maximum of  100
 All quantities printed in internal units (Hartrees-Bohrs-Radians)
 RMS Force = .43167D-02 SwitMx=.10000D-02 MixMth= 1
 Mixed Optimization -- RFO/linear search
 Update second derivatives using D2CorX and points    1    2
 DE= -6.15D-03 DEPred=-5.35D-03 R= 1.15D+00
 TightC=F SS=  1.41D+00  RLast= 1.09D-01 DXNew= 5.0454D-01 3.2687D-01
 Trust test= 1.15D+00 RLast= 1.09D-01 DXMaxT set to 3.27D-01
 The second derivative matrix:
                          R1        R2        R3        R4        R5
           R1           0.72013
           R2           0.01960   0.66254
           R3           0.01412  -0.00471   0.71930
           R4           0.00072   0.02933   0.01702   0.74415
           R5           0.01365  -0.00539  -0.00820   0.01601   0.71873
           R6          -0.00134   0.03344   0.02020   0.01579   0.01911
           R7           0.04673  -0.02316  -0.03087   0.05232  -0.03136
           A1          -0.00000  -0.00002  -0.00001  -0.00001  -0.00001
           A2          -0.00000  -0.00008  -0.00005  -0.00004  -0.00005
           A3           0.00001   0.00004   0.00002   0.00003   0.00002
           A4          -0.00001   0.00006   0.00004   0.00002   0.00004
           A5           0.00001  -0.00005  -0.00003  -0.00001  -0.00003
           A6           0.00002  -0.00040  -0.00024  -0.00019  -0.00023
           A7           0.00000  -0.00000  -0.00000  -0.00000  -0.00000
           A8          -0.00000   0.00000   0.00000   0.00000   0.00000
           A9           0.00000  -0.00000  -0.00000  -0.00000  -0.00000
           A10          0.00000  -0.00000  -0.00000  -0.00000  -0.00000
           A11         -0.00000   0.00000   0.00000   0.00000   0.00000
           A12         -0.00000   0.00000   0.00000   0.00000   0.00000
                          R6        R7        A1        A2        A3
           R6           0.74172
           R7           0.06308   0.95140
           A1          -0.00001  -0.00003   0.03346
           A2          -0.00004  -0.00015   0.00000   0.03662
           A3           0.00003   0.00006  -0.00000  -0.00000   0.03663
           A4           0.00001   0.00013  -0.00000  -0.00000   0.00000
           A5          -0.00001  -0.00010   0.00000   0.00000  -0.00000
           A6          -0.00017  -0.00075   0.00000   0.00000  -0.00000
           A7          -0.00000  -0.00000   0.00000   0.00000  -0.00000
           A8           0.00000   0.00000  -0.00000  -0.00000   0.00000
           A9          -0.00000  -0.00000   0.00000   0.00000  -0.00000
           A10         -0.00000  -0.00000   0.00000   0.00000  -0.00000
           A11          0.00000   0.00000  -0.00000  -0.00000   0.00000
           A12          0.00000   0.00000  -0.00000  -0.00000   0.00000
                          A4        A5        A6        A7        A8
           A4           0.03661
           A5           0.00000   0.03661
           A6          -0.00000   0.00000   0.04387
           A7          -0.00000   0.00000   0.00000   0.03346
           A8           0.00000  -0.00000  -0.00000  -0.00000   0.03662
           A9          -0.00000   0.00000   0.00000   0.00000  -0.00000
           A10         -0.00000   0.00000   0.00000   0.00000  -0.00000
           A11          0.00000  -0.00000  -0.00000  -0.00000   0.00000
           A12          0.00000  -0.00000  -0.00000  -0.00000   0.00000
                          A9        A10       A11       A12
           A9           0.03663
           A10          0.00000   0.03661
           A11         -0.00000  -0.00000   0.03661
           A12         -0.00000  -0.00000   0.00000   0.04387
 ITU=  1  0
 Use linear search instead of GDIIS.
     Eigenvalues ---    0.03346   0.03357   0.03661   0.03661   0.03661
     Eigenvalues ---    0.03661   0.03662   0.03663   0.03663   0.04368
     Eigenvalues ---    0.04387   0.61255   0.69278   0.72711   0.72720
     Eigenvalues ---    0.72747   0.77971   0.99114
 RFO step:  Lambda=-3.06282062D-04 EMin= 3.34555597D-02
 Quartic linear search produced a step of  0.12919.
 Iteration  1 RMS(Cart)=  0.00416502 RMS(Int)=  0.00000294
 Iteration  2 RMS(Cart)=  0.00000572 RMS(Int)=  0.00000000
 Iteration  3 RMS(Cart)=  0.00000000 RMS(Int)=  0.00000000
 ITry= 1 IFail=0 DXMaxC= 1.29D-02 DCOld= 1.00D+10 DXMaxT= 3.27D-01 DXLimC= 3.00D+00 Rises=F
 Variable       Old X    -DE/DX   Delta X   Delta X   Delta X     New X
                                 (Linear)    (Quad)   (Total)
    R1        2.43388   0.00592   0.00166   0.00763   0.00929   2.44317
    R2        2.40934  -0.00231  -0.00733   0.00301  -0.00432   2.40502
    R3        2.38594  -0.00351  -0.00452  -0.00122  -0.00574   2.38020
    R4        2.41133   0.00698  -0.00121   0.01196   0.01075   2.42208
    R5        2.38741  -0.00359  -0.00434  -0.00152  -0.00587   2.38155
    R6        2.41587   0.00833  -0.00066   0.01354   0.01288   2.42875
    R7        2.18297  -0.01306  -0.01002  -0.00497  -0.01499   2.16798
    A1        3.14214  -0.00001   0.00001  -0.00022  -0.00021   3.14193
    A2        3.14157  -0.00001   0.00006  -0.00053  -0.00048   3.14110
    A3        3.14060   0.00001  -0.00007   0.00056   0.00049   3.14109
    A4        3.14136   0.00003   0.00003   0.00068   0.00071   3.14207
    A5        3.14084  -0.00001  -0.00004  -0.00019  -0.00023   3.14061
    A6        3.14216  -0.00009   0.00013  -0.00265  -0.00252   3.13964
    A7        3.14159  -0.00000   0.00000  -0.00000  -0.00000   3.14159
    A8        3.14159   0.00000   0.00000   0.00000   0.00000   3.14159
    A9        3.14159  -0.00000   0.00000  -0.00000   0.00000   3.14159
   A10        3.14159  -0.00000   0.00000  -0.00000  -0.00000   3.14159
   A11        3.14159   0.00000   0.00000   0.00000   0.00000   3.14159
   A12        3.14159   0.00000   0.00000   0.00000   0.00000   3.14159
         Item               Value     Threshold  Converged?
 Maximum Force            0.013056     0.000450     NO 
 RMS     Force            0.004317     0.000300     NO 
 Maximum Displacement     0.012876     0.001800     NO 
 RMS     Displacement     0.004164     0.001200     NO 
 Predicted change in Energy=-2.543244D-04
 Lowest energy point so far.  Saving SCF results.
 GradGradGradGradGradGradGradGradGradGradGradGradGradGradGradGradGradGrad

 Leave Link  103 at Mon Oct 12 17:19:27 2020, MaxMem=  1073741824 cpu:               0.5 elap:               0.0
 (Enter /home/spantaleone/g16/l202.exe)
                          Input orientation:                          
 ---------------------------------------------------------------------
 Center     Atomic      Atomic             Coordinates (Angstroms)
 Number     Number       Type             X           Y           Z
 ---------------------------------------------------------------------
      1          6           0        0.000056   -0.000000    0.013208
      2          6           0        0.000132   -0.000000    1.306079
      3          6           0        0.000831   -0.000000    2.565627
      4          6           0        0.002184    0.000000    3.847336
      5          6           0        0.002918    0.000000    5.107596
      6          6           0        0.004934   -0.000000    6.392834
      7          8           0        0.008973   -0.000000    7.540070
      8          6           0        0.000415    0.000000   -1.259472
 ---------------------------------------------------------------------
                    Distance matrix (angstroms):
                    1          2          3          4          5
     1  C    0.000000
     2  C    1.292872   0.000000
     3  C    2.552419   1.259547   0.000000
     4  C    3.834129   2.541258   1.281710   0.000000
     5  C    5.094389   3.801517   2.541970   1.260260   0.000000
     6  C    6.379628   5.086756   3.827209   2.545499   1.285240
     7  O    7.526867   6.233997   4.974450   3.692740   2.432482
     8  C    1.272680   2.565552   3.825099   5.106809   6.367069
                    6          7          8
     6  C    0.000000
     7  O    1.147243   0.000000
     8  C    7.652307   8.799546   0.000000
 Symmetry turned off by external request.
 Stoichiometry    C7O
 Framework group  C1[X(C7O)]
 Deg. of freedom    18
 Full point group                 C1      NOp   1
 Rotational constants (GHZ):     2517494.1588911           0.5755785           0.5755783
 Leave Link  202 at Mon Oct 12 17:19:27 2020, MaxMem=  1073741824 cpu:               0.1 elap:               0.0
 (Enter /home/spantaleone/g16/l301.exe)
 Standard basis: CC-pVTZ (5D, 7F)
 Ernie: Thresh=  0.10000D-02 Tol=  0.10000D-05 Strict=F.
 Ernie:  24 primitive shells out of 208 were deleted.
   240 basis functions,   416 primitive gaussians,   280 cartesian basis functions
    25 alpha electrons       25 beta electrons
       nuclear repulsion energy       221.5177581683 Hartrees.
 IExCor= 4336 DFT=T Ex+Corr=M062X ExCW=0 ScaHFX=  0.540000
 ScaDFX=  1.000000  1.000000  1.000000  1.000000 ScalE2=  1.000000  1.000000
 IRadAn=      5 IRanWt=     -1 IRanGd=            0 ICorTp=0 IEmpDi=  4
 NAtoms=    8 NActive=    8 NUniq=    8 SFac= 1.00D+00 NAtFMM=   60 NAOKFM=F Big=F
 Integral buffers will be    131072 words long.
 Raffenetti 2 integral format.
 Two-electron integral symmetry is turned off.
 Leave Link  301 at Mon Oct 12 17:19:27 2020, MaxMem=  1073741824 cpu:               0.9 elap:               0.0
 (Enter /home/spantaleone/g16/l302.exe)
 NPDir=0 NMtPBC=     1 NCelOv=     1 NCel=       1 NClECP=     1 NCelD=      1
         NCelK=      1 NCelE2=     1 NClLst=     1 CellRange=     0.0.
 One-electron integrals computed using PRISM.
 NBasis=   240 RedAO= T EigKep=  1.29D-05  NBF=   240
 NBsUse=   240 1.00D-06 EigRej= -1.00D+00 NBFU=   240
 Precomputing XC quadrature grid using
 IXCGrd= 4 IRadAn=           5 IRanWt=          -1 IRanGd=           0 AccXCQ= 0.00D+00.
 Generated NRdTot=       0 NPtTot=           0 NUsed=           0 NTot=          32
 NSgBfM=   278   278   278   278   278 MxSgAt=     8 MxSgA2=     8.
 Leave Link  302 at Mon Oct 12 17:19:27 2020, MaxMem=  1073741824 cpu:               6.4 elap:               0.3
 (Enter /home/spantaleone/g16/l303.exe)
 DipDrv:  MaxL=1.
 Leave Link  303 at Mon Oct 12 17:19:27 2020, MaxMem=  1073741824 cpu:               1.0 elap:               0.1
 (Enter /home/spantaleone/g16/l401.exe)
 Initial guess from the checkpoint file:  "input.chk"
 B after Tr=    -0.000046   -0.000000   -0.000085
         Rot=    1.000000    0.000000   -0.000010    0.000000 Ang=  -0.00 deg.
 Guess basis will be translated and rotated to current coordinates.
 JPrj=2 DoOrth=T DoCkMO=T.
 Leave Link  401 at Mon Oct 12 17:19:27 2020, MaxMem=  1073741824 cpu:               3.4 elap:               0.1
 (Enter /home/spantaleone/g16/l502.exe)
 Keep R1 ints in memory in canonical form, NReq=444928472.
 FoFCou: FMM=F IPFlag=           0 FMFlag=           0 FMFlg1=           0
         NFxFlg=           0 DoJE=F BraDBF=F KetDBF=F FulRan=T
         wScrn=  0.000000 ICntrl=       600 IOpCl=  0 I1Cent=           0 NGrid=           0
         NMat0=    1 NMatS0=  28920 NMatT0=    0 NMatD0=    1 NMtDS0=    0 NMtDT0=    0
 Symmetry not used in FoFCou.
 Two-electron integral symmetry not used.
 Closed shell SCF:
 Using DIIS extrapolation, IDIIS=  1040.
 NGot=  1073741824 LenX=   655378862 LenY=   655300021
 Requested convergence on RMS density matrix=1.00D-08 within  32 cycles.
 Requested convergence on MAX density matrix=1.00D-06.
 Requested convergence on             energy=1.00D-06.
 No special actions if energy rises.

 Cycle   1  Pass 1  IDiag  1:
 E= -341.666935673037    
 DIIS: error= 1.40D-03 at cycle   1 NSaved=   1.
 NSaved= 1 IEnMin= 1 EnMin= -341.666935673037     IErMin= 1 ErrMin= 1.40D-03
 ErrMax= 1.40D-03  0.00D+00 EMaxC= 1.00D-01 BMatC= 2.26D-04 BMatP= 2.26D-04
 IDIUse=3 WtCom= 9.86D-01 WtEn= 1.40D-02
 Coeff-Com:  0.100D+01
 Coeff-En:   0.100D+01
 Coeff:      0.100D+01
 Gap=     1.324 Goal=   None    Shift=    0.000
 GapD=    1.324 DampG=2.000 DampE=1.000 DampFc=2.0000 IDamp=-1.
 RMSDP=3.40D-04 MaxDP=1.36D-02              OVMax= 7.20D-03

 Cycle   2  Pass 1  IDiag  1:
 E= -341.667059029555     Delta-E=       -0.000123356518 Rises=F Damp=F
 DIIS: error= 9.50D-04 at cycle   2 NSaved=   2.
 NSaved= 2 IEnMin= 2 EnMin= -341.667059029555     IErMin= 2 ErrMin= 9.50D-04
 ErrMax= 9.50D-04  0.00D+00 EMaxC= 1.00D-01 BMatC= 8.03D-05 BMatP= 2.26D-04
 IDIUse=3 WtCom= 9.91D-01 WtEn= 9.50D-03
 Coeff-Com:  0.317D+00 0.683D+00
 Coeff-En:   0.000D+00 0.100D+01
 Coeff:      0.314D+00 0.686D+00
 Gap=     0.190 Goal=   None    Shift=    0.000
 RMSDP=4.14D-04 MaxDP=2.11D-02 DE=-1.23D-04 OVMax= 7.94D-03

 Cycle   3  Pass 1  IDiag  1:
 E= -341.667047119864     Delta-E=        0.000011909691 Rises=F Damp=F
 DIIS: error= 1.15D-03 at cycle   3 NSaved=   3.
 NSaved= 3 IEnMin= 2 EnMin= -341.667059029555     IErMin= 2 ErrMin= 9.50D-04
 ErrMax= 1.15D-03  0.00D+00 EMaxC= 1.00D-01 BMatC= 7.37D-05 BMatP= 8.03D-05
 IDIUse=3 WtCom= 9.89D-01 WtEn= 1.15D-02
 Coeff-Com:  0.438D-01 0.480D+00 0.477D+00
 Coeff-En:   0.000D+00 0.528D+00 0.472D+00
 Coeff:      0.433D-01 0.480D+00 0.477D+00
 Gap=     0.190 Goal=   None    Shift=    0.000
 RMSDP=1.82D-04 MaxDP=9.02D-03 DE= 1.19D-05 OVMax= 5.50D-03

 Cycle   4  Pass 1  IDiag  1:
 E= -341.667133677175     Delta-E=       -0.000086557311 Rises=F Damp=F
 DIIS: error= 2.60D-04 at cycle   4 NSaved=   4.
 NSaved= 4 IEnMin= 4 EnMin= -341.667133677175     IErMin= 4 ErrMin= 2.60D-04
 ErrMax= 2.60D-04  0.00D+00 EMaxC= 1.00D-01 BMatC= 3.66D-06 BMatP= 7.37D-05
 IDIUse=3 WtCom= 9.97D-01 WtEn= 2.60D-03
 Coeff-Com: -0.560D-02 0.147D+00 0.236D+00 0.622D+00
 Coeff-En:   0.000D+00 0.000D+00 0.123D-01 0.988D+00
 Coeff:     -0.559D-02 0.146D+00 0.236D+00 0.623D+00
 Gap=     0.190 Goal=   None    Shift=    0.000
 RMSDP=7.12D-05 MaxDP=3.71D-03 DE=-8.66D-05 OVMax= 1.34D-03

 Cycle   5  Pass 1  IDiag  1:
 E= -341.667137693937     Delta-E=       -0.000004016762 Rises=F Damp=F
 DIIS: error= 9.76D-05 at cycle   5 NSaved=   5.
 NSaved= 5 IEnMin= 5 EnMin= -341.667137693937     IErMin= 5 ErrMin= 9.76D-05
 ErrMax= 9.76D-05  0.00D+00 EMaxC= 1.00D-01 BMatC= 1.03D-06 BMatP= 3.66D-06
 IDIUse=1 WtCom= 1.00D+00 WtEn= 0.00D+00
 Coeff-Com: -0.894D-02-0.313D-02 0.576D-01 0.396D+00 0.559D+00
 Coeff:     -0.894D-02-0.313D-02 0.576D-01 0.396D+00 0.559D+00
 Gap=     0.190 Goal=   None    Shift=    0.000
 RMSDP=4.61D-06 MaxDP=2.55D-04 DE=-4.02D-06 OVMax= 4.19D-04

 Cycle   6  Pass 1  IDiag  1:
 E= -341.667138752693     Delta-E=       -0.000001058756 Rises=F Damp=F
 DIIS: error= 1.42D-05 at cycle   6 NSaved=   6.
 NSaved= 6 IEnMin= 6 EnMin= -341.667138752693     IErMin= 6 ErrMin= 1.42D-05
 ErrMax= 1.42D-05  0.00D+00 EMaxC= 1.00D-01 BMatC= 4.46D-08 BMatP= 1.03D-06
 IDIUse=1 WtCom= 1.00D+00 WtEn= 0.00D+00
 Coeff-Com: -0.343D-02-0.141D-01 0.559D-02 0.117D+00 0.255D+00 0.640D+00
 Coeff:     -0.343D-02-0.141D-01 0.559D-02 0.117D+00 0.255D+00 0.640D+00
 Gap=     0.190 Goal=   None    Shift=    0.000
 RMSDP=9.27D-06 MaxDP=4.76D-04 DE=-1.06D-06 OVMax= 7.21D-05

 Cycle   7  Pass 1  IDiag  1:
 E= -341.667138792604     Delta-E=       -0.000000039911 Rises=F Damp=F
 DIIS: error= 6.58D-06 at cycle   7 NSaved=   7.
 NSaved= 7 IEnMin= 7 EnMin= -341.667138792604     IErMin= 7 ErrMin= 6.58D-06
 ErrMax= 6.58D-06  0.00D+00 EMaxC= 1.00D-01 BMatC= 6.03D-09 BMatP= 4.46D-08
 IDIUse=1 WtCom= 1.00D+00 WtEn= 0.00D+00
 Coeff-Com:  0.277D-03-0.713D-02-0.107D-01-0.287D-01 0.158D-01 0.296D+00
 Coeff-Com:  0.735D+00
 Coeff:      0.277D-03-0.713D-02-0.107D-01-0.287D-01 0.158D-01 0.296D+00
 Coeff:      0.735D+00
 Gap=     0.190 Goal=   None    Shift=    0.000
 RMSDP=1.85D-06 MaxDP=9.03D-05 DE=-3.99D-08 OVMax= 3.67D-05

 Cycle   8  Pass 1  IDiag  1:
 E= -341.667138797015     Delta-E=       -0.000000004412 Rises=F Damp=F
 DIIS: error= 4.85D-06 at cycle   8 NSaved=   8.
 NSaved= 8 IEnMin= 8 EnMin= -341.667138797015     IErMin= 8 ErrMin= 4.85D-06
 ErrMax= 4.85D-06  0.00D+00 EMaxC= 1.00D-01 BMatC= 1.90D-09 BMatP= 6.03D-09
 IDIUse=1 WtCom= 1.00D+00 WtEn= 0.00D+00
 Coeff-Com:  0.453D-03-0.368D-02-0.743D-02-0.259D-01-0.514D-02 0.147D+00
 Coeff-Com:  0.481D+00 0.413D+00
 Coeff:      0.453D-03-0.368D-02-0.743D-02-0.259D-01-0.514D-02 0.147D+00
 Coeff:      0.481D+00 0.413D+00
 Gap=     0.190 Goal=   None    Shift=    0.000
 RMSDP=7.11D-07 MaxDP=3.65D-05 DE=-4.41D-09 OVMax= 1.57D-05

 Cycle   9  Pass 1  IDiag  1:
 E= -341.667138799187     Delta-E=       -0.000000002172 Rises=F Damp=F
 DIIS: error= 5.36D-07 at cycle   9 NSaved=   9.
 NSaved= 9 IEnMin= 9 EnMin= -341.667138799187     IErMin= 9 ErrMin= 5.36D-07
 ErrMax= 5.36D-07  0.00D+00 EMaxC= 1.00D-01 BMatC= 4.94D-11 BMatP= 1.90D-09
 IDIUse=1 WtCom= 1.00D+00 WtEn= 0.00D+00
 Coeff-Com:  0.807D-04 0.119D-03-0.938D-03-0.512D-02-0.507D-02-0.272D-03
 Coeff-Com:  0.512D-01 0.137D+00 0.823D+00
 Coeff:      0.807D-04 0.119D-03-0.938D-03-0.512D-02-0.507D-02-0.272D-03
 Coeff:      0.512D-01 0.137D+00 0.823D+00
 Gap=     0.190 Goal=   None    Shift=    0.000
 RMSDP=1.46D-07 MaxDP=5.41D-06 DE=-2.17D-09 OVMax= 2.83D-06

 Cycle  10  Pass 1  IDiag  1:
 E= -341.667138799224     Delta-E=       -0.000000000036 Rises=F Damp=F
 DIIS: error= 2.69D-07 at cycle  10 NSaved=  10.
 NSaved=10 IEnMin=10 EnMin= -341.667138799224     IErMin=10 ErrMin= 2.69D-07
 ErrMax= 2.69D-07  0.00D+00 EMaxC= 1.00D-01 BMatC= 9.87D-12 BMatP= 4.94D-11
 IDIUse=1 WtCom= 1.00D+00 WtEn= 0.00D+00
 Coeff-Com:  0.173D-04 0.314D-03 0.157D-04-0.743D-03-0.173D-02-0.916D-02
 Coeff-Com: -0.248D-02 0.473D-01 0.450D+00 0.516D+00
 Coeff:      0.173D-04 0.314D-03 0.157D-04-0.743D-03-0.173D-02-0.916D-02
 Coeff:     -0.248D-02 0.473D-01 0.450D+00 0.516D+00
 Gap=     0.190 Goal=   None    Shift=    0.000
 RMSDP=6.57D-08 MaxDP=3.33D-06 DE=-3.64D-11 OVMax= 1.80D-06

 Cycle  11  Pass 1  IDiag  1:
 E= -341.667138799236     Delta-E=       -0.000000000013 Rises=F Damp=F
 DIIS: error= 9.50D-08 at cycle  11 NSaved=  11.
 NSaved=11 IEnMin=11 EnMin= -341.667138799236     IErMin=11 ErrMin= 9.50D-08
 ErrMax= 9.50D-08  0.00D+00 EMaxC= 1.00D-01 BMatC= 1.31D-12 BMatP= 9.87D-12
[...]
 DD1Dir:  Pass   3 NRAB=    39 NRAA=     0 NRBB=     0 NR=    78.
 DD1Dir:  Pass   4 NRAB=    36 NRAA=     0 NRBB=     0 NR=    72.
 A-vector RMS=  2.8539711D-05 Max=  6.4937249D-04 conv= 1.00D-05.
 RLE energy=       -1.2437893468
 DE(Corr)=  -1.2438017     E(CORR)=     -340.99557623     Delta=-1.18D-04
 NORM(A)=   0.12245995D+01
 Iteration Nr.   9
 **********************
 DD1Dir will call FoFJK   4 times, MxPair=        78
 NAB=   153 NAA=     0 NBB=     0 NumPrc= 24.
 DD1Dir:  Pass   1 NRAB=    39 NRAA=     0 NRBB=     0 NR=    78.
 DD1Dir:  Pass   2 NRAB=    39 NRAA=     0 NRBB=     0 NR=    78.
 DD1Dir:  Pass   3 NRAB=    39 NRAA=     0 NRBB=     0 NR=    78.
 DD1Dir:  Pass   4 NRAB=    36 NRAA=     0 NRBB=     0 NR=    72.
 A-vector RMS=  1.0376446D-05 Max=  1.8001203D-04 conv= 1.00D-05.
 RLE energy=       -1.2437339525
 DE(Corr)=  -1.2437057     E(CORR)=     -340.99548019     Delta= 9.60D-05
 NORM(A)=   0.12246050D+01
 Iteration Nr.  10
 **********************
 DD1Dir will call FoFJK   4 times, MxPair=        78
 NAB=   153 NAA=     0 NBB=     0 NumPrc= 24.
 DD1Dir:  Pass   1 NRAB=    39 NRAA=     0 NRBB=     0 NR=    78.
 DD1Dir:  Pass   2 NRAB=    39 NRAA=     0 NRBB=     0 NR=    78.
 DD1Dir:  Pass   3 NRAB=    39 NRAA=     0 NRBB=     0 NR=    78.
 DD1Dir:  Pass   4 NRAB=    36 NRAA=     0 NRBB=     0 NR=    72.
 A-vector RMS=  4.7961839D-06 Max=  7.4824464D-05 conv= 1.00D-05.
 RLE energy=       -1.2437379849
 DE(Corr)=  -1.2437479     E(CORR)=     -340.99552244     Delta=-4.22D-05
 NORM(A)=   0.12245974D+01
 Iteration Nr.  11
 **********************
 DD1Dir will call FoFJK   4 times, MxPair=        78
 NAB=   153 NAA=     0 NBB=     0 NumPrc= 24.
 DD1Dir:  Pass   1 NRAB=    39 NRAA=     0 NRBB=     0 NR=    78.
 DD1Dir:  Pass   2 NRAB=    39 NRAA=     0 NRBB=     0 NR=    78.
 DD1Dir:  Pass   3 NRAB=    39 NRAA=     0 NRBB=     0 NR=    78.
 DD1Dir:  Pass   4 NRAB=    36 NRAA=     0 NRBB=     0 NR=    72.
 A-vector RMS=  2.6198372D-06 Max=  5.1230142D-05 conv= 1.00D-05.
 RLE energy=       -1.2437313572
 DE(Corr)=  -1.2437290     E(CORR)=     -340.99550352     Delta= 1.89D-05
 NORM(A)=   0.12245956D+01
 Iteration Nr.  12
 **********************
 DD1Dir will call FoFJK   4 times, MxPair=        78
 NAB=   153 NAA=     0 NBB=     0 NumPrc= 24.
 DD1Dir:  Pass   1 NRAB=    39 NRAA=     0 NRBB=     0 NR=    78.
 DD1Dir:  Pass   2 NRAB=    39 NRAA=     0 NRBB=     0 NR=    78.
 DD1Dir:  Pass   3 NRAB=    39 NRAA=     0 NRBB=     0 NR=    78.
 DD1Dir:  Pass   4 NRAB=    36 NRAA=     0 NRBB=     0 NR=    72.
 A-vector RMS=  9.3670012D-07 Max=  1.4639057D-05 conv= 1.00D-05.
 RLE energy=       -1.2437300825
 DE(Corr)=  -1.2437311     E(CORR)=     -340.99550557     Delta=-2.05D-06
 NORM(A)=   0.12245914D+01
 Iteration Nr.  13
 **********************
 DD1Dir will call FoFJK   4 times, MxPair=        78
 NAB=   153 NAA=     0 NBB=     0 NumPrc= 24.
 DD1Dir:  Pass   1 NRAB=    39 NRAA=     0 NRBB=     0 NR=    78.
 DD1Dir:  Pass   2 NRAB=    39 NRAA=     0 NRBB=     0 NR=    78.
 DD1Dir:  Pass   3 NRAB=    39 NRAA=     0 NRBB=     0 NR=    78.
 DD1Dir:  Pass   4 NRAB=    36 NRAA=     0 NRBB=     0 NR=    72.
 A-vector RMS=  9.0581472D-07 Max=  2.0137794D-05 conv= 1.00D-05.
 RLE energy=       -1.2437287351
 DE(Corr)=  -1.2437291     E(CORR)=     -340.99550363     Delta= 1.94D-06
 NORM(A)=   0.12245877D+01
 Iteration Nr.  14
 **********************
 DD1Dir will call FoFJK   4 times, MxPair=        78
 NAB=   153 NAA=     0 NBB=     0 NumPrc= 24.
 DD1Dir:  Pass   1 NRAB=    39 NRAA=     0 NRBB=     0 NR=    78.
 DD1Dir:  Pass   2 NRAB=    39 NRAA=     0 NRBB=     0 NR=    78.
 DD1Dir:  Pass   3 NRAB=    39 NRAA=     0 NRBB=     0 NR=    78.
 DD1Dir:  Pass   4 NRAB=    36 NRAA=     0 NRBB=     0 NR=    72.
 A-vector RMS=  5.3238859D-07 Max=  1.2916970D-05 conv= 1.00D-05.
 RLE energy=       -1.2437283446
 DE(Corr)=  -1.2437285     E(CORR)=     -340.99550303     Delta= 5.99D-07
 NORM(A)=   0.12245864D+01
 Iteration Nr.  15
 **********************
 DD1Dir will call FoFJK   4 times, MxPair=        78
 NAB=   153 NAA=     0 NBB=     0 NumPrc= 24.
 DD1Dir:  Pass   1 NRAB=    39 NRAA=     0 NRBB=     0 NR=    78.
 DD1Dir:  Pass   2 NRAB=    39 NRAA=     0 NRBB=     0 NR=    78.
 DD1Dir:  Pass   3 NRAB=    39 NRAA=     0 NRBB=     0 NR=    78.
 DD1Dir:  Pass   4 NRAB=    36 NRAA=     0 NRBB=     0 NR=    72.
 A-vector RMS=  2.8519545D-07 Max=  6.4340199D-06 conv= 1.00D-05.
 RLE energy=       -1.2437278172
 DE(Corr)=  -1.2437281     E(CORR)=     -340.99550260     Delta= 4.34D-07
 NORM(A)=   0.12245848D+01
 Iteration Nr.  16
 **********************
 DD1Dir will call FoFJK   4 times, MxPair=        78
 NAB=   153 NAA=     0 NBB=     0 NumPrc= 24.
 DD1Dir:  Pass   1 NRAB=    39 NRAA=     0 NRBB=     0 NR=    78.
 DD1Dir:  Pass   2 NRAB=    39 NRAA=     0 NRBB=     0 NR=    78.
 DD1Dir:  Pass   3 NRAB=    39 NRAA=     0 NRBB=     0 NR=    78.
 DD1Dir:  Pass   4 NRAB=    36 NRAA=     0 NRBB=     0 NR=    72.
 A-vector RMS=  1.4977120D-07 Max=  2.4413248D-06 conv= 1.00D-05.
 RLE energy=       -1.2437281520
 DE(Corr)=  -1.2437283     E(CORR)=     -340.99550278     Delta=-1.85D-07
 NORM(A)=   0.12245841D+01
 Iteration Nr.  17
 **********************
 DD1Dir will call FoFJK   4 times, MxPair=        78
 NAB=   153 NAA=     0 NBB=     0 NumPrc= 24.
 DD1Dir:  Pass   1 NRAB=    39 NRAA=     0 NRBB=     0 NR=    78.
 DD1Dir:  Pass   2 NRAB=    39 NRAA=     0 NRBB=     0 NR=    78.
 DD1Dir:  Pass   3 NRAB=    39 NRAA=     0 NRBB=     0 NR=    78.
 DD1Dir:  Pass   4 NRAB=    36 NRAA=     0 NRBB=     0 NR=    72.
 A-vector RMS=  6.8391459D-08 Max=  1.4621468D-06 conv= 1.00D-05.
 RLE energy=       -1.2437278195
 DE(Corr)=  -1.2437277     E(CORR)=     -340.99550218     Delta= 6.06D-07
 NORM(A)=   0.12245838D+01
 Iteration Nr.  18
 **********************
 DD1Dir will call FoFJK   4 times, MxPair=        78
 NAB=   153 NAA=     0 NBB=     0 NumPrc= 24.
 DD1Dir:  Pass   1 NRAB=    39 NRAA=     0 NRBB=     0 NR=    78.
 DD1Dir:  Pass   2 NRAB=    39 NRAA=     0 NRBB=     0 NR=    78.
 DD1Dir:  Pass   3 NRAB=    39 NRAA=     0 NRBB=     0 NR=    78.
 DD1Dir:  Pass   4 NRAB=    36 NRAA=     0 NRBB=     0 NR=    72.
 A-vector RMS=  4.5460965D-08 Max=  9.6860319D-07 conv= 1.00D-05.
 RLE energy=       -1.2437278717
 DE(Corr)=  -1.2437280     E(CORR)=     -340.99550246     Delta=-2.79D-07
 NORM(A)=   0.12245836D+01
 Iteration Nr.  19
 **********************
 DD1Dir will call FoFJK   4 times, MxPair=        78
 NAB=   153 NAA=     0 NBB=     0 NumPrc= 24.
 DD1Dir:  Pass   1 NRAB=    39 NRAA=     0 NRBB=     0 NR=    78.
 DD1Dir:  Pass   2 NRAB=    39 NRAA=     0 NRBB=     0 NR=    78.
 DD1Dir:  Pass   3 NRAB=    39 NRAA=     0 NRBB=     0 NR=    78.
 DD1Dir:  Pass   4 NRAB=    36 NRAA=     0 NRBB=     0 NR=    72.
 A-vector RMS=  2.0130742D-08 Max=  4.5682305D-07 conv= 1.00D-05.
 RLE energy=       -1.2437279019
 DE(Corr)=  -1.2437279     E(CORR)=     -340.99550240     Delta= 6.09D-08
 NORM(A)=   0.12245835D+01
 CI/CC converged in   19 iterations to DelEn= 6.09D-08 Conv= 1.00D-07 ErrA1= 2.01D-08 Conv= 1.00D-05
 Wavefunction amplitudes converged. E(Corr)=     -340.99550240    
 Largest amplitude= 7.39D-02
 T4(AAA)= -0.30838309D-02
 T4(AAB)= -0.47054011D-01
 T5(AAA)=  0.15686311D-03
 T5(AAB)=  0.24003938D-02
 Time for triples=    62378.38 seconds.
 T4(CCSD)= -0.10027568D+00
 T5(CCSD)=  0.51145139D-02
 CCSD(T)= -0.34109066357D+03
 Discarding MO integrals.
 Leave Link  913 at Mon Oct 12 18:53:33 2020, MaxMem=  1073741824 cpu:          126723.7 elap:            5280.7
 (Enter /home/spantaleone/g16/l601.exe)
 Copying SCF densities to generalized density rwf, IOpCl= 0 IROHF=0.

 **********************************************************************

            Population analysis using the SCF Density.

 **********************************************************************

 Orbital symmetries:
       Occupied  (A) (A) (A) (A) (A) (A) (A) (A) (A) (A) (A) (A)
                 (A) (A) (A) (A) (A) (A) (A) (A) (A) (A) (A) (A)
                 (A)
       Virtual   (A) (A) (A) (A) (A) (A) (A) (A) (A) (A) (A) (A)
                 (A) (A) (A) (A) (A) (A) (A) (A) (A) (A) (A) (A)
                 (A) (A) (A) (A) (A) (A) (A) (A) (A) (A) (A) (A)
                 (A) (A) (A) (A) (A) (A) (A) (A) (A) (A) (A) (A)
                 (A) (A) (A) (A) (A) (A) (A) (A) (A) (A) (A) (A)
                 (A) (A) (A) (A) (A) (A) (A) (A) (A) (A) (A) (A)
                 (A) (A) (A) (A) (A) (A) (A) (A) (A) (A) (A) (A)
                 (A) (A) (A) (A) (A) (A) (A) (A) (A) (A) (A) (A)
                 (A) (A) (A) (A) (A) (A) (A) (A) (A) (A) (A) (A)
                 (A) (A) (A) (A) (A) (A) (A) (A) (A) (A) (A) (A)
                 (A) (A) (A) (A) (A) (A) (A) (A) (A) (A) (A) (A)
                 (A) (A) (A) (A) (A) (A) (A) (A) (A) (A) (A) (A)
                 (A) (A) (A) (A) (A) (A) (A) (A) (A) (A) (A) (A)
                 (A) (A) (A) (A) (A) (A) (A) (A) (A) (A) (A) (A)
                 (A) (A) (A) (A) (A) (A) (A) (A) (A) (A) (A) (A)
                 (A) (A) (A) (A) (A) (A) (A) (A) (A) (A) (A) (A)
                 (A) (A) (A) (A) (A) (A) (A) (A) (A) (A) (A) (A)
                 (A) (A) (A) (A) (A) (A) (A) (A) (A) (A) (A) (A)
                 (A) (A) (A) (A) (A) (A) (A) (A) (A) (A) (A) (A)
                 (A) (A) (A) (A) (A) (A) (A) (A) (A) (A) (A) (A)
                 (A) (A) (A) (A) (A) (A) (A) (A) (A) (A) (A) (A)
                 (A) (A) (A) (A) (A) (A) (A) (A) (A) (A) (A) (A)
                 (A) (A) (A) (A) (A) (A) (A) (A) (A) (A) (A) (A)
                 (A) (A) (A) (A) (A) (A) (A) (A) (A) (A) (A) (A)
                 (A) (A) (A) (A) (A) (A) (A) (A) (A) (A) (A) (A)
                 (A) (A) (A) (A) (A) (A) (A) (A) (A) (A) (A) (A)
                 (A) (A) (A) (A) (A) (A) (A) (A) (A) (A) (A) (A)
                 (A) (A) (A) (A) (A) (A) (A) (A) (A) (A) (A) (A)
                 (A) (A) (A)
 The electronic state is 1-A.
 Alpha  occ. eigenvalues --  -20.69099 -11.45975 -11.40052 -11.38182 -11.30255
 Alpha  occ. eigenvalues --  -11.29208 -11.28159 -11.23172  -1.54132  -1.17843
 Alpha  occ. eigenvalues --   -1.12957  -1.06256  -0.98866  -0.90384  -0.83674
 Alpha  occ. eigenvalues --   -0.79088  -0.69365  -0.69365  -0.56814  -0.56814
 Alpha  occ. eigenvalues --   -0.47657  -0.47657  -0.46493  -0.34875  -0.34875
 Alpha virt. eigenvalues --   -0.04182  -0.04182   0.03484   0.04814   0.05743
 Alpha virt. eigenvalues --    0.05743   0.06663   0.08383   0.08593   0.08593
 Alpha virt. eigenvalues --    0.10007   0.10007   0.11522   0.12102   0.12102
 Alpha virt. eigenvalues --    0.14257   0.14257   0.15022   0.15910   0.17472
 Alpha virt. eigenvalues --    0.17472   0.18740   0.22489   0.22489   0.22527
 Alpha virt. eigenvalues --    0.22728   0.22728   0.23055   0.23512   0.23512
 Alpha virt. eigenvalues --    0.24905   0.25319   0.26089   0.26089   0.27978
 Alpha virt. eigenvalues --    0.27978   0.28935   0.29880   0.29880   0.31118
 Alpha virt. eigenvalues --    0.31118   0.31363   0.34403   0.34403   0.34655
 Alpha virt. eigenvalues --    0.34836   0.34836   0.37888   0.37888   0.39395
 Alpha virt. eigenvalues --    0.39395   0.39750   0.40469   0.43625   0.45142
 Alpha virt. eigenvalues --    0.45142   0.45519   0.46284   0.46284   0.46633
 Alpha virt. eigenvalues --    0.46633   0.46827   0.50594   0.50646   0.50647
 Alpha virt. eigenvalues --    0.53718   0.53718   0.55416   0.57894   0.57894
 Alpha virt. eigenvalues --    0.58164   0.65016   0.65021   0.65223   0.67928
 Alpha virt. eigenvalues --    0.72203   0.72203   0.74312   0.77953   0.78063
 Alpha virt. eigenvalues --    0.78063   0.78706   0.78706   0.82127   0.82127
 Alpha virt. eigenvalues --    0.83681   0.83681   0.85071   0.85071   0.85624
 Alpha virt. eigenvalues --    0.85624   0.86164   0.86164   0.87642   0.87642
 Alpha virt. eigenvalues --    0.88191   0.88869   0.92908   0.92908   0.93760
 Alpha virt. eigenvalues --    0.93760   0.94195   0.95445   0.95445   0.97466
 Alpha virt. eigenvalues --    0.97466   0.97818   0.99256   0.99256   1.00716
 Alpha virt. eigenvalues --    1.00716   1.01485   1.02774   1.02774   1.03980
 Alpha virt. eigenvalues --    1.03980   1.07919   1.11508   1.11980   1.11980
 Alpha virt. eigenvalues --    1.12616   1.12616   1.18268   1.18268   1.18719
 Alpha virt. eigenvalues --    1.19754   1.19754   1.22925   1.22925   1.23700
 Alpha virt. eigenvalues --    1.24718   1.25097   1.25097   1.28781   1.28781
 Alpha virt. eigenvalues --    1.33282   1.35402   1.37608   1.37608   1.38057
 Alpha virt. eigenvalues --    1.38057   1.40237   1.40237   1.41491   1.41491
 Alpha virt. eigenvalues --    1.43578   1.46480   1.52625   1.57277   1.57277
 Alpha virt. eigenvalues --    1.58432   1.59026   1.61201   1.61201   1.62213
 Alpha virt. eigenvalues --    1.62213   1.63366   1.63366   1.68228   1.68228
 Alpha virt. eigenvalues --    1.71113   1.79193   1.79193   1.79402   1.79402
 Alpha virt. eigenvalues --    1.79815   1.81455   1.81455   1.84438   1.84438
 Alpha virt. eigenvalues --    1.90004   1.90004   1.98674   2.01807   2.01807
 Alpha virt. eigenvalues --    2.12644   2.12644   2.12814   2.12814   2.18237
 Alpha virt. eigenvalues --    2.18237   2.20006   2.20006   2.22206   2.22206
 Alpha virt. eigenvalues --    2.27568   2.28889   2.28889   2.32866   2.32866
 Alpha virt. eigenvalues --    2.36765   2.40562   2.40562   2.47422   2.48795
 Alpha virt. eigenvalues --    2.48795   2.50788   2.52025   2.56701   2.62825
 Alpha virt. eigenvalues --    2.69195   2.69195   2.69785   2.69785   2.74953
 Alpha virt. eigenvalues --    2.75462   2.75462   2.96084   2.96521   2.96525
 Alpha virt. eigenvalues --    3.07802   3.07803   3.13905   3.16054   3.16054
 Alpha virt. eigenvalues --    3.16324   3.16324   3.19174   3.19174   3.20008
 Alpha virt. eigenvalues --    3.20008   3.20905   3.22514   3.22514   3.22992
 Alpha virt. eigenvalues --    3.22992   3.25457   3.25457   3.26282   3.26282
 Alpha virt. eigenvalues --    3.31821   3.34127   3.34127   3.36912   3.36912
 Alpha virt. eigenvalues --    3.38589   3.40482   3.40482   3.43240   3.43240
 Alpha virt. eigenvalues --    3.43470   3.43470   3.44243   3.46575   3.53340
 Alpha virt. eigenvalues --    3.55607   3.55607   3.58267   3.58477   3.58477
 Alpha virt. eigenvalues --    3.63463   3.63463   3.65287   3.65287   3.68390
 Alpha virt. eigenvalues --    3.71153   3.71153   3.72448   3.72448   3.74060
 Alpha virt. eigenvalues --    3.74060   3.79380   3.79380   3.80085   3.80480
 Alpha virt. eigenvalues --    3.80481   3.81745   3.81746   3.83631   3.83631
 Alpha virt. eigenvalues --    3.84147   3.84148   3.91253   3.91253   4.01384
 Alpha virt. eigenvalues --    4.01384   4.05580   4.11851   4.11851   4.17374
 Alpha virt. eigenvalues --    4.17374   4.22779   4.22779   4.22998   4.36458
 Alpha virt. eigenvalues --    4.36485   4.36485   4.37944   4.37946   4.38220
 Alpha virt. eigenvalues --    4.54272   4.54272   4.56943   4.72436   4.72437
 Alpha virt. eigenvalues --    4.73787   4.82112   4.82112   4.89555   4.89555
 Alpha virt. eigenvalues --    5.06001   5.20412   5.20412   5.46904   5.61324
 Alpha virt. eigenvalues --    5.61324   5.68603   5.83131   6.03002   6.06687
 Alpha virt. eigenvalues --    6.06687   6.14869   6.18257   6.47267   6.47267
 Alpha virt. eigenvalues --    6.48683   6.56019   6.56019   6.59295   6.82399
 Alpha virt. eigenvalues --    6.82399   7.18411   7.18411   7.23611   7.23611
 Alpha virt. eigenvalues --    7.55290   7.58990   7.58990   7.85073   8.00004
 Alpha virt. eigenvalues --    8.00005  12.74105  16.50147  16.66664  17.12795
 Alpha virt. eigenvalues --   17.99397  20.43324  22.44240  22.48204
          Condensed to atoms (all electrons):
               1          2          3          4          5          6
     1  C    6.330087   0.324746  -0.865882   0.231661  -0.011036  -0.012357
     2  C    0.324746   5.375010  -0.175833   0.207487  -0.003337  -0.078296
     3  C   -0.865882  -0.175833   7.697549  -0.784080  -0.222998   0.275001
     4  C    0.231661   0.207487  -0.784080   6.896232   0.145545  -0.536556
     5  C   -0.011036  -0.003337  -0.222998   0.145545   6.202727  -0.774759
     6  C   -0.012357  -0.078296   0.275001  -0.536556  -0.774759   6.769981
     7  O   -0.000087   0.005136  -0.004146  -0.016320  -0.181496   0.493504
     8  C   -0.336118   0.006301   0.000062  -0.000013  -0.004847   0.003504
               7          8
     1  C   -0.000087  -0.336118
     2  C    0.005136   0.006301
     3  C   -0.004146   0.000062
     4  C   -0.016320  -0.000013
     5  C   -0.181496  -0.004847
     6  C    0.493504   0.003504
     7  O    8.114291  -0.000082
     8  C   -0.000082   7.244716
 Mulliken charges:
               1
     1  C    0.338987
     2  C    0.338786
     3  C    0.080327
     4  C   -0.143955
     5  C    0.850201
     6  C   -0.140022
     7  O   -0.410800
     8  C   -0.913523
 Sum of Mulliken charges =  -0.00000
 Mulliken charges with hydrogens summed into heavy atoms:
               1
     1  C    0.338987
     2  C    0.338786
     3  C    0.080327
     4  C   -0.143955
     5  C    0.850201
     6  C   -0.140022
     7  O   -0.410800
     8  C   -0.913523
 Electronic spatial extent (au):  <R**2>=           1686.7502
 Charge=             -0.0000 electrons
 Dipole moment (field-independent basis, Debye):
    X=             -4.9334    Y=             -0.0028    Z=              0.0000  Tot=              4.9334
 Quadrupole moment (field-independent basis, Debye-Ang):
   XX=            -70.7603   YY=            -44.3468   ZZ=            -44.3468
   XY=             -0.0054   XZ=              0.0000   YZ=             -0.0000
 Traceless Quadrupole moment (field-independent basis, Debye-Ang):
   XX=            -17.6090   YY=              8.8045   ZZ=              8.8045
   XY=             -0.0054   XZ=              0.0000   YZ=             -0.0000
 Octapole moment (field-independent basis, Debye-Ang**2):
  XXX=           -155.0241  YYY=              0.0128  ZZZ=              0.0000  XYY=            -15.9575
  XXY=             -0.0901  XXZ=              0.0000  XZZ=            -15.9575  YZZ=              0.0043
  YYZ=              0.0000  XYZ=             -0.0000
 Hexadecapole moment (field-independent basis, Debye-Ang**3):
 XXXX=          -3276.5583 YYYY=            -49.7814 ZZZZ=            -49.7809 XXXY=             -0.2758
 XXXZ=              0.0000 YYYX=             -0.0786 YYYZ=             -0.0000 ZZZX=              0.0000
 ZZZY=             -0.0000 XXYY=           -395.6509 XXZZ=           -395.6506 YYZZ=            -16.5937
 XXYZ=             -0.0000 YYXZ=              0.0000 ZZXY=             -0.0262
 N-N= 2.214899987346D+02 E-N=-1.235529590031D+03  KE= 3.392703451511D+02
 Leave Link  601 at Mon Oct 12 18:53:34 2020, MaxMem=  1073741824 cpu:               3.0 elap:               0.2
 (Enter /home/spantaleone/g16/l9999.exe)
 1\1\GINC-N1448\SP\RCCSD(T)-FC\Aug-CC-pVTZ\C7O1\SPANTALEONE\12-Oct-2020
 \0\\#P CCSD(T)/aug-cc-pvtz geom=allcheck guess=read\\Title\\0,1\C,0,0.
 000167414,-0.0000000043,0.0127598862\C,0,0.0005358484,0.0000000077,1.3
 063739878\C,0,0.0006152089,0.0000000184,2.5653040724\C,0,0.0016022839,
 0.0000000013,3.847734636\C,0,0.0030163085,0.0000000038,5.1071460143\C,
 0,0.0058062843,0.000000002,6.3928968421\O,0,0.0084412819,-0.0000000149
 ,7.5408439902\C,0,0.0002586735,-0.0000000141,-1.2597825344\\Version=ES
 64L-G16RevB.01\State=1-A\HF=-339.7517745\MP2=-341.0337174\MP3=-340.988
 3835\MP4D=-341.03464\MP4DQ=-340.9728856\MP4SDQ=-340.999557\CCSD=-340.9
 955024\CCSD(T)=-341.0906636\RMSD=3.827e-09\PG=C01 [X(C7O1)]\\@


 ONLY THE DAY DAWNS TO WHICH YOU ARE AWAKE.

                                 -- THOREAU
 Job cpu time:       1 days 12 hours 33 minutes  5.1 seconds.
 Elapsed time:       0 days  1 hours 31 minutes 23.4 seconds.
 File lengths (MBytes):  RWF=  31796 Int=      0 D2E=      0 Chk=     12 Scr=      1
 Normal termination of Gaussian 16 at Mon Oct 12 18:53:42 2020.
