      -----------------------------------------------------------      
     |                   =====================                   |     
     |                           x T B                           |     
     |                   =====================                   |     
     |                         S. Grimme                         |     
     |          Mulliken Center for Theoretical Chemistry        |     
     |                    University of Bonn                     |     
      -----------------------------------------------------------      

   * xtb version 6.2.2 (9d81278992624c895f80dd42a50cac0aa55982e2) compiled by '@Darwin' on 04/03/2020

   xtb is free software: you can redistribute it and/or modify it under
   the terms of the GNU Lesser General Public License as published by
   the Free Software Foundation, either version 3 of the License, or
   (at your option) any later version.
   
   xtb is distributed in the hope that it will be useful,
   but WITHOUT ANY WARRANTY; without even the implied warranty of
   MERCHANTABILITY or FITNESS FOR A PARTICULAR PURPOSE.  See the
   GNU Lesser General Public License for more details.
   
   Cite this work as:
   * S. Grimme, C. Bannwarth, P. Shushkov, J. Chem. Theory Comput., 2017,
     13, 1989-2009. DOI: 10.1021/acs.jctc.7b00118
   * C. Bannwarth, S. Ehlert and S. Grimme., J. Chem. Theory Comput., 2019,
     15, 1652-1671. DOI: 10.1021/acs.jctc.8b01176
   * P. Pracht, E. Caldeweyher, S. Ehlert, S. Grimme, ChemRxiv, 2019, preprint.
     DOI: 10.26434/chemrxiv.8326202.v1
   
   for DFT-D4:
   * E. Caldeweyher, C. Bannwarth and S. Grimme, J. Chem. Phys., 2017,
     147, 034112. DOI: 10.1063/1.4993215
   * E. Caldeweyher, S. Ehlert, A. Hansen, H. Neugebauer, S. Spicher,
     C. Bannwarth and S. Grimme, J. Chem. Phys., 2019, 150, 154122.
     DOI: 10.1063/1.5090222
   
   for sTDA-xTB:
   * S. Grimme and C. Bannwarth, J. Chem. Phys., 2016, 145, 054103.
     DOI: 10.1063/1.4959605
   
   in the mass-spec context:
   * V. Asgeirsson, C. Bauer and S. Grimme, Chem. Sci., 2017, 8, 4879.
     DOI: 10.1039/c7sc00601b
   
   for metadynamics refer to:
   * S. Grimme, J. Chem. Theory Comput., 2019, 155, 2847-2862
     DOI: 10.1021/acs.jctc.9b00143
   
   with help from (in alphabetical order)
   C. Bannwarth, F. Bohle, G. Brandenburg, E. Caldeweyher, M. Checinski,
   S. Dohm, S. Ehlert, S. Ehrlich, F. März, H. Neugebauer, J. Pisarek,
   P. Pracht, P. Shushkov, and S. Spicher.
   
 * started run on 2020/05/12 at 11:45:04.781     

           -------------------------------------------------
          |                Calculation Setup                |
           -------------------------------------------------

          program call               : xtb --input C3N1_3_S_3.input C3N1_3_S_3.xyz --ohess --molden --namespace C3N1_3_S_3 output.out
          calculation namespace      : C3N1_3_S_3
          coordinate file            : C3N1_3_S_3.xyz
          number of atoms            :                     4
          number of electrons        :                    17
          charge                     :                     0
          spin                       :                   1.5
          first test random number   :      0.33940533485013

   ID    Z sym.   atoms
    1    6 C      1, 3, 4
    2    7 N      2

           -------------------------------------------------
          |                 G F N 2 - x T B                 |
           -------------------------------------------------

        Reference                      10.1021/acs.jctc.8b01176
      * Hamiltonian:
        H0-scaling (s, p, d)           1.850000    2.230000    2.230000
        zeta-weighting                 0.500000
      * Dispersion:
        s8                             2.700000
        a1                             0.520000
        a2                             5.000000
        s9                             5.000000
      * Repulsion:
        kExp                           1.500000    1.000000
        rExp                           1.000000
      * Coulomb:
        alpha                          2.000000
        third order                    shell-resolved
        anisotropic                    true
        a3                             3.000000
        a5                             4.000000
        cn-shift                       1.200000
        cn-exp                         4.000000
        max-rad                        5.000000


          ...................................................
          :                      SETUP                      :
          :.................................................:
          :  # basis functions                  16          :
          :  # atomic orbitals                  16          :
          :  # shells                            8          :
          :  # electrons                        17          :
          :  max. iterations                   250          :
          :  Hamiltonian                  GFN2-xTB          :
          :  restarted?                      false          :
          :  GBSA solvation                  false          :
          :  PC potential                    false          :
          :  electronic temp.          300.0000000     K    :
          :  accuracy                    1.0000000          :
          :  -> integral cutoff          0.2500000E+02      :
          :  -> integral neglect         0.1000000E-07      :
          :  -> SCF convergence          0.1000000E-05 Eh   :
          :  -> wf. convergence          0.1000000E-03 e    :
          :  Broyden damping             0.4000000          :
          ...................................................

 iter      E             dE          RMSdq      gap      omega  full diag
   1     -8.7896962 -0.878970E+01  0.105E+01    0.90       0.0  T
   2     -8.6930420  0.966542E-01  0.846E+00    0.80       1.0  T
   3     -7.8403772  0.852665E+00  0.994E+00    1.59       1.0  T
   4     -7.5318168  0.308560E+00  0.121E+01    1.50       1.0  T
   5     -8.8213794 -0.128956E+01  0.254E+00    0.85       1.0  T
   6     -8.8454915 -0.241121E-01  0.161E+00    0.79       1.0  T
   7     -8.8518782 -0.638672E-02  0.102E+00    0.80       1.0  T
   8     -8.8521929 -0.314708E-03  0.907E-01    0.80       1.0  T
   9     -8.8518933  0.299547E-03  0.401E-01    0.79       1.0  T
  10     -8.8521067 -0.213354E-03  0.277E-01    0.79       1.0  T
  11     -8.8523956 -0.288918E-03  0.948E-02    0.79       1.0  T
  12     -8.8524416 -0.460189E-04  0.322E-02    0.79       1.6  T
  13     -8.8524439 -0.224688E-05  0.121E-02    0.79       4.1  T
  14     -8.8524446 -0.755423E-06  0.263E-03    0.79      19.0  T
  15     -8.8524446 -0.127493E-07  0.111E-03    0.79      45.2  T
  16     -8.8524446 -0.649374E-08  0.317E-04    0.79     157.6  T
  17     -8.8524446 -0.382931E-09  0.375E-05    0.79    1331.6  T

   *** convergence criteria satisfied after 17 iterations ***

         #    Occupation            Energy/Eh            Energy/eV
      -------------------------------------------------------------
         1        2.0000           -0.7150000             -19.4561
       ...           ...                  ...                  ...
         4        2.0000           -0.5725168             -15.5790
         5        2.0000           -0.5433188             -14.7845
         6        2.0000           -0.5202222             -14.1560
         7        2.0000           -0.5177945             -14.0899
         8        1.0000           -0.4552084             -12.3869
         9        1.0000           -0.4468212             -12.1586
        10        1.0000           -0.4035637             -10.9815 (HOMO)
        11        0.0000           -0.3744458             -10.1892 (LUMO)
        12                         -0.3585794              -9.7574
        13                         -0.3314057              -9.0180
        14                          0.0042521               0.1157
        15                          0.0496027               1.3498
        16                          0.0626431               1.7046
      -------------------------------------------------------------
                  HL-Gap            0.0291179 Eh            0.7923 eV
             Fermi-level           -0.4377531 Eh          -11.9119 eV

 SCC (total)                   0 d,  0 h,  0 min,  0.004 sec
 SCC setup                      ...        0 min,  0.000 sec (  2.351%)
 Dispersion                     ...        0 min,  0.000 sec (  0.359%)
 integral evaluation            ...        0 min,  0.001 sec ( 25.304%)
 zeroth order Hamiltonian       ...        0 min,  0.000 sec (  0.431%)
 iterations                     ...        0 min,  0.002 sec ( 41.576%)
 molecular gradient             ...        0 min,  0.001 sec ( 26.048%)
 printout                       ...        0 min,  0.000 sec (  3.650%)

         :::::::::::::::::::::::::::::::::::::::::::::::::::::
         ::                     SUMMARY                     ::
         :::::::::::::::::::::::::::::::::::::::::::::::::::::
         :: total energy              -8.815435870497 Eh    ::
         :: gradient norm              0.290961348419 Eh/a0 ::
         :: HOMO-LUMO gap              0.792337766531 eV    ::
         ::.................................................::
         :: SCC energy                -8.852444642246 Eh    ::
         :: -> isotropic ES           -0.028974962833 Eh    ::
         :: -> anisotropic ES         -0.000663723102 Eh    ::
         :: -> anisotropic XC          0.009766928499 Eh    ::
         :: -> dispersion             -0.001882998228 Eh    ::
         :: repulsion energy           0.037008756821 Eh    ::
         :: add. restraining           0.000000000000 Eh    ::
         :::::::::::::::::::::::::::::::::::::::::::::::::::::

      ----------------------------------------------------------- 
     |                   =====================                   |
     |                        A N C O P T                        |
     |                   =====================                   |
     |               Approximate Normal Coordinate               |
     |                Rational Function Optimizer                |
      ----------------------------------------------------------- 

          ...................................................
          :                      SETUP                      :
          :.................................................:
          :   optimization level            normal          :
          :   max. optcycles                   200          :
          :   ANC micro-cycles                  20          :
          :   degrees of freedom                 6          :
          :.................................................:
          :   RF solver                   davidson          :
          :   write xtbopt.log                true          :
          :   linear?                        false          :
          :   energy convergence         0.5000000E-05 Eh   :
          :   grad. convergence          0.1000000E-02 Eh/α :
          :   maximium RF displ.         1.0000000          :
          :   Hlow (freq-cutoff)         0.1000000E-01      :
          :   Hmax (freq-cutoff)         5.0000000          :
          :   S6 in model hess.         20.0000000          :
          ...................................................

generating ANC from model Hessian ...
Using Lindh-Hessian (1995)
 Shifting diagonal of input Hessian by    1.1047183113481532E-003
 Lowest  eigenvalues of input Hessian
   -0.000000   -0.000000   -0.000000   -0.000000    0.000000    0.000000
    0.010000    0.085810    0.117065    0.748079    0.935469    1.159018
 Highest eigenvalues
    0.010000    0.085810    0.117065    0.748079    0.935469    1.159018


........................................................................
.............................. CYCLE    1 ..............................
........................................................................
   1     -8.8524446 -0.885244E+01  0.124E-05    0.79       0.0  T
   2     -8.8524446  0.146940E-10  0.395E-05    0.79    1265.3  T
   3     -8.8524446 -0.769163E-11  0.310E-05    0.79    1614.0  T
     SCC iter.                  ...        0 min,  0.001 sec
     gradient                   ...        0 min,  0.001 sec
 * total energy  :    -8.8154359 Eh     change        0.8017231E-10 Eh
   gradient norm :     0.2909616 Eh/α   predicted     0.0000000E+00 (-100.00%)
   displ. norm   :     0.3307375 α      lambda       -0.9504181E-01
   maximum displ.:     0.2951569 α      in ANC's #4, #5, #6, ...

........................................................................
.............................. CYCLE    2 ..............................
........................................................................
   1     -8.9670175 -0.896702E+01  0.245E+00    1.02       0.0  T
   2     -8.9518775  0.151400E-01  0.259E+00    0.96       1.0  T
   3     -8.9743109 -0.224334E-01  0.133E+00    0.98       1.0  T
   4     -8.9420807  0.322302E-01  0.211E+00    1.01       1.0  T
   5     -8.9461345 -0.405374E-02  0.187E+00    1.03       1.0  T
   6     -8.9792313 -0.330968E-01  0.210E-01    0.97       1.0  T
   7     -8.9793750 -0.143664E-03  0.881E-02    0.97       1.0  T
   8     -8.9793877 -0.127187E-04  0.138E-02    0.96       3.6  T
   9     -8.9793883 -0.634715E-06  0.304E-03    0.96      16.5  T
  10     -8.9793883 -0.211803E-07  0.155E-03    0.96      32.2  T
  11     -8.9793883 -0.168414E-07  0.130E-04    0.96     384.1  T
  12     -8.9793883  0.483880E-10  0.105E-04    0.96     474.7  T
     SCC iter.                  ...        0 min,  0.001 sec
     gradient                   ...        0 min,  0.001 sec
 * total energy  :    -8.8923860 Eh     change       -0.7695011E-01 Eh
   gradient norm :     0.1642479 Eh/α   predicted    -0.5271911E-01 ( -31.49%)
   displ. norm   :     0.4021536 α      lambda       -0.6124737E-01
   maximum displ.:     0.3320394 α      in ANC's #4, #1, #5, ...

........................................................................
.............................. CYCLE    3 ..............................
........................................................................
   1     -9.1079690 -0.910797E+01  0.292E+00    1.07       0.0  T
   2     -9.0841949  0.237740E-01  0.251E+00    1.04       1.0  T
   3     -9.0002536  0.839414E-01  0.372E+00    1.13       1.0  T
   4     -9.1035207 -0.103267E+00  0.144E+00    1.02       1.0  T
   5     -9.1128509 -0.933016E-02  0.758E-01    1.03       1.0  T
   6     -9.1159935 -0.314258E-02  0.262E-01    1.01       1.0  T
   7     -9.1161620 -0.168523E-03  0.412E-02    1.01       1.2  T
   8     -9.1161663 -0.432584E-05  0.156E-02    1.01       3.2  T
   9     -9.1161664 -0.574820E-07  0.495E-03    1.01      10.1  T
  10     -9.1161664 -0.247812E-07  0.145E-03    1.01      34.5  T
  11     -9.1161664 -0.106632E-07  0.147E-04    1.01     340.1  T
  12     -9.1161664 -0.179003E-10  0.714E-05    1.01     700.6  T
     SCC iter.                  ...        0 min,  0.001 sec
     gradient                   ...        0 min,  0.001 sec
 * total energy  :    -8.9062333 Eh     change       -0.1384737E-01 Eh
   gradient norm :     0.1710657 Eh/α   predicted    -0.3557638E-01 ( 156.92%)
   displ. norm   :     0.4371978 α      lambda       -0.3321443E-01
   maximum displ.:     0.3802670 α      in ANC's #1, #2, #3, ...

........................................................................
.............................. CYCLE    4 ..............................
........................................................................
   1     -9.0450691 -0.904507E+01  0.196E+00    0.63       0.0  T
   2     -8.9242051  0.120864E+00  0.350E+00    0.73       1.0  T
   3     -9.0181564 -0.939512E-01  0.206E+00    0.66       1.0  T
   4     -9.0510312 -0.328748E-01  0.765E-01    0.64       1.0  T
   5     -9.0526380 -0.160681E-02  0.236E-01    0.65       1.0  T
   6     -9.0527190 -0.810558E-04  0.176E-01    0.64       1.0  T
   7     -9.0528032 -0.841949E-04  0.481E-02    0.64       1.0  T
   8     -9.0528172 -0.139723E-04  0.103E-02    0.64       4.9  T
   9     -9.0528172 -0.236705E-07  0.263E-03    0.64      19.0  T
  10     -9.0528172 -0.670261E-08  0.625E-04    0.64      80.0  T
  11     -9.0528172 -0.866338E-09  0.106E-04    0.64     471.7  T
     SCC iter.                  ...        0 min,  0.001 sec
     gradient                   ...        0 min,  0.001 sec
 * total energy  :    -8.9196833 Eh     change       -0.1344992E-01 Eh
   gradient norm :     0.0478532 Eh/α   predicted    -0.1978155E-01 (  47.08%)
   displ. norm   :     0.2352081 α      lambda       -0.3128342E-02
   maximum displ.:     0.2203988 α      in ANC's #1, #4, #5, ...

........................................................................
.............................. CYCLE    5 ..............................
........................................................................
   1     -9.0575118 -0.905751E+01  0.909E-01    0.53       0.0  T
   2     -9.0570253  0.486512E-03  0.649E-01    0.52       1.0  T
   3     -9.0545828  0.244244E-02  0.729E-01    0.52       1.0  T
   4     -9.0487909  0.579197E-02  0.941E-01    0.53       1.0  T
   5     -9.0578854 -0.909455E-02  0.123E-01    0.52       1.0  T
   6     -9.0579758 -0.903604E-04  0.517E-02    0.52       1.0  T
   7     -9.0579866 -0.108051E-04  0.877E-03    0.52       5.7  T
   8     -9.0579869 -0.333338E-06  0.238E-03    0.52      21.0  T
   9     -9.0579869 -0.936605E-09  0.489E-04    0.52     102.2  T
  10     -9.0579869 -0.788656E-09  0.194E-04    0.52     258.1  T
     SCC iter.                  ...        0 min,  0.001 sec
     gradient                   ...        0 min,  0.001 sec
 * total energy  :    -8.9216490 Eh     change       -0.1965782E-02 Eh
   gradient norm :     0.0405019 Eh/α   predicted    -0.1650705E-02 ( -16.03%)
   displ. norm   :     0.2008330 α      lambda       -0.5566990E-02
   maximum displ.:     0.1341069 α      in ANC's #4, #2, #5, ...

........................................................................
.............................. CYCLE    6 ..............................
........................................................................
   1     -9.0887794 -0.908878E+01  0.123E+00    0.36       0.0  T
   2     -9.0883626  0.416727E-03  0.822E-01    0.35       1.0  T
   3     -9.0759348  0.124279E-01  0.124E+00    0.36       1.0  T
   4     -9.0798645 -0.392973E-02  0.990E-01    0.35       1.0  T
   5     -9.0893058 -0.944132E-02  0.185E-01    0.35       1.0  T
   6     -9.0894482 -0.142377E-03  0.786E-02    0.35       1.0  T
   7     -9.0894467  0.148237E-05  0.403E-02    0.35       1.2  T
   8     -9.0894574 -0.107301E-04  0.683E-03    0.35       7.3  T
   9     -9.0894574  0.302250E-07  0.257E-03    0.35      19.4  T
  10     -9.0894575 -0.456798E-07  0.701E-04    0.35      71.4  T
  11     -9.0894575 -0.140448E-08  0.826E-05    0.35     605.0  T
     SCC iter.                  ...        0 min,  0.001 sec
     gradient                   ...        0 min,  0.001 sec
 * total energy  :    -8.9213293 Eh     change        0.3197726E-03 Eh
   gradient norm :     0.0502162 Eh/α   predicted    -0.2895764E-02 (*******%)
   displ. norm   :     0.2181921 α      lambda       -0.4497716E-02
   maximum displ.:     0.2003588 α      in ANC's #1, #2, #3, ...

........................................................................
.............................. CYCLE    7 ..............................
........................................................................
   1     -9.0747959 -0.907480E+01  0.115E+00    0.31       0.0  T
   2     -9.0650536  0.974231E-02  0.118E+00    0.32       1.0  T
   3     -9.0586659  0.638771E-02  0.136E+00    0.32       1.0  T
   4     -9.0756377 -0.169718E-01  0.393E-01    0.31       1.0  T
   5     -9.0758323 -0.194664E-03  0.161E-01    0.31       1.0  T
   6     -9.0759245 -0.921349E-04  0.814E-02    0.31       1.0  T
   7     -9.0759268 -0.234379E-05  0.298E-02    0.31       1.7  T
   8     -9.0759334 -0.659874E-05  0.639E-03    0.31       7.8  T
   9     -9.0759335 -0.567936E-07  0.107E-03    0.31      46.9  T
  10     -9.0759335 -0.246194E-08  0.430E-04    0.31     116.2  T
  11     -9.0759335 -0.431525E-09  0.607E-05    0.31     824.2  T
     SCC iter.                  ...        0 min,  0.001 sec
     gradient                   ...        0 min,  0.001 sec
 * total energy  :    -8.9228218 Eh     change       -0.1492519E-02 Eh
   gradient norm :     0.0362318 Eh/α   predicted    -0.2355920E-02 (  57.85%)
   displ. norm   :     0.0909548 α      lambda       -0.1839655E-02
   maximum displ.:     0.0760444 α      in ANC's #3, #4, #6, ...

........................................................................
.............................. CYCLE    8 ..............................
........................................................................
   1     -9.0666417 -0.906664E+01  0.630E-01    0.38       0.0  T
   2     -9.0636683  0.297342E-02  0.690E-01    0.38       1.0  T
   3     -9.0631149  0.553422E-03  0.640E-01    0.39       1.0  T
   4     -9.0664689 -0.335404E-02  0.286E-01    0.38       1.0  T
   5     -9.0669677 -0.498775E-03  0.678E-02    0.38       1.0  T
   6     -9.0669853 -0.175617E-04  0.341E-02    0.38       1.5  T
   7     -9.0669888 -0.355264E-05  0.635E-03    0.38       7.9  T
   8     -9.0669888  0.497547E-07  0.374E-03    0.38      13.4  T
   9     -9.0669888 -0.712024E-07  0.369E-04    0.38     135.5  T
  10     -9.0669888 -0.252820E-09  0.443E-05    0.38    1129.7  T
     SCC iter.                  ...        0 min,  0.001 sec
     gradient                   ...        0 min,  0.001 sec
 * total energy  :    -8.9232569 Eh     change       -0.4351569E-03 Eh
   gradient norm :     0.0226414 Eh/α   predicted    -0.9274372E-03 ( 113.13%)
   displ. norm   :     0.0377301 α      lambda       -0.6300496E-03
   maximum displ.:     0.0206621 α      in ANC's #1, #4, #2, ...

........................................................................
.............................. CYCLE    9 ..............................
........................................................................
   1     -9.0759965 -0.907600E+01  0.237E-01    0.38       0.0  T
   2     -9.0759822  0.142477E-04  0.171E-01    0.38       1.0  T
   3     -9.0756755  0.306756E-03  0.201E-01    0.38       1.0  T
   4     -9.0755607  0.114708E-03  0.217E-01    0.38       1.0  T
   5     -9.0760170 -0.456227E-03  0.259E-02    0.38       1.9  T
   6     -9.0760186 -0.160291E-05  0.143E-02    0.38       3.5  T
   7     -9.0760187 -0.125414E-06  0.258E-03    0.38      19.4  T
   8     -9.0760187 -0.343133E-07  0.815E-04    0.38      61.4  T
   9     -9.0760187 -0.693433E-09  0.108E-04    0.38     465.0  T
     SCC iter.                  ...        0 min,  0.001 sec
     gradient                   ...        0 min,  0.001 sec
 * total energy  :    -8.9235897 Eh     change       -0.3327524E-03 Eh
   gradient norm :     0.0073541 Eh/α   predicted    -0.3154716E-03 (  -5.19%)
   displ. norm   :     0.0747473 α      lambda       -0.1939359E-03
   maximum displ.:     0.0660178 α      in ANC's #1, #4, #3, ...

........................................................................
.............................. CYCLE   10 ..............................
........................................................................
   1     -9.0747752 -0.907478E+01  0.316E-01    0.35       0.0  T
   2     -9.0744605  0.314701E-03  0.249E-01    0.35       1.0  T
   3     -9.0725739  0.188668E-02  0.475E-01    0.35       1.0  T
   4     -9.0747935 -0.221961E-02  0.775E-02    0.35       1.0  T
   5     -9.0748108 -0.173133E-04  0.250E-02    0.35       2.0  T
   6     -9.0748135 -0.273638E-05  0.129E-02    0.35       3.9  T
   7     -9.0748137 -0.211006E-06  0.356E-03    0.35      14.1  T
   8     -9.0748138 -0.107109E-06  0.720E-04    0.35      69.4  T
   9     -9.0748138 -0.269214E-09  0.122E-04    0.35     408.2  T
     SCC iter.                  ...        0 min,  0.001 sec
     gradient                   ...        0 min,  0.001 sec
 * total energy  :    -8.9237056 Eh     change       -0.1158959E-03 Eh
   gradient norm :     0.0082126 Eh/α   predicted    -0.9750892E-04 ( -15.87%)
   displ. norm   :     0.0842982 α      lambda       -0.1874270E-03
   maximum displ.:     0.0759977 α      in ANC's #1, #4, #6, ...

........................................................................
.............................. CYCLE   11 ..............................
........................................................................
   1     -9.0743697 -0.907437E+01  0.365E-01    0.35       0.0  T
   2     -9.0743430  0.267528E-04  0.219E-01    0.35       1.0  T
   3     -9.0729774  0.136562E-02  0.385E-01    0.35       1.0  T
   4     -9.0742111 -0.123371E-02  0.142E-01    0.35       1.0  T
   5     -9.0743843 -0.173230E-03  0.271E-02    0.35       1.8  T
   6     -9.0743874 -0.311704E-05  0.460E-03    0.35      10.9  T
   7     -9.0743875 -0.129851E-06  0.140E-03    0.35      35.7  T
   8     -9.0743875 -0.224639E-08  0.674E-04    0.35      74.2  T
   9     -9.0743875 -0.400318E-09  0.178E-04    0.35     281.0  T
     SCC iter.                  ...        0 min,  0.001 sec
     gradient                   ...        0 min,  0.001 sec
 * total energy  :    -8.9238475 Eh     change       -0.1418745E-03 Eh
   gradient norm :     0.0089816 Eh/α   predicted    -0.9438030E-04 ( -33.48%)
   displ. norm   :     0.1061616 α      lambda       -0.2115258E-03
   maximum displ.:     0.0926271 α      in ANC's #1, #6, #4, ...

........................................................................
.............................. CYCLE   12 ..............................
........................................................................
   1     -9.0739926 -0.907399E+01  0.482E-01    0.35       0.0  T
   2     -9.0739983 -0.575500E-05  0.282E-01    0.35       1.0  T
   3     -9.0738630  0.135305E-03  0.171E-01    0.35       1.0  T
   4     -9.0740000 -0.136952E-03  0.462E-02    0.35       1.1  T
   5     -9.0739811  0.189287E-04  0.556E-02    0.35       1.0  T
   6     -9.0740100 -0.289400E-04  0.214E-02    0.35       2.3  T
   7     -9.0740131 -0.308686E-05  0.181E-03    0.35      27.6  T
   8     -9.0740131 -0.410664E-09  0.566E-04    0.35      88.3  T
   9     -9.0740131 -0.566468E-09  0.223E-04    0.35     224.7  T
     SCC iter.                  ...        0 min,  0.001 sec
     gradient                   ...        0 min,  0.001 sec
 * total energy  :    -8.9239821 Eh     change       -0.1346371E-03 Eh
   gradient norm :     0.0036892 Eh/α   predicted    -0.1069540E-03 ( -20.56%)
   displ. norm   :     0.0691759 α      lambda       -0.5859529E-04
   maximum displ.:     0.0584095 α      in ANC's #1, #4, #5, ...

........................................................................
.............................. CYCLE   13 ..............................
........................................................................
   1     -9.0740721 -0.907407E+01  0.326E-01    0.34       0.0  T
   2     -9.0740687  0.341784E-05  0.191E-01    0.34       1.0  T
   3     -9.0737303  0.338362E-03  0.210E-01    0.34       1.0  T
   4     -9.0739289 -0.198542E-03  0.123E-01    0.34       1.0  T
   5     -9.0740817 -0.152847E-03  0.244E-02    0.34       2.1  T
   6     -9.0740846 -0.293562E-05  0.736E-03    0.34       6.8  T
   7     -9.0740847 -0.101565E-06  0.143E-03    0.34      35.0  T
   8     -9.0740848 -0.441386E-08  0.499E-04    0.34     100.2  T
   9     -9.0740848 -0.729337E-10  0.134E-04    0.34     373.8  T
     SCC iter.                  ...        0 min,  0.001 sec
     gradient                   ...        0 min,  0.001 sec
 * total energy  :    -8.9240255 Eh     change       -0.4337271E-04 Eh
   gradient norm :     0.0028307 Eh/α   predicted    -0.2943889E-04 ( -32.13%)
   displ. norm   :     0.0694959 α      lambda       -0.4701692E-04
   maximum displ.:     0.0547125 α      in ANC's #1, #4, #5, ...

........................................................................
.............................. CYCLE   14 ..............................
........................................................................
   1     -9.0747830 -0.907478E+01  0.341E-01    0.33       0.0  T
   2     -9.0747814  0.158676E-05  0.196E-01    0.33       1.0  T
   3     -9.0744491  0.332344E-03  0.200E-01    0.33       1.0  T
   4     -9.0746902 -0.241111E-03  0.102E-01    0.33       1.0  T
   5     -9.0747913 -0.101039E-03  0.252E-02    0.33       2.0  T
   6     -9.0747944 -0.315742E-05  0.685E-03    0.33       7.3  T
   7     -9.0747945 -0.916208E-07  0.118E-03    0.33      42.2  T
   8     -9.0747945 -0.174956E-08  0.385E-04    0.33     129.9  T
   9     -9.0747945 -0.314380E-10  0.867E-05    0.33     576.9  T
     SCC iter.                  ...        0 min,  0.001 sec
     gradient                   ...        0 min,  0.001 sec
 * total energy  :    -8.9240575 Eh     change       -0.3197423E-04 Eh
   gradient norm :     0.0010705 Eh/α   predicted    -0.2362031E-04 ( -26.13%)
   displ. norm   :     0.1506801 α      lambda       -0.2946097E-04
   maximum displ.:     0.1252243 α      in ANC's #1, #4, #5, ...

........................................................................
.............................. CYCLE   15 ..............................
........................................................................
   1     -9.0708290 -0.907083E+01  0.733E-01    0.31       0.0  T
   2     -9.0708168  0.122293E-04  0.426E-01    0.31       1.0  T
   3     -9.0682883  0.252847E-02  0.495E-01    0.30       1.0  T
   4     -9.0708146 -0.252629E-02  0.924E-02    0.31       1.0  T
   5     -9.0708632 -0.486274E-04  0.426E-02    0.31       1.2  T
   6     -9.0708662 -0.294596E-05  0.215E-02    0.31       2.3  T
   7     -9.0708682 -0.198897E-05  0.398E-03    0.31      12.5  T
   8     -9.0708682 -0.358637E-07  0.126E-03    0.31      39.7  T
   9     -9.0708682 -0.185953E-08  0.292E-04    0.31     171.2  T
  10     -9.0708682 -0.535412E-10  0.379E-05    0.31    1319.8  T
     SCC iter.                  ...        0 min,  0.001 sec
     gradient                   ...        0 min,  0.001 sec
 * total energy  :    -8.9240142 Eh     change        0.4330097E-04 Eh
   gradient norm :     0.0107328 Eh/α   predicted    -0.1488062E-04 (-134.37%)
   displ. norm   :     0.0531769 α      lambda       -0.1141910E-03
   maximum displ.:     0.0474143 α      in ANC's #1, #4, #5, ...

........................................................................
.............................. CYCLE   16 ..............................
........................................................................
   1     -9.0739306 -0.907393E+01  0.254E-01    0.32       0.0  T
   2     -9.0739270  0.353055E-05  0.151E-01    0.32       1.0  T
   3     -9.0734269  0.500091E-03  0.222E-01    0.32       1.0  T
   4     -9.0739019 -0.474996E-03  0.643E-02    0.32       1.0  T
   5     -9.0739384 -0.364619E-04  0.126E-02    0.32       4.0  T
   6     -9.0739384 -0.870345E-08  0.102E-02    0.32       4.9  T
   7     -9.0739388 -0.347183E-06  0.126E-03    0.32      39.7  T
   8     -9.0739388  0.263519E-09  0.647E-04    0.32      77.3  T
   9     -9.0739388 -0.104949E-08  0.112E-04    0.32     445.6  T
     SCC iter.                  ...        0 min,  0.001 sec
     gradient                   ...        0 min,  0.001 sec
 * total energy  :    -8.9240763 Eh     change       -0.6215039E-04 Eh
   gradient norm :     0.0021475 Eh/α   predicted    -0.5725583E-04 (  -7.88%)
   displ. norm   :     0.0153967 α      lambda       -0.8301740E-05
   maximum displ.:     0.0084504 α      in ANC's #1, #5, #2, ...

........................................................................
.............................. CYCLE   17 ..............................
........................................................................
   1     -9.0745678 -0.907457E+01  0.942E-02    0.32       0.0  T
   2     -9.0745678 -0.201871E-07  0.510E-02    0.32       1.0  T
   3     -9.0745412  0.265694E-04  0.522E-02    0.32       1.0  T
   4     -9.0745632 -0.219479E-04  0.241E-02    0.32       2.1  T
   5     -9.0745685 -0.537407E-05  0.552E-03    0.32       9.1  T
   6     -9.0745686 -0.297844E-07  0.350E-03    0.32      14.3  T
   7     -9.0745686 -0.403335E-07  0.327E-04    0.32     153.0  T
   8     -9.0745686 -0.433147E-10  0.918E-05    0.32     544.4  T
     SCC iter.                  ...        0 min,  0.001 sec
     gradient                   ...        0 min,  0.001 sec
 * total energy  :    -8.9240817 Eh     change       -0.5396106E-05 Eh
   gradient norm :     0.0006254 Eh/α   predicted    -0.4150617E-05 ( -23.08%)
   displ. norm   :     0.0334729 α      lambda       -0.3330532E-05
   maximum displ.:     0.0230671 α      in ANC's #1, #5, #6, ...

........................................................................
.............................. CYCLE   18 ..............................
........................................................................
   1     -9.0746838 -0.907468E+01  0.189E-01    0.32       0.0  T
   2     -9.0746851 -0.131725E-05  0.103E-01    0.32       1.0  T
   3     -9.0746814  0.372403E-05  0.283E-02    0.32       1.8  T
   4     -9.0746814  0.927191E-09  0.235E-02    0.32       2.1  T
   5     -9.0746822 -0.872291E-06  0.197E-02    0.32       2.5  T
   6     -9.0746858 -0.356096E-05  0.210E-03    0.32      23.8  T
   7     -9.0746858 -0.157613E-07  0.550E-04    0.32      90.9  T
   8     -9.0746858 -0.412808E-10  0.766E-05    0.32     652.6  T
     SCC iter.                  ...        0 min,  0.001 sec
     gradient                   ...        0 min,  0.001 sec
 * total energy  :    -8.9240855 Eh     change       -0.3791843E-05 Eh
   gradient norm :     0.0007983 Eh/α   predicted    -0.1665870E-05 ( -56.07%)
   displ. norm   :     0.0709448 α      lambda       -0.4706592E-05
   maximum displ.:     0.0509961 α      in ANC's #1, #5, #4, ...

   *** GEOMETRY OPTIMIZATION CONVERGED AFTER 18 ITERATIONS ***

------------------------------------------------------------------------
 total energy gain   :        -0.1086496 Eh      -68.1787 kcal/mol
 total RMSD          :         0.8828488 a0        0.4672 Å
 total power (kW/mol):       -15.8477527 (step)-6015.0784 (real)
------------------------------------------------------------------------

 ANCopt (total)                0 d,  0 h,  0 min,  0.047 sec
 optimizer setup                ...        0 min,  0.000 sec (  0.142%)
 model hessian                  ...        0 min,  0.000 sec (  0.149%)
 ANC generation                 ...        0 min,  0.000 sec (  0.100%)
 coordinate transformation      ...        0 min,  0.000 sec (  0.081%)
 single point calculation       ...        0 min,  0.046 sec ( 96.646%)
 optimization log               ...        0 min,  0.000 sec (  0.871%)
 hessian update                 ...        0 min,  0.000 sec (  0.072%)
 rational function              ...        0 min,  0.000 sec (  0.808%)

================
 final structure:
================
4
 xtb: 6.2.2 (9d81278992624c895f80dd42a50cac0aa55982e2)
C        -1.81191945264750   -0.03939062071114   -0.12694499814742
N        -0.60173808254590   -0.01704508504320    0.18243068106998
C         0.57825206765377    0.08207081781670   -0.21977246108333
C         1.83540546753964   -0.02563511206236    0.16428777816077

 Bond Distances (Angstroems)
 ---------------------------
C1-N2=1.2493         N2-C1=1.2493         N2-C3=1.2506         C3-N2=1.2506         C3-C4=1.3189         C4-C3=1.3189         
 C  C  Rav=1.3189 sigma=0.0000  Rmin=1.3189  Rmax=1.3189     1
 N  C  Rav=1.2499 sigma=0.0006  Rmin=1.2493  Rmax=1.2506     2

 selected bond angles (degree)
 --------------------
C3-N2-C1=146.70                C4-C3-N2=143.06                

 selected dihedral angles (degree)
 ---------------------------------
C4-C3-N2-C1=188.94            
           -------------------------------------------------
          |                Final Singlepoint                |
           -------------------------------------------------

          ...................................................
          :                      SETUP                      :
          :.................................................:
          :  # basis functions                  16          :
          :  # atomic orbitals                  16          :
          :  # shells                            8          :
          :  # electrons                        17          :
          :  max. iterations                   250          :
          :  Hamiltonian                  GFN2-xTB          :
          :  restarted?                      false          :
          :  GBSA solvation                  false          :
          :  PC potential                    false          :
          :  electronic temp.          300.0000000     K    :
          :  accuracy                    1.0000000          :
          :  -> integral cutoff          0.2500000E+02      :
          :  -> integral neglect         0.1000000E-07      :
          :  -> SCF convergence          0.1000000E-05 Eh   :
          :  -> wf. convergence          0.1000000E-03 e    :
          :  Broyden damping             0.4000000          :
          ...................................................

 iter      E             dE          RMSdq      gap      omega  full diag
   1     -9.0746858 -0.907469E+01  0.192E-05    0.32       0.0  T
   2     -9.0746858  0.154543E-12  0.137E-05    0.32    3651.8  T
   3     -9.0746858  0.148859E-11  0.147E-05    0.32    3394.5  T

   *** convergence criteria satisfied after 3 iterations ***

         #    Occupation            Energy/Eh            Energy/eV
      -------------------------------------------------------------
         1        2.0000           -0.7225341             -19.6612
       ...           ...                  ...                  ...
         4        2.0000           -0.5793780             -15.7657
         5        2.0000           -0.5758517             -15.6697
         6        2.0000           -0.4871709             -13.2566
         7        2.0000           -0.4800715             -13.0634
         8        1.0000           -0.4578202             -12.4579
         9        1.0000           -0.4331544             -11.7867
        10        0.9980           -0.3366556              -9.1609 (HOMO)
        11        0.0020           -0.3248399              -8.8393 (LUMO)
        12                         -0.2332069              -6.3459
        13                         -0.1974030              -5.3716
        14                          0.1502803               4.0893
        15                          0.5595129              15.2251
        16                          0.8318954              22.6370
      -------------------------------------------------------------
                  HL-Gap            0.0118157 Eh            0.3215 eV
             Fermi-level           -0.3998467 Eh          -10.8804 eV

 SCC (total)                   0 d,  0 h,  0 min,  0.002 sec
 SCC setup                      ...        0 min,  0.000 sec (  3.188%)
 Dispersion                     ...        0 min,  0.000 sec (  0.442%)
 integral evaluation            ...        0 min,  0.001 sec ( 36.825%)
 zeroth order Hamiltonian       ...        0 min,  0.000 sec (  0.480%)
 iterations                     ...        0 min,  0.001 sec ( 21.913%)
 molecular gradient             ...        0 min,  0.001 sec ( 34.867%)
 printout                       ...        0 min,  0.000 sec (  1.969%)

         :::::::::::::::::::::::::::::::::::::::::::::::::::::
         ::                     SUMMARY                     ::
         :::::::::::::::::::::::::::::::::::::::::::::::::::::
         :: total energy              -8.924085494145 Eh    ::
         :: gradient norm              0.000847520836 Eh/a0 ::
         :: HOMO-LUMO gap              0.321520290099 eV    ::
         ::.................................................::
         :: SCC energy                -9.074685825205 Eh    ::
         :: -> isotropic ES           -0.015116969420 Eh    ::
         :: -> anisotropic ES         -0.000183961271 Eh    ::
         :: -> anisotropic XC          0.013741480127 Eh    ::
         :: -> dispersion             -0.001826847945 Eh    ::
         :: repulsion energy           0.150600417337 Eh    ::
         :: add. restraining           0.000000000000 Eh    ::
         :::::::::::::::::::::::::::::::::::::::::::::::::::::

           ------------------------------------------------- 
          |                Numerical Hessian                |
           ------------------------------------------------- 
step length          :   0.00500
SCC accuracy         :   0.30000
Hessian scale factor :   1.00000
frozen atoms in %    :   0.00000    0
RMS gradient         :   0.00085
estimated CPU  time      0.00 min
estimated wall time      0.00 min

writing file <hessian>.

 projected vibrational frequencies (cm-1)
eigval :       -0.00    -0.00    -0.00     0.00     0.00     0.00
eigval :       23.02   229.65   471.15  1102.39  1406.51  1716.70
           -------------------------------------------------
          |                Property Printout                |
           -------------------------------------------------

    * Orbital Energies and Occupations

         #    Occupation            Energy/Eh            Energy/eV
      -------------------------------------------------------------
         1        2.0000           -0.7225343             -19.6612
         2        2.0000           -0.6922851             -18.8380
         3        2.0000           -0.6483919             -17.6436
         4        2.0000           -0.5793781             -15.7657
         5        2.0000           -0.5758519             -15.6697
         6        2.0000           -0.4871712             -13.2566
         7        2.0000           -0.4800713             -13.0634
         8        1.0000           -0.4578200             -12.4579
         9        1.0000           -0.4331542             -11.7867
        10        0.9980           -0.3366558              -9.1609 (HOMO)
        11        0.0020           -0.3248401              -8.8394 (LUMO)
        12                         -0.2332069              -6.3459
        13                         -0.1974030              -5.3716
        14                          0.1502802               4.0893
        15                          0.5595130              15.2251
        16                          0.8318954              22.6370
      -------------------------------------------------------------
                  HL-Gap            0.0118156 Eh            0.3215 eV
             Fermi-level           -0.3998467 Eh          -10.8804 eV

     #   Z        covCN         q      C6AA      α(0)
     1   6 C      0.928    -0.101    38.739    10.426
     2   7 N      1.824     0.086    20.396     6.692
     3   6 C      1.909     0.118    28.188     8.574
     4   6 C      0.984    -0.103    39.228    10.522

 Mol. C6AA /au·bohr⁶  :        496.795367
 Mol. C8AA /au·bohr⁸  :      13643.288561
 Mol. α(0) /au        :         36.213648


Wiberg/Mayer (AO) data.
largest (>0.10) Wiberg bond orders for each atom
          total WBO             WBO to atom ...
     1  C   1.924        N    2 1.703    C    4 0.114    C    3 0.107
     2  N   3.419        C    1 1.703    C    3 1.633
     3  C   3.323        N    2 1.633    C    4 1.584    C    1 0.107
     4  C   1.781        C    3 1.584    C    1 0.114

MOs/occ written to file <molden.input>


molecular dipole:
                 x           y           z       tot (Debye)
 q only:        0.019       0.028      -0.028
   full:        0.082       0.084      -0.113       0.413
molecular quadrupole (traceless):
                xx          xy          yy          xz          yz          zz
 q only:       -2.181       0.022       1.081      -0.422      -0.013       1.100
  q+dip:       -4.198       0.147       2.130      -1.437      -0.014       2.068
   full:       -6.755       0.184       4.409      -2.022       0.402       2.346

           -------------------------------------------------
          |                Geometry Summary                 |
           -------------------------------------------------

      molecular mass/u    :       50.0389109
   center of mass at/Å    :       -0.0240023      -0.0006798       0.0072772
  moments of inertia/u·Å² :        0.1535073E+01   0.8912995E+02   0.9058370E+02
rotational constants/cm⁻¹ :        0.1098165E+02   0.1891354E+00   0.1861001E+00

 * 2 selected distances

     #   Z        #   Z                                     value/Å
     1   6 C      2   7 N                                 1.2493004 (min)
     2   7 N      3   6 C                                 1.2505871 (max)

 * 1 distinct bonds (by element types)

   Z      Z             #   av. dist./Å        max./Å        min./Å
   6 C    7 N           2     1.2499438     1.2505871     1.2493004
Molecule has no symmetry elements
It seems to be the C1 point group

           -------------------------------------------------
          |               Frequency Printout                |
           -------------------------------------------------
 projected vibrational frequencies (cm-1)
eigval :       -0.00    -0.00    -0.00     0.00     0.00     0.00
eigval :       23.02   229.65   471.15  1102.39  1406.51  1716.70
 reduced masses (amu)
   1: 12.05   2: 12.07   3: 12.59   4: 12.83   5: 12.64   6: 12.48   7: 12.63   8: 12.47
   9: 12.70  10: 12.42  11: 12.44  12: 12.80
 IR intensities (amu)
   1:  0.05   2:  0.11   3:  0.15   4:  0.06   5:  0.03   6:  0.05   7:  0.52   8:  0.41
   9:  0.07  10:  0.32  11:  1.17  12:  0.37
 Raman intensities (amu)
   1:  0.00   2:  0.00   3:  0.00   4:  0.00   5:  0.00   6:  0.00   7:  0.00   8:  0.00
   9:  0.00  10:  0.00  11:  0.00  12:  0.00
 output can be read by thermo (or use thermo option).
 writing <g98.out> molden fake output.
 recommended (thermochemical) frequency scaling factor: 1.0
           -------------------------------------------------
          |             Thermodynamic Functions             |
           -------------------------------------------------

c1  symmetry found (for desy threshold:  0.10E+00) used in thermo

          ...................................................
          :                      SETUP                      :
          :.................................................:
          :  # frequencies                           6      :
          :  # imaginary freq.                       0      :
          :  linear?                             false      :
          :  only rotor calc.                    false      :
          :  symmetry                               c1      :
          :  rotational number                       1      :
          :  scaling factor                  1.0000000      :
          :  rotor cutoff                   50.0000000 cm⁻¹ :
          :  imag. cutoff                  -20.0000000 cm⁻¹ :
          :.................................................:

    mode    ω/cm⁻¹     T·S(HO)/kcal·mol⁻¹    T·S(FR)/kcal·mol⁻¹   T·S(vib)
   ------------------------------------------------------------------------
       1     23.02    -0.00323 (  4.30%)    -0.00929 ( 95.70%)    -0.00903
       2    229.65    -0.00000 ( 99.78%)     0.01346 (  0.22%)     0.00003
   ------------------------------------------------------------------------

   temp. (K)  partition function   enthalpy   heat capacity  entropy
                                   cal/mol     cal/K/mol   cal/K/mol   J/K/mol
 298.15  VIB   15.9                 1059.686      5.511      7.091
         ROT  0.850E+04              888.752      2.981     20.962
         INT  0.135E+06             1948.438      8.492     28.053
         TR   0.342E+27             1481.254      4.968     37.637
         TOT                        3429.6921    13.4600    65.6905   274.8491

   temp. (K)  partition function   enthalpy   heat capacity  entropy
                                   cal/mol     cal/K/mol   cal/K/mol   J/K/mol
 120.00  VIB   4.44                  256.514      3.295      3.999
         ROT  0.217E+04              357.707      2.981     18.249
         INT  0.965E+04              614.221      6.276     22.248
         TR   0.874E+26              596.178      4.968     33.118
         TOT                        1210.3993    11.2441    55.3662   231.6523

   temp. (K)  partition function   enthalpy   heat capacity  entropy
                                   cal/mol     cal/K/mol   cal/K/mol   J/K/mol
 100.00  VIB   3.69                  194.200      2.932      3.603
         ROT  0.165E+04              298.089      2.981     17.706
         INT  0.609E+04              492.289      5.913     21.309
         TR   0.665E+26              496.815      4.968     32.212
         TOT                         989.1039    10.8812    53.5210   223.9320

   temp. (K)  partition function   enthalpy   heat capacity  entropy
                                   cal/mol     cal/K/mol   cal/K/mol   J/K/mol
  80.00  VIB   3.00                  139.346      2.552      3.199
         ROT  0.118E+04              238.471      2.981     17.041
         INT  0.354E+04              377.818      5.533     20.240
         TR   0.476E+26              397.452      4.968     31.104
         TOT                         775.2697    10.5010    51.3445   214.8255

   temp. (K)  partition function   enthalpy   heat capacity  entropy
                                   cal/mol     cal/K/mol   cal/K/mol   J/K/mol
  60.00  VIB   2.37                   92.030      2.187      2.784
         ROT   768.                  178.853      2.981     16.183
         INT  0.182E+04              270.883      5.168     18.967
         TR   0.309E+26              298.089      4.968     29.676
         TOT                         568.9725    10.1363    48.6430   203.5225

   temp. (K)  partition function   enthalpy   heat capacity  entropy
                                   cal/mol     cal/K/mol   cal/K/mol   J/K/mol
  40.00  VIB   1.78                   51.241      1.913      2.316
         ROT   418.                  119.236      2.981     14.975
         INT   742.                  170.476      4.893     17.291
         TR   0.168E+26              198.726      4.968     27.662
         TOT                         369.2022     9.8616    44.9530   188.0834

   temp. (K)  partition function   enthalpy   heat capacity  entropy
                                   cal/mol     cal/K/mol   cal/K/mol   J/K/mol
  20.00  VIB   1.24                   15.529      1.589      1.598
         ROT   148.                   59.618      2.981     12.908
         INT   183.                   75.146      4.570     14.506
         TR   0.595E+25               99.363      4.968     24.220
         TOT                         174.5095     9.5383    38.7269   162.0332

   temp. (K)  partition function   enthalpy   heat capacity  entropy
                                   cal/mol     cal/K/mol   cal/K/mol   J/K/mol
  10.00  VIB   1.04                    2.489      0.856      0.900
         ROT   52.2                   29.809      2.981     10.842
         INT   54.2                   32.298      3.836     11.742
         TR   0.210E+25               49.681      4.968     20.778
         TOT                          81.9795     8.8046    32.5203   136.0650

       T/K    H(0)-H(T)+PV         H(T)/Eh          T*S/Eh         G(T)/Eh
   ------------------------------------------------------------------------
    298.15    0.546556E-02    0.167412E-01    0.312117E-01   -0.144705E-01
    120.00    0.192889E-02    0.132045E-01    0.105878E-01    0.261672E-02
    100.00    0.157624E-02    0.128519E-01    0.852912E-02    0.432275E-02
     80.00    0.123547E-02    0.125111E-01    0.654582E-02    0.596528E-02
     60.00    0.906715E-03    0.121823E-01    0.465106E-02    0.753129E-02
     40.00    0.588361E-03    0.118640E-01    0.286549E-02    0.899850E-02
     20.00    0.278099E-03    0.115537E-01    0.123430E-02    0.103194E-01
     10.00    0.130643E-03    0.114063E-01    0.518244E-03    0.108880E-01 (used)
   ------------------------------------------------------------------------

         :::::::::::::::::::::::::::::::::::::::::::::::::::::
         ::                  THERMODYNAMIC                  ::
         :::::::::::::::::::::::::::::::::::::::::::::::::::::
         :: total free energy          -8.913197467176 Eh   ::
         ::.................................................::
         :: total energy               -8.924085494050 Eh   ::
         :: zero point energy           0.011275628450 Eh   ::
         :: G(RRHO) w/o ZPVE           -0.000387601576 Eh   ::
         :: G(RRHO) contrib.            0.010888026874 Eh   ::
         :::::::::::::::::::::::::::::::::::::::::::::::::::::

optimized geometry written to: xtbopt.xyz


           -------------------------------------------------
          | TOTAL ENERGY               -8.924085494050 Eh   |
          | TOTAL ENTHALPY             -8.912679222972 Eh   |
          | TOTAL FREE ENERGY          -8.913197467176 Eh   |
          | GRADIENT NORM               0.000847107656 Eh/α |
          | HOMO-LUMO GAP               0.321519332031 eV   |
           -------------------------------------------------

------------------------------------------------------------------------
 * finished run on 2020/05/12 at 11:45:04.910     
------------------------------------------------------------------------
 total:
 * wall-time:     0 d,  0 h,  0 min,  0.129 sec
 *  cpu-time:     0 d,  0 h,  0 min,  0.129 sec
 * ratio c/w:     0.998 speedup
 SCF:
 * wall-time:     0 d,  0 h,  0 min,  0.004 sec
 *  cpu-time:     0 d,  0 h,  0 min,  0.004 sec
 * ratio c/w:     0.996 speedup
 ANC optimizer:
 * wall-time:     0 d,  0 h,  0 min,  0.051 sec
 *  cpu-time:     0 d,  0 h,  0 min,  0.051 sec
 * ratio c/w:     0.999 speedup
 numerical hessian:
 * wall-time:     0 d,  0 h,  0 min,  0.058 sec
 *  cpu-time:     0 d,  0 h,  0 min,  0.058 sec
 * ratio c/w:     0.998 speedup

