$hessian                                                                        
        0.8053513093  -0.0093396234   0.1669809290  -0.2222822916  -0.1790290920
       -0.0508810004  -0.0772790094   0.0017912954   0.0453614732  -0.2144886926
        0.1821027990  -0.0481882007  -0.2913013157   0.0044746211  -0.1132732011
       -0.0093396234   0.2221770586  -0.0019202448  -0.0735606888  -0.1151744844
       -0.0271839266   0.0015977803   0.0457044374  -0.0004586351   0.0769115806
       -0.1234224898   0.0277745618   0.0043909513  -0.0292845217   0.0017882447
        0.1669809290  -0.0019202448   0.1278699523  -0.0562610811  -0.0343939140
       -0.0310910046   0.0428060381  -0.0003114855  -0.0018469054  -0.0544499209
        0.0349771451  -0.0303993394  -0.0990759651   0.0016484992  -0.0645327029
       -0.2222822916  -0.0735606888  -0.0562610811   0.2461544469   0.0595204407
       -0.0192314131  -0.0930883041   0.0393148383   0.0797808592   0.0842655862
       -0.0081828116  -0.0109040760  -0.0150494374  -0.0170917786   0.0066157111
       -0.1790290920  -0.1151744844  -0.0343939140   0.0595204407   0.3605799006
        0.1194003657   0.1177729479  -0.0945811041  -0.1135958999   0.0012806936
       -0.1528076043   0.0247117499   0.0004550099   0.0019832922   0.0038776984
       -0.0508810004  -0.0271839266  -0.0310910046  -0.0192314131   0.1194003657
        0.1073844372   0.0842131705  -0.0613881244  -0.1222556763  -0.0115783753
       -0.0262469965   0.0509814081  -0.0025223816  -0.0045813182  -0.0050191644
       -0.0772790094   0.0015977803   0.0428060381  -0.0930883041   0.1177729479
        0.0842131705   0.2640691141  -0.0009073818  -0.2018372452  -0.0978238403
       -0.1184023142   0.0848578846   0.0041220398  -0.0000610321  -0.0100398480
        0.0017912954   0.0457044374  -0.0003114855   0.0393148383  -0.0945811041
       -0.0613881244  -0.0009073818   0.1437215151   0.0026443389  -0.0401087734
       -0.0914757274   0.0590675855  -0.0000899785  -0.0033691210  -0.0000123145
        0.0453614732  -0.0004586351  -0.0018469054   0.0797808592  -0.1135958999
       -0.1222556763  -0.2018372452   0.0026443389   0.2266539980   0.0827691758
        0.1114227564  -0.1206211383  -0.0060742630  -0.0000125603   0.0180697219
       -0.2144886926   0.0769115806  -0.0544499209   0.0842655862   0.0012806936
       -0.0115783753  -0.0978238403  -0.0401087734   0.0827691758   0.2425917098
       -0.0556006179  -0.0233740618  -0.0145447631   0.0175171171   0.0066331822
        0.1821027990  -0.1234224898   0.0349771451  -0.0081828116  -0.1528076043
       -0.0262469965  -0.1184023142  -0.0914757274   0.1114227564  -0.0556006179
        0.3662408053  -0.1162776504   0.0000829448   0.0014650163  -0.0038752546
       -0.0481882007   0.0277745618  -0.0303993394  -0.0109040760   0.0247117499
        0.0509814081   0.0848578846   0.0590675855  -0.1206211383  -0.0233740618
       -0.1162776504   0.1051107524  -0.0023915461   0.0047237532  -0.0050716828
       -0.2913013157   0.0043909513  -0.0990759651  -0.0150494374   0.0004550099
       -0.0025223816   0.0041220398  -0.0000899785  -0.0060742630  -0.0145447631
        0.0000829448  -0.0023915461   0.3167734765  -0.0048389275   0.1100641558
        0.0044746211  -0.0292845217   0.0016484992  -0.0170917786   0.0019832922
       -0.0045813182  -0.0000610321  -0.0033691210  -0.0000125603   0.0175171171
        0.0014650163   0.0047237532  -0.0048389275   0.0292053342  -0.0017783739
       -0.1132732011   0.0017882447  -0.0645327029   0.0066157111   0.0038776984
       -0.0050191644  -0.0100398480  -0.0000123145   0.0180697219   0.0066331822
       -0.0038752546  -0.0050716828   0.1100641558  -0.0017783739   0.0565538282
