5
 energy: -8.716496247813 gnorm: 0.000139349783 xtb: 6.2.2 (9d81278992624c895f80dd42a50cac0aa55982e2)
C         0.59102155910313   -0.00823355439217   -0.13555004560077
C        -0.47623691461297   -0.90626006612049   -0.28409383343696
C        -1.25536129475302    0.01670432322684    0.45316896973081
C        -0.44878164304630    0.92279291574419   -0.27546230271033
H         1.58935729330392   -0.02500461845314    0.24193721202249
