5
 energy: -8.623485946564 gnorm: 0.200111447636 xtb: 6.2.2 (9d81278992624c895f80dd42a50cac0aa55982e2)
C         0.63496500000000   -0.00739700000000   -0.45159900000000
C        -0.38404700000000   -1.06408400000000   -0.07824500000000
C        -1.36688400000000    0.01902600000000    0.31484400000000
C        -0.35193400000000    1.07582000000000   -0.06814100000000
H         1.46789900000000   -0.02336600000000    0.28314100000000
5
 energy: -8.685584578931 gnorm: 0.165409551413 xtb: 6.2.2 (9d81278992624c895f80dd42a50cac0aa55982e2)
C         0.64182762921857   -0.00810325512418   -0.32382210200132
C        -0.46403813470622   -1.01960806426937   -0.24386996673186
C        -1.25559082457334    0.01661226554822    0.47235069573631
C        -0.43320043683907    1.03532992883355   -0.23416707140273
H         1.51100076690006   -0.02423187498822    0.32950844439960
5
 energy: -8.696351000975 gnorm: 0.211616447650 xtb: 6.2.2 (9d81278992624c895f80dd42a50cac0aa55982e2)
C         0.58041408567039   -0.00792657522770   -0.16605819463907
C        -0.50251067467761   -0.90054065372842   -0.23175590812096
C        -1.19945532592297    0.01618549861261    0.38436480433691
C        -0.47523003925433    0.91736114642554   -0.22317206606446
H         1.59678095418452   -0.02508041608203    0.23662136448759
5
 energy: -8.715204778004 gnorm: 0.030014422699 xtb: 6.2.2 (9d81278992624c895f80dd42a50cac0aa55982e2)
C         0.60425590434631   -0.00811938487944   -0.20098607249063
C        -0.48287708938481   -0.91993538164717   -0.28938801492093
C        -1.21521107549603    0.01596770728723    0.48052237035118
C        -0.45501489637303    0.93670137652385   -0.28062135164701
H         1.54884615690756   -0.02461531728448    0.29047306870739
5
 energy: -8.715974492416 gnorm: 0.009552822038 xtb: 6.2.2 (9d81278992624c895f80dd42a50cac0aa55982e2)
C         0.59540678368146   -0.00806814074289   -0.18370740381903
C        -0.48250944079599   -0.91165197024715   -0.28889015064166
C        -1.22083658233179    0.01608910523465    0.47268178625423
C        -0.45489588181781    0.92840629507133   -0.28020177502317
H         1.56283412126413   -0.02477628931594    0.28011754322963
5
 energy: -8.716262294700 gnorm: 0.011171839616 xtb: 6.2.2 (9d81278992624c895f80dd42a50cac0aa55982e2)
C         0.59156151735986   -0.00811713522073   -0.16109802721676
C        -0.48300475745148   -0.90696029916833   -0.28764631311967
C        -1.23369809013576    0.01632522596138    0.46346128633692
C        -0.45553244772742    0.92372102237332   -0.27900257665892
H         1.58067277795480   -0.02496981394564    0.26428563065843
5
 energy: -8.716408866922 gnorm: 0.010195629893 xtb: 6.2.2 (9d81278992624c895f80dd42a50cac0aa55982e2)
C         0.58955259293456   -0.00815542649055   -0.14668197167663
C        -0.47835812475134   -0.90355694435177   -0.28691724883216
C        -1.24221474557199    0.01647406024524    0.45903184691508
C        -0.45098902890652    0.92017236838445   -0.27830586178092
H         1.58200830629529   -0.02493505778737    0.25287323537464
5
 energy: -8.716484728142 gnorm: 0.003457832894 xtb: 6.2.2 (9d81278992624c895f80dd42a50cac0aa55982e2)
C         0.59008981909533   -0.00823321896635   -0.13182075953901
C        -0.47713266654847   -0.90571614768225   -0.28372385711682
C        -1.25682633377662    0.01672877386313    0.45113550762498
C        -0.44970366766769    0.92226860850602   -0.27509438527042
H         1.59357184889744   -0.02504901572055    0.23950349430127
5
 energy: -8.716495994481 gnorm: 0.000574511018 xtb: 6.2.2 (9d81278992624c895f80dd42a50cac0aa55982e2)
C         0.59107148461047   -0.00823443257242   -0.13497212892013
C        -0.47616870921799   -0.90607489038973   -0.28396151506839
C        -1.25539630762295    0.01670025497287    0.45284843901814
C        -0.44872512193690    0.92259695398239   -0.27532667988754
H         1.58921765416736   -0.02498888599311    0.24141188485792
5
 energy: -8.716496254291 gnorm: 0.000140508245 xtb: 6.2.2 (9d81278992624c895f80dd42a50cac0aa55982e2)
C         0.59102207536114   -0.00823022323454   -0.13554799691002
C        -0.47623117776237   -0.90626206383716   -0.28409707752522
C        -1.25536296404992    0.01669695924881    0.45316461683254
C        -0.44878551322500    0.92279104669010   -0.27546225869519
H         1.58935657967614   -0.02499671886721    0.24194271629789
