 Entering Gaussian System
 *********************************************
 Gaussian 98:
 frequency output generated by the xtb code
 *********************************************
                         Standard orientation:
 --------------------------------------------------------------------
  Center     Atomic     Atomic              Coordinates (Angstroms)
  Number     Number      Type              X           Y           Z
 --------------------------------------------------------------------
    1          6             0        0.591022   -0.008234   -0.135550
    2          6             0       -0.476237   -0.906260   -0.284094
    3          6             0       -1.255361    0.016704    0.453169
    4          6             0       -0.448782    0.922793   -0.275462
    5          1             0        1.589357   -0.025005    0.241937
 --------------------------------------------------------------------
     1 basis functions        1 primitive gaussians
     1 alpha electrons        1 beta electrons

 Harmonic frequencies (cm**-1), IR intensities (KM/Mole),
 Raman scattering activities (A**4/amu), Raman depolarization ratios,
 reduced masses (AMU), force constants (mDyne/A) and normal coordinates:
                      1                      2                      3
                        a                      a                      a 
 Frequencies --   522.8222               625.5511               744.5324
 Red. masses --     9.9552                 9.7561                11.7820
 Frc consts  --     0.0000                 0.0000                 0.0000
 IR Inten    --     0.0702                 0.3750                 0.7622
 Raman Activ --     0.0000                 0.0000                 0.0000
 Depolar     --     0.0000                 0.0000                 0.0000
 Atom AN      X      Y      Z        X      Y      Z        X      Y      Z
   1   6    -0.23   0.00   0.31    -0.16   0.00  -0.36    -0.00  -0.38  -0.00
   2   6    -0.14  -0.04  -0.34     0.01  -0.43   0.27     0.43  -0.12  -0.22
   3   6     0.56  -0.01   0.26     0.20  -0.00  -0.30     0.01   0.58   0.00
   4   6    -0.14   0.04  -0.34     0.02   0.42   0.27    -0.43  -0.12   0.22
   5   1    -0.18   0.00   0.39    -0.22   0.00   0.39     0.00   0.14   0.00
                      4                      5                      6
                        a                      a                      a 
 Frequencies --   750.0552               914.6627              1055.5686
 Red. masses --     7.2029                 3.7655                10.7755
 Frc consts  --     0.0000                 0.0000                 0.0000
 IR Inten    --     0.2388                 0.6161                 1.6106
 Raman Activ --     0.0000                 0.0000                 0.0000
 Depolar     --     0.0000                 0.0000                 0.0000
 Atom AN      X      Y      Z        X      Y      Z        X      Y      Z
   1   6    -0.39   0.00   0.35     0.00   0.05   0.00     0.01   0.60   0.00
   2   6     0.08  -0.34  -0.02    -0.28  -0.18  -0.10    -0.10  -0.42  -0.15
   3   6     0.18   0.00  -0.13     0.00   0.07   0.00     0.00   0.33   0.00
   4   6     0.08   0.33  -0.01     0.27  -0.19   0.10     0.09  -0.42   0.15
   5   1     0.16   0.00  -0.64     0.01   0.87   0.00    -0.00  -0.34  -0.00
                      7                      8                      9
                        a                      a                      a 
 Frequencies --  1273.4082              1462.4715              3184.3103
 Red. masses --    11.4960                11.6171                 1.9627
 Frc consts  --     0.0000                 0.0000                 0.0000
 IR Inten    --     0.7749                 0.2065                 0.0831
 Raman Activ --     0.0000                 0.0000                 0.0000
 Depolar     --     0.0000                 0.0000                 0.0000
 Atom AN      X      Y      Z        X      Y      Z        X      Y      Z
   1   6    -0.36   0.01  -0.13     0.56  -0.01   0.08    -0.28   0.00  -0.10
   2   6     0.42  -0.11  -0.17    -0.18  -0.44  -0.18     0.01   0.01   0.00
   3   6    -0.43   0.00   0.42    -0.27   0.00   0.26     0.00  -0.00  -0.00
   4   6     0.42   0.10  -0.17    -0.16   0.44  -0.18     0.01  -0.01   0.00
   5   1    -0.17   0.00   0.13     0.18  -0.00   0.05     0.90  -0.02   0.33
