[Molden Format]
[Title]
[Atoms] AU
C      1     6  0.11168687768313E+01 -0.15559161389829E-01 -0.25615243860020E+00
C      2     6 -0.89995725555737E+00 -0.17125831637597E+01 -0.53685948908115E+00
C      3     6 -0.23722888144381E+01  0.31566593067211E-01  0.85636516151659E+00
C      4     6 -0.84807431643284E+00  0.17438257187094E+01 -0.52054826148488E+00
H      5     1  0.30034497198612E+01 -0.47251876343184E-01  0.45719502765953E+00
[GTO]
           1 0
 s           4   1.0000000000000000     
   51.049363095579913      -0.16312063210127389     
   8.7911227406887544      -0.19911024581000730     
  0.70640422258929825       0.31882047753655751     
  0.26922813413411617       0.12706504184240380     
 p           4   1.0000000000000000     
   5.8263656140800002       0.73716451545209605     
   1.5106896018720002       0.68216371614850257     
  0.53256483288000001       0.35783053929253711     
  0.21202323690600003        5.3983030275847881E-002

           2 0
 s           4   1.0000000000000000     
   51.049363095579913      -0.16312063210127389     
   8.7911227406887544      -0.19911024581000730     
  0.70640422258929825       0.31882047753655751     
  0.26922813413411617       0.12706504184240380     
 p           4   1.0000000000000000     
   5.8263656140800002       0.73716451545209605     
   1.5106896018720002       0.68216371614850257     
  0.53256483288000001       0.35783053929253711     
  0.21202323690600003        5.3983030275847881E-002

           3 0
 s           4   1.0000000000000000     
   51.049363095579913      -0.16312063210127389     
   8.7911227406887544      -0.19911024581000730     
  0.70640422258929825       0.31882047753655751     
  0.26922813413411617       0.12706504184240380     
 p           4   1.0000000000000000     
   5.8263656140800002       0.73716451545209605     
   1.5106896018720002       0.68216371614850257     
  0.53256483288000001       0.35783053929253711     
  0.21202323690600003        5.3983030275847881E-002

           4 0
 s           4   1.0000000000000000     
   51.049363095579913      -0.16312063210127389     
   8.7911227406887544      -0.19911024581000730     
  0.70640422258929825       0.31882047753655751     
  0.26922813413411617       0.12706504184240380     
 p           4   1.0000000000000000     
   5.8263656140800002       0.73716451545209605     
   1.5106896018720002       0.68216371614850257     
  0.53256483288000001       0.35783053929253711     
  0.21202323690600003        5.3983030275847881E-002

           5 0
 s           3   1.0000000000000000     
   3.3702276975336001       0.27359110588908298     
  0.61389118221497996       0.26460540653860526     
  0.16614291148415999        8.2465947534082318E-002

[MO]
Sym=     1a
Ene=  -0.71808294758573932     
Spin= Alpha
Occup=     2.00000000
           1 -0.32703902502109122     
           2  0.16763732063327813     
           3  -2.5114161078058314E-003
           4  -1.0408768436586220E-003
           5 -0.31066948428867880     
           6  -2.4952085851443873E-002
           7 -0.13910285705225850     
           8  -4.2085046422447661E-002
           9 -0.28829671645566013     
          10 -0.11445089961977478     
          11   1.3768625018786731E-003
          12   7.2287265335637715E-002
          13 -0.31066834013066963     
          14  -2.0759523290434886E-002
          15  0.14017959180395997     
          16  -4.0766497521858555E-002
          17  -4.4014837207831392E-002
Sym=     2a
Ene=  -0.62325566323359249     
Spin= Alpha
Occup=     2.00000000
           1 -0.48788336096251450     
           2 -0.15049199127486176     
           3   2.1291944163161752E-003
           4   2.8177226605726285E-002
           5   4.8710553927160866E-002
           6 -0.24173943994418770     
           7   2.0310300277202698E-002
           8   6.1199558170347036E-002
           9  0.39344005001235360     
          10  -2.1587937132134898E-002
          11   6.0491367927675063E-004
          12  -5.9424741933156902E-002
          13   4.8715362058250757E-002
          14 -0.24224459385276487     
          15  -1.3621490351819122E-002
          16   6.1039104212860504E-002
          17 -0.27886054091982243     
Sym=     3a
Ene=  -0.60349592870002766     
Spin= Alpha
Occup=     2.00000000
           1  -2.3314658145853281E-006
           2  -5.7394618304862617E-003
           3 -0.38227914921434925     
           4  -1.8028990223703659E-003
           5  0.48500443166687240     
           6   4.9243449208104285E-002
           7  -7.1992338586677446E-002
           8   5.9473649237200450E-002
           9   3.8583220260942257E-006
          10  -4.1005849708424776E-003
          11 -0.27318675108667334     
          12  -1.2892194362707715E-003
          13 -0.48500780687622719     
          14  -5.1376857292634623E-002
          15  -6.9914696442136673E-002
          16  -6.0140717614780272E-002
          17  -7.9748226493266589E-007
Sym=     4a
Ene=  -0.56284025998290621     
Spin= Alpha
Occup=     2.00000000
           1  -7.8816718885863349E-002
           2 -0.30846292214362675     
           3   6.2045475117517993E-003
           4 -0.33406128432310778     
           5  0.13538177816194558     
           6  0.11905685099489070     
           7   3.6147528839283391E-002
           8 -0.24579723550986804     
           9 -0.38970820281592761     
          10   1.8708979477120358E-002
          11   3.1137746097847100E-004
          12 -0.12543718448606003     
          13  0.13537806545877090     
          14  0.11795004116028415     
          15  -3.7384043368811799E-002
          16 -0.24614190686475274     
          17 -0.34337773896801516     
Sym=     5a
Ene=  -0.50996087007014068     
Spin= Alpha
Occup=     2.00000000
           1  -4.7804392310892174E-002
           2 -0.32872521945269267     
           3   3.5275872263909277E-003
           4  0.29577861140911871     
           5 -0.10287505336271296     
           6  0.23083792681298929     
           7  -1.7571592226720788E-002
           8  0.28314583361464096     
           9 -0.14929089555721964     
          10  0.28197805049715735     
          11  -5.6210258910747287E-003
          12  0.29687966233690771     
          13 -0.10286925495873582     
          14  0.23119783636419758     
          15   7.9654179806363749E-003
          16  0.28327083535690356     
          17 -0.26275091727562638     
Sym=     6a
Ene=  -0.50733138001398348     
Spin= Alpha
Occup=     2.00000000
           1   4.9298799545676098E-007
           2   6.2883890889562704E-003
           3  0.41952688569903540     
           4   1.9872878322064144E-003
           5   7.1558063933227639E-002
           6 -0.39513005243642813     
           7  -2.0540672474711419E-002
           8  0.12184633681477887     
           9  -7.3249225528660154E-006
          10  -6.5983686595704255E-003
          11 -0.44018284306829153     
          12  -2.0701410905268392E-003
          13  -7.1564806029289288E-002
          14  0.39436998750804469     
          15  -3.1241265639063338E-002
          16 -0.12207746080541844     
          17  -7.6014803559072392E-006
Sym=     7a
Ene=  -0.44625994492507925     
Spin= Alpha
Occup=     2.00000000
           1 -0.11747078279645068     
           2   4.0742145676096048E-002
           3  -1.5298371521975801E-003
           4  0.19383890734199036     
           5  0.45951021977984491     
           6  -5.8232982637166607E-002
           7 -0.46980396875326569     
           8   3.3074920810266466E-002
           9 -0.22907197400957863     
          10  0.13461714261629587     
          11  -1.5704855645128134E-003
          12  -9.6328097996144127E-002
          13  0.45952004823223813     
          14  -4.4110928545222305E-002
          15  0.47101293896820506     
          16   3.7507466849286068E-002
          17   6.7995686211227341E-002
Sym=     8a
Ene=  -0.42041927800417372     
Spin= Alpha
Occup=     1.99999985
           1 -0.10760783181694464     
           2   1.3585862251570331E-002
           3  -1.9876012030202810E-003
           4  0.37805564365646743     
           5 -0.10176019394601636     
           6 -0.17646325665009771     
           7  0.22276247527111592     
           8   5.1715268676463966E-003
           9 -0.48279583544891186     
          10  0.35921870864665917     
          11  -2.9392871534171835E-003
          12 -0.51927174446760982     
          13 -0.10176434420839690     
          14 -0.18307133107996029     
          15 -0.21740706621808442     
          16   3.0968946646967245E-003
          17  0.11467031128388579     
Sym=     9a
Ene=  -0.39054611347132240     
Spin= Alpha
Occup=     1.00000015
           1  -3.4921856516367031E-007
           2   3.3747506420043591E-003
           3  0.22477289402442935     
           4   1.0607580038058293E-003
           5  0.29342049793293140     
           6 -0.14490924656951557     
           7 -0.28041353661068519     
           8 -0.52055193413493017     
           9  -6.8420180078164901E-007
          10   3.8080925732964128E-003
          11  0.25365731978472522     
          12   1.1973296397285041E-003
          13 -0.29341114806438545     
          14  0.13635545997134385     
          15 -0.28952340368139934     
          16  0.51786915984233062     
          17   6.6674809626939710E-008
Sym=    10a
Ene=  -0.30651033367616642     
Spin= Alpha
Occup=     0.00000000
           1  0.10594672167582260     
           2 -0.30328841953675023     
           3   1.6329317903995863E-003
           4  0.61881859554822038     
           5  -1.2591476081223337E-003
           6  0.15922263184165458     
           7  -1.5485997327692442E-002
           8  -8.5550302854204049E-002
           9   4.4792855732087584E-002
          10 -0.73826791240407064     
          11   1.2418855588909209E-002
          12 -0.28311747377933394     
          13  -1.2596896485361751E-003
          14  0.15962812516681590     
          15   1.1504674725763617E-002
          16  -8.5423335879872067E-002
          17  -6.9458344587740001E-002
Sym=    11a
Ene=  -0.26881240850709331     
Spin= Alpha
Occup=     0.00000000
           1  -4.7010391145200433E-006
           2   3.7860306987797269E-003
           3  0.25233398014850511     
           4   1.2037669523959614E-003
           5   2.1092127260873051E-002
           6  0.13877151564022036     
           7 -0.60707051145117141     
           8  0.41504801723979462     
           9   1.7789339608441661E-006
          10   3.8937083571035651E-003
          11  0.25889728126993639     
          12   1.2403849354652914E-003
          13  -2.1083509651879054E-002
          14 -0.15687837358306400     
          15 -0.59869117337349020     
          16 -0.42077102025709240     
          17   4.2466001322650639E-006
Sym=    12a
Ene=  -0.24593660912802418     
Spin= Alpha
Occup=     0.00000000
           1 -0.16806745623167990     
           2 -0.10602156343994579     
           3  -6.3032378492164007E-004
           4  0.46927065571675503     
           5   8.2940150417977462E-002
           6 -0.10375129506466475     
           7  0.10641890581250095     
           8 -0.52982183428368723     
           9   7.6463931046487063E-002
          10  0.22950629592588379     
          11  -6.2659920720599420E-003
          12  0.59634960258138148     
          13   8.2937334745381869E-002
          14 -0.10681179219826913     
          15  -9.8217327392035911E-002
          16 -0.53075757338778062     
          17  0.18429780082130287     
Sym=    13a
Ene=   0.10297412962098859     
Spin= Alpha
Occup=     0.00000000
           1  -1.0741233194828592     
           2 -0.20575622501593888     
           3   3.7987079481380795E-003
           4 -0.18580144883441596     
           5   9.0026050683869943E-002
           6  0.45258791260420328     
           7   9.4639235940918942E-002
           8   3.7869927395967055E-002
           9  0.18746554684585395     
          10   8.9604585399752461E-003
          11   8.8890859876061834E-004
          12 -0.18456242619681820     
          13   9.0047970013390835E-002
          14  0.44985178486314809     
          15 -0.10855653278083174     
          16   3.6819119913365950E-002
          17  0.86490893389310164     
Sym=    14a
Ene=   0.11869661674686079     
Spin= Alpha
Occup=     0.00000000
           1   2.4239620309410458E-004
           2  -1.0018472349878696E-002
           3 -0.67171765390946470     
           4  -3.1221749305118470E-003
           5   2.7602683662203385E-002
           6 -0.69525942879768687     
           7   3.1806084332577034E-002
           8  0.23571423522917423     
           9  -2.4631885832371528E-005
          10   1.1402064831406421E-002
          11  0.75885712186995935     
          12   3.6102652972413740E-003
          13  -2.7649958049963307E-002
          14  0.69576021626732154     
          15   1.3201894792848921E-002
          16 -0.23553350831498876     
          17  -2.1116466968932774E-004
Sym=    15a
Ene=   0.17987503227403925     
Spin= Alpha
Occup=     0.00000000
           1   2.6504548292958554E-005
           2  -1.0341851598357680E-002
           3 -0.68944153924254492     
           4  -3.2488999722561679E-003
           5 -0.65607780589167797     
           6 -0.14457619055122756     
           7 -0.50327415359024219     
           8 -0.26800794520582827     
           9  -1.9445084325118354E-005
          10  -9.1193801659635171E-003
          11 -0.60683018153324619     
          12  -2.8481540146274029E-003
          13  0.65608767225611431     
          14  0.12933347328594680     
          15 -0.50991044347694214     
          16  0.26323639042876146     
          17  -2.2872102987522939E-005
Sym=    16a
Ene=   0.27005223394608890     
Spin= Alpha
Occup=     0.00000000
           1   1.4112102886117832E-002
           2  0.66112259212527469     
           3  -1.1188216224560581E-002
           4  0.26992545178878924     
           5 -0.14855274443678032     
           6  0.48715862105511215     
           7 -0.15110416223160886     
           8 -0.29869285452807270     
           9  0.72858105294646602     
          10  0.50312429987772389     
          11  -5.2873119991589720E-003
          12 -0.48632446289962233     
          13 -0.14853178169511702     
          14  0.49147581278674757     
          15  0.13921169438426034     
          16 -0.29729922992915170     
          17 -0.60437556817832361     
Sym=    17a
Ene=   0.64308642640933378     
Spin= Alpha
Occup=     0.00000000
           1 -0.40670590678492419     
           2   1.0100428155074792     
           3  -1.6112840931733565E-002
           4  0.20347909993454341     
           5  0.62780489717592303     
           6  0.17068660149053272     
           7  0.54190095439283836     
           8  0.20888123957303459     
           9 -0.48279305181640847     
          10 -0.39850813530671447     
          11   4.3279424984690460E-003
          12  0.35182503064836296     
          13  0.62777793723091901     
          14  0.15430823306603658     
          15 -0.54870935975220969     
          16  0.20372634984306889     
          17 -0.52838365757273420     
