5
 energy: -11.049274354901 gnorm: 0.000728107094 xtb: 6.2.2 (9d81278992624c895f80dd42a50cac0aa55982e2)
C         1.78940691318824   -0.34824773877890   -0.39473490424581
C         0.59423395520551   -0.15476186214190    0.02315745929239
C        -0.73865189623294   -0.62313269810366   -0.38865330145091
N        -0.36594235750186    0.48071678375336    0.85163398929464
C        -1.27904761465372    0.64542651527633   -0.09140324288857
