      -----------------------------------------------------------      
     |                   =====================                   |     
     |                           x T B                           |     
     |                   =====================                   |     
     |                         S. Grimme                         |     
     |          Mulliken Center for Theoretical Chemistry        |     
     |                    University of Bonn                     |     
      -----------------------------------------------------------      

   * xtb version 6.2.2 (9d81278992624c895f80dd42a50cac0aa55982e2) compiled by '@Darwin' on 04/03/2020

   xtb is free software: you can redistribute it and/or modify it under
   the terms of the GNU Lesser General Public License as published by
   the Free Software Foundation, either version 3 of the License, or
   (at your option) any later version.
   
   xtb is distributed in the hope that it will be useful,
   but WITHOUT ANY WARRANTY; without even the implied warranty of
   MERCHANTABILITY or FITNESS FOR A PARTICULAR PURPOSE.  See the
   GNU Lesser General Public License for more details.
   
   Cite this work as:
   * S. Grimme, C. Bannwarth, P. Shushkov, J. Chem. Theory Comput., 2017,
     13, 1989-2009. DOI: 10.1021/acs.jctc.7b00118
   * C. Bannwarth, S. Ehlert and S. Grimme., J. Chem. Theory Comput., 2019,
     15, 1652-1671. DOI: 10.1021/acs.jctc.8b01176
   * P. Pracht, E. Caldeweyher, S. Ehlert, S. Grimme, ChemRxiv, 2019, preprint.
     DOI: 10.26434/chemrxiv.8326202.v1
   
   for DFT-D4:
   * E. Caldeweyher, C. Bannwarth and S. Grimme, J. Chem. Phys., 2017,
     147, 034112. DOI: 10.1063/1.4993215
   * E. Caldeweyher, S. Ehlert, A. Hansen, H. Neugebauer, S. Spicher,
     C. Bannwarth and S. Grimme, J. Chem. Phys., 2019, 150, 154122.
     DOI: 10.1063/1.5090222
   
   for sTDA-xTB:
   * S. Grimme and C. Bannwarth, J. Chem. Phys., 2016, 145, 054103.
     DOI: 10.1063/1.4959605
   
   in the mass-spec context:
   * V. Asgeirsson, C. Bauer and S. Grimme, Chem. Sci., 2017, 8, 4879.
     DOI: 10.1039/c7sc00601b
   
   for metadynamics refer to:
   * S. Grimme, J. Chem. Theory Comput., 2019, 155, 2847-2862
     DOI: 10.1021/acs.jctc.9b00143
   
   with help from (in alphabetical order)
   C. Bannwarth, F. Bohle, G. Brandenburg, E. Caldeweyher, M. Checinski,
   S. Dohm, S. Ehlert, S. Ehrlich, F. März, H. Neugebauer, J. Pisarek,
   P. Pracht, P. Shushkov, and S. Spicher.
   
 * started run on 2020/05/12 at 11:44:57.789     

           -------------------------------------------------
          |                Calculation Setup                |
           -------------------------------------------------

          program call               : xtb --input H1C3N1_19_S_0.input H1C3N1_19_S_0.xyz --ohess --molden --namespace H1C3N1_19_S_0 output.out
          calculation namespace      : H1C3N1_19_S_0
          coordinate file            : H1C3N1_19_S_0.xyz
          number of atoms            :                     5
          number of electrons        :                    18
          charge                     :                     0
          spin                       :                   0.0
          first test random number   :      0.75974315648240

   ID    Z sym.   atoms
    1    6 C      1, 3, 4
    2    7 N      2
    3    1 H      5

           -------------------------------------------------
          |                 G F N 2 - x T B                 |
           -------------------------------------------------

        Reference                      10.1021/acs.jctc.8b01176
      * Hamiltonian:
        H0-scaling (s, p, d)           1.850000    2.230000    2.230000
        zeta-weighting                 0.500000
      * Dispersion:
        s8                             2.700000
        a1                             0.520000
        a2                             5.000000
        s9                             5.000000
      * Repulsion:
        kExp                           1.500000    1.000000
        rExp                           1.000000
      * Coulomb:
        alpha                          2.000000
        third order                    shell-resolved
        anisotropic                    true
        a3                             3.000000
        a5                             4.000000
        cn-shift                       1.200000
        cn-exp                         4.000000
        max-rad                        5.000000


          ...................................................
          :                      SETUP                      :
          :.................................................:
          :  # basis functions                  17          :
          :  # atomic orbitals                  17          :
          :  # shells                            9          :
          :  # electrons                        18          :
          :  max. iterations                   250          :
          :  Hamiltonian                  GFN2-xTB          :
          :  restarted?                      false          :
          :  GBSA solvation                  false          :
          :  PC potential                    false          :
          :  electronic temp.          300.0000000     K    :
          :  accuracy                    1.0000000          :
          :  -> integral cutoff          0.2500000E+02      :
          :  -> integral neglect         0.1000000E-07      :
          :  -> SCF convergence          0.1000000E-05 Eh   :
          :  -> wf. convergence          0.1000000E-03 e    :
          :  Broyden damping             0.4000000          :
          ...................................................

 iter      E             dE          RMSdq      gap      omega  full diag
   1     -9.3428239 -0.934282E+01  0.109E+01    1.21       0.0  T
   2     -7.0850351  0.225779E+01  0.165E+01    0.53       1.0  T
   3     -8.1761969 -0.109116E+01  0.112E+01    0.44       1.0  T
   4     -9.3300824 -0.115389E+01  0.730E+00    1.21       1.0  T
   5     -9.4296779 -0.995955E-01  0.463E+00    0.71       1.0  T
   6     -9.4310411 -0.136318E-02  0.427E+00    0.75       1.0  T
   7     -9.4258021  0.523904E-02  0.386E+00    0.68       1.0  T
   8     -9.4593988 -0.335967E-01  0.258E+00    0.48       1.0  T
   9     -9.4765942 -0.171954E-01  0.172E+00    0.33       1.0  T
  10     -9.4773271 -0.732939E-03  0.162E+00    0.32       1.0  T
  11     -9.3634546  0.113873E+00  0.498E+00    0.07       1.0  T
  12     -9.3971929 -0.337383E-01  0.424E+00    0.08       1.0  T
  13     -9.4781908 -0.809979E-01  0.144E+00    0.11       1.0  T
  14     -9.4875969 -0.940606E-02  0.594E-01    0.13       1.0  T
  15     -9.4883315 -0.734635E-03  0.448E-01    0.14       1.0  T
  16     -9.4861943  0.213726E-02  0.776E-01    0.13       1.0  T
  17     -9.4879623 -0.176808E-02  0.500E-01    0.14       1.0  T
  18     -9.4882389 -0.276557E-03  0.442E-01    0.14       1.0  T
  19     -9.4888144 -0.575549E-03  0.279E-01    0.15       1.0  T
  20     -9.4890503 -0.235865E-03  0.168E-01    0.16       1.0  T
  21     -9.4891606 -0.110269E-03  0.676E-02    0.16       1.0  T
  22     -9.4891784 -0.178242E-04  0.274E-02    0.16       1.6  T
  23     -9.4891813 -0.287358E-05  0.125E-02    0.16       3.6  T
  24     -9.4891820 -0.678504E-06  0.441E-03    0.16      10.1  T
  25     -9.4891820 -0.615675E-07  0.266E-03    0.16      16.8  T
  26     -9.4891821 -0.328154E-07  0.527E-04    0.16      84.8  T
  27     -9.4891821 -0.114260E-08  0.195E-04    0.16     229.5  T

   *** convergence criteria satisfied after 27 iterations ***

         #    Occupation            Energy/Eh            Energy/eV
      -------------------------------------------------------------
         1        2.0000           -0.7351041             -20.0032
       ...           ...                  ...                  ...
         3        2.0000           -0.6108757             -16.6228
         4        2.0000           -0.5877336             -15.9930
         5        2.0000           -0.5534037             -15.0589
         6        2.0000           -0.5178325             -14.0909
         7        2.0000           -0.4965729             -13.5124
         8        2.0000           -0.4463244             -12.1451
         9        1.9202           -0.4034250             -10.9778 (HOMO)
        10        0.0790           -0.3973714             -10.8130 (LUMO)
        11        0.0008           -0.3929733             -10.6933
        12                         -0.3277094              -8.9174
        13                         -0.1182520              -3.2178
        14                          0.0014395               0.0392
       ...                                ...                  ...
        17                          0.2233270               6.0770
      -------------------------------------------------------------
                  HL-Gap            0.0060536 Eh            0.1647 eV
             Fermi-level           -0.4004032 Eh          -10.8955 eV

 SCC (total)                   0 d,  0 h,  0 min,  0.005 sec
 SCC setup                      ...        0 min,  0.000 sec (  1.809%)
 Dispersion                     ...        0 min,  0.000 sec (  0.326%)
 integral evaluation            ...        0 min,  0.001 sec ( 21.460%)
 zeroth order Hamiltonian       ...        0 min,  0.000 sec (  0.400%)
 iterations                     ...        0 min,  0.002 sec ( 51.864%)
 molecular gradient             ...        0 min,  0.001 sec ( 22.249%)
 printout                       ...        0 min,  0.000 sec (  1.703%)

         :::::::::::::::::::::::::::::::::::::::::::::::::::::
         ::                     SUMMARY                     ::
         :::::::::::::::::::::::::::::::::::::::::::::::::::::
         :: total energy              -9.422237814586 Eh    ::
         :: gradient norm              0.263623895326 Eh/a0 ::
         :: HOMO-LUMO gap              0.164726062637 eV    ::
         ::.................................................::
         :: SCC energy                -9.489182054584 Eh    ::
         :: -> isotropic ES           -0.024074934345 Eh    ::
         :: -> anisotropic ES          0.001224242966 Eh    ::
         :: -> anisotropic XC          0.009935694818 Eh    ::
         :: -> dispersion             -0.002223311961 Eh    ::
         :: repulsion energy           0.066944206365 Eh    ::
         :: add. restraining           0.000000000000 Eh    ::
         :::::::::::::::::::::::::::::::::::::::::::::::::::::

      ----------------------------------------------------------- 
     |                   =====================                   |
     |                        A N C O P T                        |
     |                   =====================                   |
     |               Approximate Normal Coordinate               |
     |                Rational Function Optimizer                |
      ----------------------------------------------------------- 

          ...................................................
          :                      SETUP                      :
          :.................................................:
          :   optimization level            normal          :
          :   max. optcycles                   200          :
          :   ANC micro-cycles                  20          :
          :   degrees of freedom                 9          :
          :.................................................:
          :   RF solver                   davidson          :
          :   write xtbopt.log                true          :
          :   linear?                        false          :
          :   energy convergence         0.5000000E-05 Eh   :
          :   grad. convergence          0.1000000E-02 Eh/α :
          :   maximium RF displ.         1.0000000          :
          :   Hlow (freq-cutoff)         0.1000000E-01      :
          :   Hmax (freq-cutoff)         5.0000000          :
          :   S6 in model hess.         20.0000000          :
          ...................................................

generating ANC from model Hessian ...
Using Lindh-Hessian (1995)
 Shifting diagonal of input Hessian by    0.0000000000000000     
 Lowest  eigenvalues of input Hessian
   -0.000000   -0.000000    0.000000    0.000000    0.000000    0.000000
    0.044543    0.078885    0.141793    0.148794    0.724315    0.820176
    0.911814    1.061520    1.510680
 Highest eigenvalues
    0.148794    0.724315    0.820176    0.911814    1.061520    1.510680


........................................................................
.............................. CYCLE    1 ..............................
........................................................................
   1     -9.4891821 -0.948918E+01  0.316E-05    0.16       0.0  T
   2     -9.4891821  0.666809E-09  0.317E-04    0.16     141.1  T
   3     -9.4891821 -0.664844E-09  0.348E-05    0.16    1284.5  T
     SCC iter.                  ...        0 min,  0.001 sec
     gradient                   ...        0 min,  0.001 sec
 * total energy  :    -9.4222378 Eh     change       -0.5200658E-09 Eh
   gradient norm :     0.2636251 Eh/α   predicted     0.0000000E+00 (-100.00%)
   displ. norm   :     0.3595221 α      lambda       -0.7393482E-01
   maximum displ.:     0.2040915 α      in ANC's #8, #2, #3, ...

........................................................................
.............................. CYCLE    2 ..............................
........................................................................
   1     -9.5567742 -0.955677E+01  0.321E+00    1.04       0.0  T
   2     -9.4502180  0.106556E+00  0.458E+00    2.08       1.0  T
   3     -9.5867598 -0.136542E+00  0.131E+00    1.16       1.0  T
   4     -9.5818630  0.489680E-02  0.102E+00    1.13       1.0  T
   5     -9.5879724 -0.610942E-02  0.291E-01    1.19       1.0  T
   6     -9.5883709 -0.398464E-03  0.766E-02    1.18       1.0  T
   7     -9.5883714 -0.552479E-06  0.376E-02    1.19       1.2  T
   8     -9.5883800 -0.861451E-05  0.111E-02    1.18       4.0  T
   9     -9.5883806 -0.559890E-06  0.261E-03    1.18      17.1  T
  10     -9.5883806 -0.116292E-07  0.572E-04    1.18      78.1  T
  11     -9.5883806 -0.102266E-08  0.128E-04    1.18     348.8  T
     SCC iter.                  ...        0 min,  0.001 sec
     gradient                   ...        0 min,  0.001 sec
 * total energy  :    -9.4926136 Eh     change       -0.7037578E-01 Eh
   gradient norm :     0.2091536 Eh/α   predicted    -0.4174568E-01 ( -40.68%)
   displ. norm   :     0.7450532 α      lambda       -0.1426267E+00
   maximum displ.:     0.5076304 α      in ANC's #8, #4, #7, ...

........................................................................
.............................. CYCLE    3 ..............................
........................................................................
   1     -9.8144370 -0.981444E+01  0.531E+00    3.57       0.0  T
   2     -9.8221126 -0.767556E-02  0.324E+00    3.86       1.0  T
   3     -9.8256414 -0.352882E-02  0.238E+00    3.56       1.0  T
   4     -9.8337092 -0.806784E-02  0.116E+00    3.56       1.0  T
   5     -9.8402869 -0.657761E-02  0.154E-01    3.66       1.0  T
   6     -9.8403145 -0.276097E-04  0.831E-02    3.64       1.0  T
   7     -9.8403173 -0.282903E-05  0.126E-02    3.65       3.6  T
   8     -9.8403176 -0.275677E-06  0.500E-03    3.65       8.9  T
   9     -9.8403176 -0.606273E-07  0.546E-04    3.65      81.9  T
  10     -9.8403176 -0.361869E-09  0.254E-04    3.65     175.8  T
     SCC iter.                  ...        0 min,  0.001 sec
     gradient                   ...        0 min,  0.001 sec
 * total energy  :    -9.4608542 Eh     change        0.3175943E-01 Eh
   gradient norm :     0.9649600 Eh/α   predicted    -0.1108997E+00 (-449.19%)
   displ. norm   :     0.3559362 α      lambda       -0.2832886E+00
   maximum displ.:     0.1991151 α      in ANC's #4, #8, #2, ...

........................................................................
.............................. CYCLE    4 ..............................
........................................................................
   1     -9.6948070 -0.969481E+01  0.299E+00    2.47       0.0  T
   2     -9.6750811  0.197258E-01  0.260E+00    1.95       1.0  T
   3     -9.7061258 -0.310447E-01  0.162E+00    2.74       1.0  T
   4     -9.7158414 -0.971557E-02  0.344E-01    2.39       1.0  T
   5     -9.7160469 -0.205545E-03  0.965E-02    2.47       1.0  T
   6     -9.7160200  0.268774E-04  0.812E-02    2.47       1.0  T
   7     -9.7160463 -0.262324E-04  0.393E-02    2.47       1.1  T
   8     -9.7160528 -0.655940E-05  0.588E-03    2.46       7.6  T
   9     -9.7160529 -0.889060E-07  0.204E-03    2.46      21.9  T
  10     -9.7160529 -0.166703E-07  0.615E-04    2.46      72.7  T
  11     -9.7160529 -0.140396E-08  0.764E-05    2.46     585.3  T
     SCC iter.                  ...        0 min,  0.001 sec
     gradient                   ...        0 min,  0.001 sec
 * total energy  :    -9.5616944 Eh     change       -0.1008402E+00 Eh
   gradient norm :     0.0867035 Eh/α   predicted    -0.1595893E+00 (  58.26%)
   displ. norm   :     0.3228982 α      lambda       -0.1420107E-01
   maximum displ.:     0.2445428 α      in ANC's #1, #3, #4, ...

........................................................................
.............................. CYCLE    5 ..............................
........................................................................
   1     -9.7195120 -0.971951E+01  0.942E-01    2.62       0.0  T
   2     -9.7188651  0.646910E-03  0.652E-01    2.81       1.0  T
   3     -9.7179108  0.954270E-03  0.646E-01    2.58       1.0  T
   4     -9.7201084 -0.219761E-02  0.607E-02    2.70       1.0  T
   5     -9.7201144 -0.596303E-05  0.318E-02    2.71       1.4  T
   6     -9.7201137  0.687541E-06  0.272E-02    2.71       1.6  T
   7     -9.7201169 -0.316247E-05  0.218E-03    2.71      20.5  T
   8     -9.7201169 -0.120500E-07  0.708E-04    2.71      63.1  T
   9     -9.7201169 -0.197037E-08  0.179E-04    2.71     249.4  T
     SCC iter.                  ...        0 min,  0.001 sec
     gradient                   ...        0 min,  0.001 sec
 * total energy  :    -9.5711429 Eh     change       -0.9448485E-02 Eh
   gradient norm :     0.0816577 Eh/α   predicted    -0.7840851E-02 ( -17.01%)
   displ. norm   :     0.3245844 α      lambda       -0.1599183E-01
   maximum displ.:     0.1969110 α      in ANC's #2, #1, #6, ...

........................................................................
.............................. CYCLE    6 ..............................
........................................................................
   1     -9.7405815 -0.974058E+01  0.112E+00    2.83       0.0  T
   2     -9.7397383  0.843176E-03  0.805E-01    2.98       1.0  T
   3     -9.7394429  0.295448E-03  0.648E-01    2.76       1.0  T
   4     -9.7413376 -0.189477E-02  0.135E-01    2.91       1.0  T
   5     -9.7414364 -0.987656E-04  0.612E-02    2.88       1.0  T
   6     -9.7414499 -0.134460E-04  0.234E-02    2.88       1.9  T
   7     -9.7414503 -0.396883E-06  0.272E-03    2.88      16.4  T
   8     -9.7414503 -0.594185E-08  0.163E-03    2.88      27.5  T
   9     -9.7414503 -0.669301E-08  0.240E-04    2.88     186.6  T
  10     -9.7414503 -0.706439E-10  0.415E-05    2.88    1077.8  T
     SCC iter.                  ...        0 min,  0.001 sec
     gradient                   ...        0 min,  0.001 sec
 * total energy  :    -9.5826281 Eh     change       -0.1148525E-01 Eh
   gradient norm :     0.0547598 Eh/α   predicted    -0.8838335E-02 ( -23.05%)
   displ. norm   :     0.2705353 α      lambda       -0.1099108E-01
   maximum displ.:     0.1491734 α      in ANC's #6, #1, #7, ...

........................................................................
.............................. CYCLE    7 ..............................
........................................................................
   1     -9.7618142 -0.976181E+01  0.963E-01    2.93       0.0  T
   2     -9.7612772  0.537032E-03  0.683E-01    3.05       1.0  T
   3     -9.7610868  0.190385E-03  0.539E-01    2.85       1.0  T
   4     -9.7623526 -0.126584E-02  0.146E-01    3.00       1.0  T
   5     -9.7624745 -0.121833E-03  0.580E-02    2.96       1.0  T
   6     -9.7624876 -0.131350E-04  0.194E-02    2.96       2.3  T
   7     -9.7624877 -0.127062E-06  0.232E-03    2.96      19.2  T
   8     -9.7624877  0.131391E-08  0.143E-03    2.96      31.3  T
   9     -9.7624877 -0.632699E-08  0.199E-04    2.96     224.5  T
  10     -9.7624877 -0.478497E-10  0.333E-05    2.96    1342.4  T
     SCC iter.                  ...        0 min,  0.001 sec
     gradient                   ...        0 min,  0.001 sec
 * total energy  :    -9.5904121 Eh     change       -0.7783970E-02 Eh
   gradient norm :     0.0264981 Eh/α   predicted    -0.5897755E-02 ( -24.23%)
   displ. norm   :     0.2270534 α      lambda       -0.4602857E-02
   maximum displ.:     0.1372309 α      in ANC's #1, #6, #7, ...

........................................................................
.............................. CYCLE    8 ..............................
........................................................................
   1     -9.7681900 -0.976819E+01  0.884E-01    2.94       0.0  T
   2     -9.7674030  0.787074E-03  0.649E-01    3.13       1.0  T
   3     -9.7679471 -0.544183E-03  0.492E-01    2.89       1.0  T
   4     -9.7689182 -0.971020E-03  0.119E-01    3.03       1.0  T
   5     -9.7689933 -0.751513E-04  0.565E-02    3.01       1.0  T
   6     -9.7690074 -0.140817E-04  0.145E-02    3.00       3.1  T
   7     -9.7690074 -0.480984E-07  0.118E-03    3.00      37.8  T
   8     -9.7690074 -0.574456E-10  0.630E-04    3.00      71.0  T
   9     -9.7690074 -0.760110E-09  0.112E-04    3.00     400.8  T
     SCC iter.                  ...        0 min,  0.001 sec
     gradient                   ...        0 min,  0.001 sec
 * total energy  :    -9.5927535 Eh     change       -0.2341422E-02 Eh
   gradient norm :     0.0118041 Eh/α   predicted    -0.2420072E-02 (   3.36%)
   displ. norm   :     0.1348690 α      lambda       -0.1133631E-02
   maximum displ.:     0.0644408 α      in ANC's #4, #2, #6, ...

........................................................................
.............................. CYCLE    9 ..............................
........................................................................
   1     -9.7658465 -0.976585E+01  0.627E-01    3.01       0.0  T
   2     -9.7656082  0.238362E-03  0.429E-01    2.92       1.0  T
   3     -9.7655948  0.133805E-04  0.360E-01    3.08       1.0  T
   4     -9.7661558 -0.561001E-03  0.897E-02    2.97       1.0  T
   5     -9.7662021 -0.462923E-04  0.408E-02    2.99       1.1  T
   6     -9.7662100 -0.785310E-05  0.105E-02    2.99       4.2  T
   7     -9.7662100 -0.894129E-07  0.905E-04    2.99      49.4  T
   8     -9.7662100  0.600156E-09  0.608E-04    2.99      73.5  T
     SCC iter.                  ...        0 min,  0.001 sec
     gradient                   ...        0 min,  0.001 sec
 * total energy  :    -9.5926679 Eh     change        0.8558498E-04 Eh
   gradient norm :     0.0292135 Eh/α   predicted    -0.5771266E-03 (-774.33%)
   displ. norm   :     0.0706073 α      lambda       -0.8540005E-03
   maximum displ.:     0.0413811 α      in ANC's #1, #4, #6, ...

........................................................................
.............................. CYCLE   10 ..............................
........................................................................
   1     -9.7714788 -0.977148E+01  0.309E-01    3.02       0.0  T
   2     -9.7714282  0.505991E-04  0.212E-01    3.07       1.0  T
   3     -9.7714716 -0.433418E-04  0.169E-01    2.99       1.0  T
   4     -9.7715767 -0.105100E-03  0.488E-02    3.04       1.0  T
   5     -9.7715898 -0.131219E-04  0.248E-02    3.03       1.8  T
   6     -9.7715925 -0.273651E-05  0.718E-03    3.03       6.2  T
   7     -9.7715926 -0.748552E-07  0.823E-04    3.03      54.3  T
   8     -9.7715926 -0.735620E-09  0.352E-04    3.03     127.0  T
     SCC iter.                  ...        0 min,  0.001 sec
     gradient                   ...        0 min,  0.001 sec
 * total energy  :    -9.5930540 Eh     change       -0.3860478E-03 Eh
   gradient norm :     0.0057087 Eh/α   predicted    -0.4291288E-03 (  11.16%)
   displ. norm   :     0.0266098 α      lambda       -0.7480188E-04
   maximum displ.:     0.0240656 α      in ANC's #1, #2, #4, ...

........................................................................
.............................. CYCLE   11 ..............................
........................................................................
   1     -9.7699498 -0.976995E+01  0.104E-01    3.02       0.0  T
   2     -9.7699436  0.624192E-05  0.701E-02    3.04       1.0  T
   3     -9.7699312  0.123436E-04  0.655E-02    3.01       1.0  T
   4     -9.7699553 -0.240104E-04  0.746E-03    3.03       6.0  T
   5     -9.7699554 -0.129768E-06  0.471E-03    3.03       9.5  T
   6     -9.7699554 -0.563959E-07  0.692E-04    3.02      64.6  T
   7     -9.7699554 -0.226382E-08  0.292E-04    3.03     153.3  T
     SCC iter.                  ...        0 min,  0.001 sec
     gradient                   ...        0 min,  0.001 sec
 * total energy  :    -9.5930708 Eh     change       -0.1679797E-04 Eh
   gradient norm :     0.0053939 Eh/α   predicted    -0.3742672E-04 ( 122.80%)
   displ. norm   :     0.0118323 α      lambda       -0.3390044E-04
   maximum displ.:     0.0069156 α      in ANC's #2, #4, #3, ...

........................................................................
.............................. CYCLE   12 ..............................
........................................................................
   1     -9.7703964 -0.977040E+01  0.568E-02    3.03       0.0  T
   2     -9.7703939  0.242194E-05  0.417E-02    3.02       1.1  T
   3     -9.7703954 -0.145845E-05  0.301E-02    3.04       1.5  T
   4     -9.7703988 -0.338911E-05  0.992E-03    3.03       4.5  T
   5     -9.7703993 -0.520708E-06  0.296E-03    3.03      15.1  T
   6     -9.7703993 -0.367956E-07  0.122E-03    3.03      36.7  T
   7     -9.7703993 -0.183451E-08  0.165E-04    3.03     270.3  T
   8     -9.7703993 -0.438813E-10  0.378E-05    3.03    1183.7  T
     SCC iter.                  ...        0 min,  0.001 sec
     gradient                   ...        0 min,  0.001 sec
 * total energy  :    -9.5930945 Eh     change       -0.2367272E-04 Eh
   gradient norm :     0.0033285 Eh/α   predicted    -0.1695204E-04 ( -28.39%)
   displ. norm   :     0.0126940 α      lambda       -0.2347594E-04
   maximum displ.:     0.0079631 α      in ANC's #3, #2, #4, ...

........................................................................
.............................. CYCLE   13 ..............................
........................................................................
   1     -9.7708062 -0.977081E+01  0.595E-02    3.04       0.0  T
   2     -9.7708053  0.977434E-06  0.405E-02    3.03       1.1  T
   3     -9.7708027  0.257643E-05  0.323E-02    3.04       1.4  T
   4     -9.7708076 -0.490917E-05  0.851E-03    3.04       5.3  T
   5     -9.7708080 -0.401427E-06  0.216E-03    3.04      20.7  T
   6     -9.7708080 -0.123986E-07  0.148E-03    3.04      30.2  T
   7     -9.7708080 -0.374736E-08  0.179E-04    3.04     250.4  T
   8     -9.7708080 -0.378524E-10  0.173E-05    3.04    2580.4  T
     SCC iter.                  ...        0 min,  0.001 sec
     gradient                   ...        0 min,  0.001 sec
 * total energy  :    -9.5931111 Eh     change       -0.1662222E-04 Eh
   gradient norm :     0.0022335 Eh/α   predicted    -0.1174047E-04 ( -29.37%)
   displ. norm   :     0.0115081 α      lambda       -0.1462307E-04
   maximum displ.:     0.0063309 α      in ANC's #3, #7, #1, ...

........................................................................
.............................. CYCLE   14 ..............................
........................................................................
   1     -9.7708417 -0.977084E+01  0.573E-02    3.04       0.0  T
   2     -9.7708414  0.259524E-06  0.374E-02    3.04       1.2  T
   3     -9.7708383  0.316003E-05  0.299E-02    3.05       1.5  T
   4     -9.7708427 -0.438239E-05  0.366E-03    3.04      12.2  T
   5     -9.7708427 -0.217066E-07  0.219E-03    3.05      20.4  T
   6     -9.7708427 -0.226988E-07  0.160E-03    3.04      28.0  T
   7     -9.7708427 -0.510199E-08  0.189E-04    3.04     236.9  T
   8     -9.7708427 -0.390177E-10  0.162E-05    3.04    2752.9  T
     SCC iter.                  ...        0 min,  0.001 sec
     gradient                   ...        0 min,  0.001 sec
 * total energy  :    -9.5931201 Eh     change       -0.8963977E-05 Eh
   gradient norm :     0.0012608 Eh/α   predicted    -0.7312770E-05 ( -18.42%)
   displ. norm   :     0.0062282 α      lambda       -0.2424410E-05
   maximum displ.:     0.0036977 α      in ANC's #7, #3, #1, ...

........................................................................
.............................. CYCLE   15 ..............................
........................................................................
   1     -9.7709460 -0.977095E+01  0.313E-02    3.05       0.0  T
   2     -9.7709459  0.392490E-07  0.182E-02    3.05       2.5  T
   3     -9.7709444  0.158297E-05  0.158E-02    3.04       2.8  T
   4     -9.7709461 -0.170032E-05  0.101E-03    3.05      44.5  T
   5     -9.7709461  0.774275E-09  0.535E-04    3.05      83.6  T
   6     -9.7709461 -0.750251E-09  0.204E-04    3.05     219.4  T
     SCC iter.                  ...        0 min,  0.000 sec
     gradient                   ...        0 min,  0.001 sec
 * total energy  :    -9.5931213 Eh     change       -0.1273176E-05 Eh
   gradient norm :     0.0005249 Eh/α   predicted    -0.1211636E-05 (  -4.83%)
   displ. norm   :     0.0030780 α      lambda       -0.5153751E-06
   maximum displ.:     0.0022012 α      in ANC's #3, #1, #2, ...

   *** GEOMETRY OPTIMIZATION CONVERGED AFTER 15 ITERATIONS ***

------------------------------------------------------------------------
 total energy gain   :        -0.1708835 Eh     -107.2310 kcal/mol
 total RMSD          :         0.7789078 a0        0.4122 Å
 total power (kW/mol):       -29.9103066 (step)********** (real)
------------------------------------------------------------------------

 ANCopt (total)                0 d,  0 h,  0 min,  0.042 sec
 optimizer setup                ...        0 min,  0.000 sec (  0.148%)
 model hessian                  ...        0 min,  0.000 sec (  0.216%)
 ANC generation                 ...        0 min,  0.000 sec (  0.157%)
 coordinate transformation      ...        0 min,  0.000 sec (  0.074%)
 single point calculation       ...        0 min,  0.040 sec ( 96.737%)
 optimization log               ...        0 min,  0.000 sec (  0.838%)
 hessian update                 ...        0 min,  0.000 sec (  0.072%)
 rational function              ...        0 min,  0.000 sec (  0.793%)

================
 final structure:
================
5
 xtb: 6.2.2 (9d81278992624c895f80dd42a50cac0aa55982e2)
C         1.71001870680701   -0.62990864438765   -0.00500536903939
N         0.67713295800133   -0.05691858965931   -0.00292451887292
C        -0.75878094046571    0.11133444457136    0.00285625228036
C        -0.15912570143090    1.25846485368916   -0.00874292906053
H        -1.46924602291173   -0.68297206421357    0.01381656469247

 Bond Distances (Angstroems)
 ---------------------------
C1-N2=1.1812         N2-C1=1.1812         N2-C3=1.4457         N2-C4=1.5587         C3-N2=1.4457         C3-C4=1.2945         
C3-H5=1.0657         C4-N2=1.5587         C4-C3=1.2945         H5-C3=1.0657         
 C  H  Rav=1.0657 sigma=0.0000  Rmin=1.0657  Rmax=1.0657     1
 C  C  Rav=1.2945 sigma=0.0000  Rmin=1.2945  Rmax=1.2945     1
 N  C  Rav=1.3952 sigma=0.1582  Rmin=1.1812  Rmax=1.5587     3

 selected bond angles (degree)
 --------------------
C3-N2-C1=157.66                C4-N2-C1=151.46                C4-N2-C3= 50.87                C4-C3-N2= 69.08                
H5-C3-N2=125.13                H5-C3-C4=165.79                C3-C4-N2= 60.04                

 selected dihedral angles (degree)
 ---------------------------------
C4-C3-N2-C1=180.17            H5-C3-N2-C1=  0.27            H5-C3-N2-C4=180.10            C3-C4-N2-C1=179.86            
N2-C4-C3-H5=179.68            
           -------------------------------------------------
          |                Final Singlepoint                |
           -------------------------------------------------

          ...................................................
          :                      SETUP                      :
          :.................................................:
          :  # basis functions                  17          :
          :  # atomic orbitals                  17          :
          :  # shells                            9          :
          :  # electrons                        18          :
          :  max. iterations                   250          :
          :  Hamiltonian                  GFN2-xTB          :
          :  restarted?                      false          :
          :  GBSA solvation                  false          :
          :  PC potential                    false          :
          :  electronic temp.          300.0000000     K    :
          :  accuracy                    1.0000000          :
          :  -> integral cutoff          0.2500000E+02      :
          :  -> integral neglect         0.1000000E-07      :
          :  -> SCF convergence          0.1000000E-05 Eh   :
          :  -> wf. convergence          0.1000000E-03 e    :
          :  Broyden damping             0.4000000          :
          ...................................................

 iter      E             dE          RMSdq      gap      omega  full diag
   1     -9.7709461 -0.977095E+01  0.113E-04    3.05       0.0  T
   2     -9.7709461  0.734168E-11  0.619E-05    3.05     722.1  T
   3     -9.7709461 -0.143636E-10  0.644E-05    3.05     694.2  T

   *** convergence criteria satisfied after 3 iterations ***

         #    Occupation            Energy/Eh            Energy/eV
      -------------------------------------------------------------
         1        2.0000           -0.7243500             -19.7106
       ...           ...                  ...                  ...
         3        2.0000           -0.6116250             -16.6432
         4        2.0000           -0.5794160             -15.7667
         5        2.0000           -0.5723959             -15.5757
         6        2.0000           -0.5300830             -14.4243
         7        2.0000           -0.4691700             -12.7668
         8        2.0000           -0.4397345             -11.9658
         9        2.0000           -0.4362597             -11.8712 (HOMO)
        10                         -0.3243192              -8.8252 (LUMO)
        11                         -0.2537957              -6.9061
        12                         -0.2392825              -6.5112
        13                         -0.1144448              -3.1142
        14                         -0.0333980              -0.9088
       ...                                ...                  ...
        17                          0.8595020              23.3882
      -------------------------------------------------------------
                  HL-Gap            0.1119405 Eh            3.0461 eV
             Fermi-level           -0.3802895 Eh          -10.3482 eV

 SCC (total)                   0 d,  0 h,  0 min,  0.002 sec
 SCC setup                      ...        0 min,  0.000 sec (  2.281%)
 Dispersion                     ...        0 min,  0.000 sec (  0.494%)
 integral evaluation            ...        0 min,  0.001 sec ( 41.692%)
 zeroth order Hamiltonian       ...        0 min,  0.000 sec (  0.573%)
 iterations                     ...        0 min,  0.000 sec ( 12.311%)
 molecular gradient             ...        0 min,  0.001 sec ( 40.468%)
 printout                       ...        0 min,  0.000 sec (  1.905%)

         :::::::::::::::::::::::::::::::::::::::::::::::::::::
         ::                     SUMMARY                     ::
         :::::::::::::::::::::::::::::::::::::::::::::::::::::
         :: total energy              -9.593121332124 Eh    ::
         :: gradient norm              0.000546010316 Eh/a0 ::
         :: HOMO-LUMO gap              3.046054696860 eV    ::
         ::.................................................::
         :: SCC energy                -9.770946051332 Eh    ::
         :: -> isotropic ES           -0.015940621521 Eh    ::
         :: -> anisotropic ES         -0.000869776977 Eh    ::
         :: -> anisotropic XC          0.015402522535 Eh    ::
         :: -> dispersion             -0.002227790607 Eh    ::
         :: repulsion energy           0.177824648737 Eh    ::
         :: add. restraining           0.000000000000 Eh    ::
         :::::::::::::::::::::::::::::::::::::::::::::::::::::

           ------------------------------------------------- 
          |                Numerical Hessian                |
           ------------------------------------------------- 
step length          :   0.00500
SCC accuracy         :   0.30000
Hessian scale factor :   1.00000
frozen atoms in %    :   0.00000    0
RMS gradient         :   0.00055
estimated CPU  time      0.00 min
estimated wall time      0.00 min

writing file <hessian>.

 projected vibrational frequencies (cm-1)
eigval :       -0.00    -0.00    -0.00     0.00     0.00     0.00
eigval :      314.49   398.28   430.94   706.36   807.50   932.63
eigval :     1705.26  2024.75  3201.34
           -------------------------------------------------
          |                Property Printout                |
           -------------------------------------------------

    * Orbital Energies and Occupations

         #    Occupation            Energy/Eh            Energy/eV
      -------------------------------------------------------------
         1        2.0000           -0.7243503             -19.7106
         2        2.0000           -0.6945704             -18.9002
         3        2.0000           -0.6116252             -16.6432
         4        2.0000           -0.5794162             -15.7667
         5        2.0000           -0.5723960             -15.5757
         6        2.0000           -0.5300831             -14.4243
         7        2.0000           -0.4691700             -12.7668
         8        2.0000           -0.4397347             -11.9658
         9        2.0000           -0.4362603             -11.8712 (HOMO)
        10                         -0.3243193              -8.8252 (LUMO)
        11                         -0.2537960              -6.9061
        12                         -0.2392825              -6.5112
        13                         -0.1144452              -3.1142
        14                         -0.0333980              -0.9088
        15                          0.1031948               2.8081
        16                          0.7433279              20.2270
        17                          0.8595020              23.3882
      -------------------------------------------------------------
                  HL-Gap            0.1119410 Eh            3.0461 eV
             Fermi-level           -0.3802898 Eh          -10.3482 eV

     #   Z        covCN         q      C6AA      α(0)
     1   6 C      0.912    -0.117    39.172    10.475
     2   7 N      2.713     0.133    18.988     6.472
     3   6 C      2.816     0.051    26.854     8.491
     4   6 C      1.876    -0.130    34.769     9.524
     5   1 H      0.927     0.064     2.154     2.295

 Mol. C6AA /au·bohr⁶  :        535.404846
 Mol. C8AA /au·bohr⁸  :      14088.467408
 Mol. α(0) /au        :         37.256354


Wiberg/Mayer (AO) data.
largest (>0.10) Wiberg bond orders for each atom
          total WBO             WBO to atom ...
     1  C   2.769        N    2 2.329    C    4 0.268    C    3 0.164
     2  N   3.729        C    1 2.329    C    3 0.816    C    4 0.584
     3  C   3.874        C    4 1.942    H    5 0.952    N    2 0.816    C    1 0.164
     4  C   2.829        C    3 1.942    N    2 0.584    C    1 0.268
     5  H   0.996        C    3 0.952

MOs/occ written to file <molden.input>


molecular dipole:
                 x           y           z       tot (Debye)
 q only:       -0.421      -0.254       0.004
   full:       -0.886      -0.624       0.010       2.756
molecular quadrupole (traceless):
                xx          xy          yy          xz          yz          zz
 q only:       -0.030       1.109      -0.577      -0.005       0.003       0.607
Molecule has the following symmetry elements: (sigma) 
It seems to be the Cs point group
  q+dip:       -0.437       3.485      -1.118      -0.017       0.001       1.555
   full:       -1.151       3.213      -1.781      -0.002       0.018       2.932

           -------------------------------------------------
          |                Geometry Summary                 |
           -------------------------------------------------

      molecular mass/u    :       51.0468517
   center of mass at/Å    :        0.3431627       0.1449825      -0.0030939
  moments of inertia/u·Å² :        0.1280987E+02   0.5549754E+02   0.6830739E+02
rotational constants/cm⁻¹ :        0.1315988E+01   0.3037546E+00   0.2467907E+00

 * 3 selected distances

     #   Z        #   Z                                     value/Å
     1   6 C      2   7 N                                 1.1811752
     3   6 C      4   6 C                                 1.2944609 (max)
     3   6 C      5   1 H                                 1.0657409 (min)

 * 3 distinct bonds (by element types)

   Z      Z             #   av. dist./Å        max./Å        min./Å
   1 H    6 C           1     1.0657409     1.0657409     1.0657409
   6 C    6 C           1     1.2944609     1.2944609     1.2944609
   6 C    7 N           1     1.1811752     1.1811752     1.1811752

           -------------------------------------------------
          |               Frequency Printout                |
           -------------------------------------------------
 projected vibrational frequencies (cm-1)
eigval :       -0.00    -0.00    -0.00     0.00     0.00     0.00
eigval :      314.49   398.28   430.94   706.36   807.50   932.63
eigval :     1705.26  2024.75  3201.34
 reduced masses (amu)
   1: 10.46   2: 11.67   3: 12.46   4: 12.48   5: 12.10   6: 10.85   7: 12.61   8: 13.13
   9: 12.11  10:  4.02  11: 11.07  12:  3.80  13: 11.48  14: 12.82  15:  2.10
 IR intensities (amu)
   1:  0.10   2:  0.18   3:  0.04   4:  0.11   5:  0.10   6:  0.23   7:  0.27   8:  0.22
   9:  0.17  10:  0.16  11:  0.04  12:  0.04  13:  0.28  14:  0.29  15:  0.14
 Raman intensities (amu)
   1:  0.00   2:  0.00   3:  0.00   4:  0.00   5:  0.00   6:  0.00   7:  0.00   8:  0.00
   9:  0.00  10:  0.00  11:  0.00  12:  0.00  13:  0.00  14:  0.00  15:  0.00
 output can be read by thermo (or use thermo option).
 writing <g98.out> molden fake output.
 recommended (thermochemical) frequency scaling factor: 1.0
           -------------------------------------------------
          |             Thermodynamic Functions             |
           -------------------------------------------------

cs  symmetry found (for desy threshold:  0.10E+00) used in thermo

          ...................................................
          :                      SETUP                      :
          :.................................................:
          :  # frequencies                           9      :
          :  # imaginary freq.                       0      :
          :  linear?                             false      :
          :  only rotor calc.                    false      :
          :  symmetry                               cs      :
          :  rotational number                       1      :
          :  scaling factor                  1.0000000      :
          :  rotor cutoff                   50.0000000 cm⁻¹ :
          :  imag. cutoff                  -20.0000000 cm⁻¹ :
          :.................................................:

    mode    ω/cm⁻¹     T·S(HO)/kcal·mol⁻¹    T·S(FR)/kcal·mol⁻¹   T·S(vib)
   ------------------------------------------------------------------------
   ------------------------------------------------------------------------

   temp. (K)  partition function   enthalpy   heat capacity  entropy
                                   cal/mol     cal/K/mol   cal/K/mol   J/K/mol
 298.15  VIB   1.83                  772.196      6.482      3.792
         ROT  0.168E+05              888.752      2.981     22.319
         INT  0.308E+05             1660.948      9.463     26.112
         TR   0.353E+27             1481.254      4.968     37.697
         TOT                        3142.2021    14.4312    63.8082   266.9733

   temp. (K)  partition function   enthalpy   heat capacity  entropy
                                   cal/mol     cal/K/mol   cal/K/mol   J/K/mol
 120.00  VIB   1.04                   38.562      1.422      0.397
         ROT  0.430E+04              357.707      2.981     19.606
         INT  0.446E+04              396.269      4.403     20.003
         TR   0.901E+26              596.178      4.968     33.177
         TOT                         992.4468     9.3708    53.1805   222.5072

   temp. (K)  partition function   enthalpy   heat capacity  entropy
                                   cal/mol     cal/K/mol   cal/K/mol   J/K/mol
 100.00  VIB   1.02                   16.167      0.830      0.194
         ROT  0.327E+04              298.089      2.981     19.063
         INT  0.332E+04              314.256      3.811     19.257
         TR   0.685E+26              496.815      4.968     32.272
         TOT                         811.0710     8.7794    51.5290   215.5974

   temp. (K)  partition function   enthalpy   heat capacity  entropy
                                   cal/mol     cal/K/mol   cal/K/mol   J/K/mol
  80.00  VIB   1.00                    4.576      0.356      0.067
         ROT  0.234E+04              238.471      2.981     18.398
         INT  0.235E+04              243.047      3.337     18.464
         TR   0.490E+26              397.452      4.968     31.164
         TOT                         640.4993     8.3047    49.6282   207.6446

   temp. (K)  partition function   enthalpy   heat capacity  entropy
                                   cal/mol     cal/K/mol   cal/K/mol   J/K/mol
  60.00  VIB   1.00                    0.599      0.080      0.011
         ROT  0.152E+04              178.853      2.981     17.540
         INT  0.152E+04              179.452      3.061     17.551
         TR   0.319E+26              298.089      4.968     29.735
         TOT                         477.5410     8.0289    47.2865   197.8469

   temp. (K)  partition function   enthalpy   heat capacity  entropy
                                   cal/mol     cal/K/mol   cal/K/mol   J/K/mol
  40.00  VIB   1.00                    0.012      0.003     -0.000
         ROT   827.                  119.236      2.981     16.331
         INT   827.                  119.248      2.984     16.331
         TR   0.173E+26              198.726      4.968     27.722
         TOT                         317.9735     7.9525    44.0531   184.3182

   temp. (K)  partition function   enthalpy   heat capacity  entropy
                                   cal/mol     cal/K/mol   cal/K/mol   J/K/mol
  20.00  VIB   1.00                    0.000      0.000     -0.001
         ROT   292.                   59.618      2.981     14.265
         INT   292.                   59.618      2.981     14.264
         TR   0.613E+25               99.363      4.968     24.280
         TOT                         158.9808     7.9490    38.5438   161.2674

   temp. (K)  partition function   enthalpy   heat capacity  entropy
                                   cal/mol     cal/K/mol   cal/K/mol   J/K/mol
  10.00  VIB   1.00                    0.000      0.000     -0.002
         ROT   103.                   29.809      2.981     12.199
         INT   103.                   29.809      2.981     12.197
         TR   0.217E+25               49.681      4.968     20.838
         TOT                          79.4904     7.9490    33.0349   138.2180

       T/K    H(0)-H(T)+PV         H(T)/Eh          T*S/Eh         G(T)/Eh
   ------------------------------------------------------------------------
    298.15    0.500742E-02    0.289773E-01    0.303173E-01   -0.134003E-02
    120.00    0.158156E-02    0.255514E-01    0.101698E-01    0.153816E-01
    100.00    0.129252E-02    0.252624E-01    0.821167E-02    0.170507E-01
     80.00    0.102070E-02    0.249906E-01    0.632701E-02    0.186636E-01
     60.00    0.761010E-03    0.247309E-01    0.452135E-02    0.202095E-01
     40.00    0.506723E-03    0.244766E-01    0.280812E-02    0.216685E-01
     20.00    0.253352E-03    0.242232E-01    0.122847E-02    0.229948E-01
     10.00    0.126676E-03    0.240965E-01    0.526445E-03    0.235701E-01 (used)
   ------------------------------------------------------------------------

         :::::::::::::::::::::::::::::::::::::::::::::::::::::
         ::                  THERMODYNAMIC                  ::
         :::::::::::::::::::::::::::::::::::::::::::::::::::::
         :: total free energy          -9.569551228549 Eh   ::
         ::.................................................::
         :: total energy               -9.593121331736 Eh   ::
         :: zero point energy           0.023969871691 Eh   ::
         :: G(RRHO) w/o ZPVE           -0.000399768505 Eh   ::
         :: G(RRHO) contrib.            0.023570103187 Eh   ::
         :::::::::::::::::::::::::::::::::::::::::::::::::::::

optimized geometry written to: xtbopt.xyz


           -------------------------------------------------
          | TOTAL ENERGY               -9.593121331736 Eh   |
          | TOTAL ENTHALPY             -9.569024784029 Eh   |
          | TOTAL FREE ENERGY          -9.569551228549 Eh   |
          | GRADIENT NORM               0.000546054220 Eh/α |
          | HOMO-LUMO GAP               3.046070436758 eV   |
           -------------------------------------------------

------------------------------------------------------------------------
 * finished run on 2020/05/12 at 11:44:57.930     
------------------------------------------------------------------------
 total:
 * wall-time:     0 d,  0 h,  0 min,  0.139 sec
 *  cpu-time:     0 d,  0 h,  0 min,  0.139 sec
 * ratio c/w:     0.999 speedup
 SCF:
 * wall-time:     0 d,  0 h,  0 min,  0.005 sec
 *  cpu-time:     0 d,  0 h,  0 min,  0.005 sec
 * ratio c/w:     1.000 speedup
 ANC optimizer:
 * wall-time:     0 d,  0 h,  0 min,  0.045 sec
 *  cpu-time:     0 d,  0 h,  0 min,  0.045 sec
 * ratio c/w:     0.999 speedup
 numerical hessian:
 * wall-time:     0 d,  0 h,  0 min,  0.075 sec
 *  cpu-time:     0 d,  0 h,  0 min,  0.075 sec
 * ratio c/w:     0.999 speedup

