[Molden Format]
[Title]
[Atoms] AU
C      1     6 -0.38811623819365E+00  0.10586758775915E+01  0.14509804282158E+01
C      2     6 -0.31133813032829E+00 -0.12325347157789E+01 -0.13269172630764E+01
C      3     6 -0.17480730838357E+00  0.14088115294333E+01 -0.11668236865243E+01
C      4     6  0.87426167689892E+00 -0.12349526912492E+01  0.10427586316590E+01
[GTO]
           1 0
 s           4   1.0000000000000000     
   51.049363095579913      -0.16312063210127389     
   8.7911227406887544      -0.19911024581000730     
  0.70640422258929825       0.31882047753655751     
  0.26922813413411617       0.12706504184240380     
 p           4   1.0000000000000000     
   5.8263656140800002       0.73716451545209605     
   1.5106896018720002       0.68216371614850257     
  0.53256483288000001       0.35783053929253711     
  0.21202323690600003        5.3983030275847881E-002

           2 0
 s           4   1.0000000000000000     
   51.049363095579913      -0.16312063210127389     
   8.7911227406887544      -0.19911024581000730     
  0.70640422258929825       0.31882047753655751     
  0.26922813413411617       0.12706504184240380     
 p           4   1.0000000000000000     
   5.8263656140800002       0.73716451545209605     
   1.5106896018720002       0.68216371614850257     
  0.53256483288000001       0.35783053929253711     
  0.21202323690600003        5.3983030275847881E-002

           3 0
 s           4   1.0000000000000000     
   51.049363095579913      -0.16312063210127389     
   8.7911227406887544      -0.19911024581000730     
  0.70640422258929825       0.31882047753655751     
  0.26922813413411617       0.12706504184240380     
 p           4   1.0000000000000000     
   5.8263656140800002       0.73716451545209605     
   1.5106896018720002       0.68216371614850257     
  0.53256483288000001       0.35783053929253711     
  0.21202323690600003        5.3983030275847881E-002

           4 0
 s           4   1.0000000000000000     
   51.049363095579913      -0.16312063210127389     
   8.7911227406887544      -0.19911024581000730     
  0.70640422258929825       0.31882047753655751     
  0.26922813413411617       0.12706504184240380     
 p           4   1.0000000000000000     
   5.8263656140800002       0.73716451545209605     
   1.5106896018720002       0.68216371614850257     
  0.53256483288000001       0.35783053929253711     
  0.21202323690600003        5.3983030275847881E-002

[MO]
Sym=     1a
Ene=  -0.73929690156572292     
Spin= Alpha
Occup=     2.00000000
           1 -0.31073823151698893     
           2  -4.0174542613911984E-002
           3   8.4200845370729513E-002
           4  0.11982097687717298     
           5 -0.31073603672679073     
           6  -3.3913789115103128E-002
           7 -0.10261632711915797     
           8 -0.10667848374384188     
           9 -0.31073769651678862     
          10  -5.7242803798927891E-003
          11  0.11698924278074249     
          12  -9.6651599663335905E-002
          13 -0.31073627584955632     
          14   7.9812603296033791E-002
          15  -9.8573698006680324E-002
          16   8.3509152796782227E-002
Sym=     2a
Ene=  -0.62832638981510824     
Spin= Alpha
Occup=     2.00000000
           1 -0.27346495883626348     
           2 -0.11081382008329203     
           3  0.17024777555717763     
           4 -0.18023938021601182     
           5  0.27346436554473319     
           6  -4.3991597072765891E-002
           7  0.18685617071787702     
           8 -0.19208971300185126     
           9  0.41117462253125603     
          10  -5.8853755880874686E-002
          11  -9.4509630240866047E-002
          12 -0.15461712215701542     
          13 -0.41117400169476065     
          14   4.1617684269007173E-002
          15  -6.9537266930869687E-002
          16 -0.17243802449297949     
Sym=     3a
Ene=  -0.62832588142975276     
Spin= Alpha
Occup=     2.00000000
           1  0.41117401419023347     
           2  -2.5545991504398904E-003
           3  0.17034992475373642     
           4  -8.5308902394077388E-002
           5 -0.41117472236792157     
           6 -0.10302463059115517     
           7  0.14537296554060508     
           8  -6.7487386269597979E-002
           9  0.27346399405673066     
          10  -4.7377075207816741E-002
          11  0.18287647975202040     
          12  0.19509548828689807     
          13 -0.27346514693798479     
          14   1.9444671378598205E-002
          15  0.19948309575288942     
          16  0.18324122630627002     
Sym=     4a
Ene=  -0.55308746720927593     
Spin= Alpha
Occup=     2.00000000
           1 -0.16430694469535675     
           2  0.37302307735194817     
           3  0.10824293366077489     
           4  -4.7591650576601328E-002
           5 -0.16430540493230381     
           6  0.37405125387783622     
           7   7.7451886171676629E-002
           8  -8.4921434740721821E-002
           9  0.16430678648682145     
          10  0.38058689486514979     
          11   7.5084102272132441E-002
          12  -5.1410168242524840E-002
          13  0.16430594361700351     
          14  0.36648689147040187     
          15  0.11061112717607222     
          16  -8.1102698244529162E-002
Sym=     5a
Ene=  -0.53373771247156299     
Spin= Alpha
Occup=     2.00000000
           1   2.5973581066061475E-006
           2  0.12258761982328222     
           3 -0.30893246741730140     
           4  0.25819916400428822     
           5  -3.6207111498645179E-007
           6 -0.12258774937365047     
           7  0.30893426356851822     
           8 -0.25819930940309754     
           9   3.4093487587983668E-006
          10   8.9711365716842080E-003
          11 -0.26773554371259795     
          12 -0.32460955780588313     
          13  -1.1694611048433908E-006
          14  -8.9719411433046119E-003
          15  0.26773722785016146     
          16  0.32460930379610353     
Sym=     6a
Ene=  -0.48035177225638626     
Spin= Alpha
Occup=     2.00000000
           1  0.37296956064333053     
           2   7.4526878050530557E-002
           3  0.22942366555725158     
           4  0.23912028033049881     
           5  0.37297115588169505     
           6   8.8544508414243786E-002
           7 -0.18888857707956530     
           8 -0.26804439045911915     
           9 -0.37297244514024019     
          10  0.17730191166747372     
          11 -0.22107494353418566     
          12  0.18724206802847976     
          13 -0.37297339751298275     
          14  -1.4230415204977804E-002
          15  0.26160704799235257     
          16 -0.21616704931575040     
Sym=     7a
Ene=  -0.46354920176828951     
Spin= Alpha
Occup=     2.00000000
           1  0.30210982352574317     
           2  -2.6865685234793029E-002
           3  0.24099497787171714     
           4  0.30110376883333140     
           5  0.30211014513501572     
           6  -1.0400795271154241E-002
           7 -0.25025663980067969     
           8 -0.29449033984157980     
           9  0.30210717777110702     
          10  -9.3828214726086545E-002
          11  0.28805000638631123     
          12 -0.24017580179193934     
          13  0.30210735628935403     
          14  0.13109493149857063     
          15 -0.27878608255870474     
          16  0.23356302129740061     
Sym=     8a
Ene=  -0.41323778910201381     
Spin= Alpha
Occup=     1.00000000
           1 -0.14373352699382322     
           2  0.21728461196743704     
           3  0.10618122289061113     
           4 -0.28607051424659841     
           5  0.14373463670393080     
           6 -0.32132989042024851     
           7  -2.7698929996932485E-002
           8 -0.19053551318296005     
           9 -0.23668210093719957     
          10 -0.37027038584174032     
          11 -0.22741103729091125     
          12  0.32705584894287304     
          13  0.23668334129742682     
          14  0.51664465375415392     
          15  -6.9574210847297233E-003
          16  0.16974091525167614     
Sym=     9a
Ene=  -0.41323735443374965     
Spin= Alpha
Occup=     1.00000000
           1 -0.23668192414979178     
           2  0.48262720424449213     
           3 -0.13975962768532665     
           4 -0.20813251947853631     
           5  0.23668368234274564     
           6 -0.40428580673616321     
           7 -0.36021351298286675     
           8  -5.0816215683954731E-002
           9  0.14373467413602475     
          10  0.21930803598554585     
          11  0.30368172321988363     
          12   2.1275947831727272E-003
          13 -0.14373529271780536     
          14 -0.31930088093808862     
          15  0.16980213791559021     
          16   9.7664559122330935E-002
Sym=    10a
Ene=  -0.32161247309515223     
Spin= Alpha
Occup=     0.00000000
           1   9.1768604953339460E-003
           2  0.14503506949722345     
           3  -6.9515511797615490E-002
           4  0.21040835023002702     
           5  -9.1771806480986928E-003
           6  -2.0406040982908484E-002
           7 -0.11063818424563858     
           8  0.23975426417202267     
           9   4.6075033498757835E-002
          10 -0.58256650370091279     
          11  0.29232284394741176     
          12 -0.31462685972427978     
          13  -4.6075697922037417E-002
          14  0.24816760140292579     
          15  0.49881301580909460     
          16 -0.46198031290580721     
Sym=    11a
Ene=  -0.32161186400820041     
Spin= Alpha
Occup=     0.00000000
           1  -4.6074437324149869E-002
           2 -0.39016327734129119     
           3 -0.50298157368929808     
           4 -0.34439526120645275     
           5   4.6075384184181896E-002
           6  0.44057171986051158     
           7 -0.29649214577103455     
           8 -0.49174901892060657     
           9   9.1752254626879127E-003
          10 -0.12094997732954264     
          11  0.20527683614329906     
          12  0.11563835263341982     
          13  -9.1751683581616592E-003
          14   4.4499268477353832E-002
          15  0.24640139882772968     
          16   8.6291721878570038E-002
Sym=    12a
Ene=  -0.23579292265582194     
Spin= Alpha
Occup=     0.00000000
           1  -6.2711139019286891E-002
           2  0.55443580225152522     
           3  0.18313333366528617     
           4  -4.4117387591206737E-002
           5  -6.2711013975245700E-002
           6  0.55744929758869399     
           7   9.3240137866529002E-002
           8 -0.15310435422397328     
           9  -6.2710796266535307E-002
          10 -0.57652196165066638     
          11  -8.6324412789089658E-002
          12   5.5266271804306023E-002
          13  -6.2710739626869572E-002
          14 -0.53536393683050265     
          15 -0.19004953547798573     
          16  0.14195558032056432     
Sym=    13a
Ene=   0.12742158209216289     
Spin= Alpha
Occup=     0.00000000
           1  -6.1283178973509785E-006
           2 -0.21498785492581798     
           3  0.54178786774126075     
           4 -0.45280607029195902     
           5   9.9990957210540794E-006
           6  0.21499765350488279     
           7 -0.54180092042523331     
           8  0.45283332734064052     
           9   1.1513262899267605E-005
          10   1.5732271994471487E-002
          11 -0.46954829423782740     
          12 -0.56927347911532489     
          13  -1.5384225547717310E-005
          14  -1.5724989946053477E-002
          15  0.46954449946239918     
          16  0.56929952262365846     
Sym=    14a
Ene=   0.17692777762650716     
Spin= Alpha
Occup=     0.00000000
           1 -0.49918673921422224     
           2  -6.8058115438550185E-002
           3 -0.13370220522114898     
           4  0.59866661797426746     
           5  0.49919011307626587     
           6  0.31150066805965587     
           7  -3.9325431616440962E-002
           8  0.53132168381845746     
           9  0.43221328564494743     
          10  -7.9930718814853738E-002
          11   4.6214842975584890E-002
          12  0.62692150135214308     
          13 -0.43221668246322170     
          14  0.24871648765649745     
          15  0.12787791742101204     
          16  0.56860229526243022     
Sym=    15a
Ene=   0.17693372294354659     
Spin= Alpha
Occup=     0.00000000
           1 -0.43221717099553569     
           2 -0.32119541169853055     
           3  0.54517912646518207     
           4  -3.4045885023657366E-002
           5  0.43221777069778389     
           6   7.4534988675393514E-003
           7  0.62686080254099363     
           8  -9.2330510595863932E-002
           9 -0.49919071804657733     
          10   7.0147590427548048E-002
          11  0.60818187007265212     
          12   7.8009878432668212E-002
          13  0.49919007767895945     
          14 -0.30942320250122352     
          15  0.51384255339896123     
          16  0.14534512245094702     
Sym=    16a
Ene=   0.57075951441657302     
Spin= Alpha
Occup=     0.00000000
           1  0.65060649111895119     
           2  0.23969212228833534     
           3 -0.33558936061890537     
           4 -0.51532984507406532     
           5  0.65060008798666480     
           6  0.21342207417902836     
           7  0.44821646701496065     
           8  0.43495350636236302     
           9 -0.65060500208818717     
          10   4.7119353970335669E-002
          11  0.50851861880244886     
          12 -0.41812185907071975     
          13 -0.65060117877834944     
          14  0.40599390672776520     
          15 -0.39589237461887894     
          16  0.33774548618540051     
