 Entering Gaussian System
 *********************************************
 Gaussian 98:
 frequency output generated by the xtb code
 *********************************************
                         Standard orientation:
 --------------------------------------------------------------------
  Center     Atomic     Atomic              Coordinates (Angstroms)
  Number     Number      Type              X           Y           Z
 --------------------------------------------------------------------
    1          6             0       -0.205382    0.560227    0.767826
    2          6             0       -0.164753   -0.652229   -0.702174
    3          6             0       -0.092504    0.745511   -0.617457
    4          6             0        0.462639   -0.653509    0.551804
 --------------------------------------------------------------------
     1 basis functions        1 primitive gaussians
     1 alpha electrons        1 beta electrons

 Harmonic frequencies (cm**-1), IR intensities (KM/Mole),
 Raman scattering activities (A**4/amu), Raman depolarization ratios,
 reduced masses (AMU), force constants (mDyne/A) and normal coordinates:
                      1                      2                      3
                        a                      a                      a 
 Frequencies --   559.7280               635.3912               914.0606
 Red. masses --    12.0107                12.0107                12.0107
 Frc consts  --     0.0000                 0.0000                 0.0000
 IR Inten    --     0.0005                 0.0949                 0.0004
 Raman Activ --     0.0000                 0.0000                 0.0000
 Depolar     --     0.0000                 0.0000                 0.0000
 Atom AN      X      Y      Z        X      Y      Z        X      Y      Z
   1   6     0.44   0.23   0.07    -0.01   0.32   0.39    -0.15   0.37  -0.31
   2   6     0.45  -0.01  -0.23     0.01  -0.32  -0.39     0.15  -0.37   0.31
   3   6    -0.50   0.03  -0.04     0.15  -0.37   0.31    -0.01   0.32   0.39
   4   6    -0.39  -0.25   0.20    -0.15   0.37  -0.31     0.01  -0.32  -0.39
                      4                      5                      6
                        a                      a                      a 
 Frequencies --  1070.4922              1070.5068              1459.8430
 Red. masses --    12.0107                12.0107                12.0107
 Frc consts  --     0.0000                 0.0000                 0.0000
 IR Inten    --     1.8060                 1.8060                 0.0006
 Raman Activ --     0.0000                 0.0000                 0.0000
 Depolar     --     0.0000                 0.0000                 0.0000
 Atom AN      X      Y      Z        X      Y      Z        X      Y      Z
   1   6     0.09  -0.03  -0.50     0.22  -0.44   0.04    -0.19   0.25   0.39
   2   6    -0.22  -0.11  -0.44     0.03  -0.49   0.07    -0.17  -0.34  -0.32
   3   6    -0.03   0.05   0.49     0.03   0.50  -0.08     0.05   0.38  -0.32
   4   6     0.16   0.10   0.45    -0.28   0.42  -0.03     0.32  -0.29   0.25
