$hessian                                                                        
        0.1015830492  -0.1051278279  -0.0718181103   0.0439816047   0.0215583275
        0.0169568964  -0.0372647671  -0.0261463960   0.0485875259  -0.1082998868
        0.1097158963   0.0062736880
       -0.1051278279   0.2370973026   0.0760616248  -0.0078438876  -0.0394770749
       -0.0738495706  -0.0050609071   0.0019261028   0.0044639864   0.1180326226
       -0.1995463306  -0.0066760406
       -0.0718181103   0.0760616248   0.3403457996  -0.0182245660  -0.0878126871
       -0.0710546532   0.0339812032   0.0791387769  -0.2708944528   0.0560614731
       -0.0673877146   0.0016033064
        0.0439816047  -0.0078438876  -0.0182245660   0.0916583345   0.0416941944
        0.1085624797  -0.0355473791  -0.0444688411   0.0142946468  -0.1000925601
        0.0106185344  -0.1046325604
        0.0215583275  -0.0394770749  -0.0878126871   0.0416941944   0.3106985969
        0.0944184976  -0.0285913184  -0.2788073235   0.0245327250  -0.0346612035
        0.0075858015  -0.0311385355
        0.0169568964  -0.0738495706  -0.0710546532   0.1085624797   0.0944184976
        0.2766594313  -0.0015879601  -0.0511630956   0.0081190508  -0.1239314159
        0.0305941686  -0.2137238288
       -0.0372647671  -0.0050609071   0.0339812032  -0.0355473791  -0.0285913184
       -0.0015879601   0.0425907785   0.0126246699  -0.0151849702   0.0302213676
        0.0210275556  -0.0172082729
       -0.0261463960   0.0019261028   0.0791387769  -0.0444688411  -0.2788073235
       -0.0511630956   0.0126246699   0.3382269794  -0.1010915908   0.0579905671
       -0.0613457587   0.0731159095
        0.0485875259   0.0044639864  -0.2708944528   0.0142946468   0.0245327250
        0.0081190508  -0.0151849702  -0.1010915908   0.2981996273  -0.0476972025
        0.0720948794  -0.0354242253
       -0.1082998868   0.1180326226   0.0560614731  -0.1000925601  -0.0346612035
       -0.1239314159   0.0302213676   0.0579905671  -0.0476972025   0.1781710793
       -0.1413619863   0.1155671452
        0.1097158963  -0.1995463306  -0.0673877146   0.0106185344   0.0075858015
        0.0305941686   0.0210275556  -0.0613457587   0.0720948794  -0.1413619863
        0.2533062877  -0.0353013333
        0.0062736880  -0.0066760406   0.0016033064  -0.1046325604  -0.0311385355
       -0.2137238288  -0.0172082729   0.0731159095  -0.0354242253   0.1155671452
       -0.0353013333   0.2475447477
