4
 energy: -7.954462640375 gnorm: 0.032981621671 xtb: 6.2.2 (9d81278992624c895f80dd42a50cac0aa55982e2)
C        -0.52808200000000    0.35431400000000    0.67467000000000
C        -0.49579800000000   -0.60882000000000   -0.49306000000000
C         0.29144500000000    0.68292100000000   -0.55522000000000
C         0.73243500000000   -0.42841500000000    0.37360900000000
4
 energy: -7.954969264232 gnorm: 0.017227317531 xtb: 6.2.2 (9d81278992624c895f80dd42a50cac0aa55982e2)
C        -0.53105262292749    0.35639756758318    0.67863514896214
C        -0.49860012201446   -0.61233894159618   -0.49600022826758
C         0.29303747379988    0.68687938967502   -0.55848966601610
C         0.73661527114206   -0.43093801566201    0.37585374532155
4
 energy: -7.955495231525 gnorm: 0.057873453320 xtb: 6.2.2 (9d81278992624c895f80dd42a50cac0aa55982e2)
C        -0.53225826423342    0.35954383518787    0.68452833168067
C        -0.50007890686121   -0.61615348384937   -0.50141448179419
C         0.29248742111098    0.69143148033816   -0.56349667852246
C         0.73984974998365   -0.43482183167666    0.38038182863598
4
 energy: -7.973435069018 gnorm: 0.216411027618 xtb: 6.2.2 (9d81278992624c895f80dd42a50cac0aa55982e2)
C        -0.51084222581298    0.37077788100398    0.70153125042260
C        -0.48272157909385   -0.61775116171168   -0.52529128904709
C         0.26751442233484    0.69579303477439   -0.57870406881591
C         0.72604938257199   -0.44881975406670    0.40246310744040
4
 energy: -8.033899219833 gnorm: 0.153029979820 xtb: 6.2.2 (9d81278992624c895f80dd42a50cac0aa55982e2)
C        -0.43530311127577    0.38555428624231    0.74897633315973
C        -0.42874019115729   -0.60033339775773   -0.59570616495945
C         0.19068766097274    0.68666180707526   -0.62549939038644
C         0.67335564146032   -0.47188269555984    0.47222822218616
4
 energy: -8.070045357846 gnorm: 0.138883806650 xtb: 6.2.2 (9d81278992624c895f80dd42a50cac0aa55982e2)
C        -0.30940251194293    0.39341922016834    0.79865904367515
C        -0.33685728597001   -0.55405822575602   -0.68401758953532
C         0.07126620654829    0.65037270872505   -0.67845455975822
C         0.57499359136464   -0.48973370313738    0.56381210561839
4
 energy: -8.082041874652 gnorm: 0.055720349996 xtb: 6.2.2 (9d81278992624c895f80dd42a50cac0aa55982e2)
C        -0.29386621005861    0.43694189432973    0.82614217178737
C        -0.31309226728946   -0.58781668262436   -0.71846454506715
C         0.03725316222354    0.68785363771218   -0.69661219194661
C         0.56970531512453   -0.53697884941754    0.58893356522640
4
 energy: -8.097091937397 gnorm: 0.116508958404 xtb: 6.2.2 (9d81278992624c895f80dd42a50cac0aa55982e2)
C        -0.25910981185106    0.48405951683053    0.83045706336036
C        -0.26422857422959   -0.61414930046825   -0.73760261887092
C        -0.01450156272094    0.71524049180224   -0.69234773650412
C         0.53783994880159   -0.58515070816451    0.59949229201467
4
 energy: -8.112711136584 gnorm: 0.106543267063 xtb: 6.2.2 (9d81278992624c895f80dd42a50cac0aa55982e2)
C        -0.23983608884635    0.53815520839833    0.80615227318450
C        -0.21575865251143   -0.65140663703493   -0.72531479692184
C        -0.05386232883744    0.74919432767608   -0.65790322752446
C         0.50945707019523   -0.63594289903948    0.57706475126180
4
 energy: -8.119326647963 gnorm: 0.047982562280 xtb: 6.2.2 (9d81278992624c895f80dd42a50cac0aa55982e2)
C        -0.24006020783889    0.56423583421928    0.74557645669079
C        -0.18445482796691   -0.66976070522019   -0.67027378236481
C        -0.06184120740267    0.75907665131711   -0.59318482109777
C         0.48635624320847   -0.65355178031621    0.51788114677179
4
 energy: -8.121792352911 gnorm: 0.031560654349 xtb: 6.2.2 (9d81278992624c895f80dd42a50cac0aa55982e2)
C        -0.22104918826341    0.56038512042413    0.77079118239163
C        -0.17861822398380   -0.65973300956960   -0.69989495513359
C        -0.07858947796626    0.75300616378734   -0.61954197370718
C         0.47825689021347   -0.65365827464187    0.54864474644913
4
 energy: -8.122310039314 gnorm: 0.015837685151 xtb: 6.2.2 (9d81278992624c895f80dd42a50cac0aa55982e2)
C        -0.21336259996619    0.56070321420585    0.76888532136512
C        -0.17148614517165   -0.65636643251216   -0.70062343331480
C        -0.08556729394455    0.74957964968589   -0.61799333772698
C         0.47041603908238   -0.65391643137959    0.54973044967666
4
 energy: -8.122483672781 gnorm: 0.000507599432 xtb: 6.2.2 (9d81278992624c895f80dd42a50cac0aa55982e2)
C        -0.20596430843180    0.55984994686716    0.76755632397618
C        -0.16531035316500   -0.65213761690706   -0.70170592996684
C        -0.09181193739377    0.74537268491049   -0.61724591393777
C         0.46308659899057   -0.65308501487059    0.55139451992842
4
 energy: -8.122483943526 gnorm: 0.000242203340 xtb: 6.2.2 (9d81278992624c895f80dd42a50cac0aa55982e2)
C        -0.20538790104534    0.56022478463666    0.76782610816037
C        -0.16474719262134   -0.65222898085924   -0.70217615495730
C        -0.09250580063316    0.74551161830602   -0.61745558308567
C         0.46264089429985   -0.65350742208343    0.55180462988260
