4
 energy: -10.199934618592 gnorm: 0.000372366825 xtb: 6.2.2 (9d81278992624c895f80dd42a50cac0aa55982e2)
O         1.52797432145434   -0.03781433309051    0.01706418862473
C         0.35274776552130   -0.00872593527555    0.00369409275197
C        -0.95673147718603   -0.64041349594232   -0.01498761236291
C        -0.92399060978961    0.68695376430837   -0.00577066901379
