 Entering Gaussian System, Link 0=g16
 Input=C4H3_s1_2X.com
 Output=C4H3_s1_2X.log
 Initial command:
 /home/spantaleone/g16/l1.exe "/scratch/cnt0027/pag0797/spantaleone/GAUSSIAN/gauss_scratch/Gau-48153.inp" -scrdir="/scratch/cnt0027/pag0797/spantaleone/GAUSSIAN/gauss_scratch/"
 Entering Link 1 = /home/spantaleone/g16/l1.exe PID=     48154.
  
 Copyright (c) 1988-2017, Gaussian, Inc.  All Rights Reserved.
  
 This is part of the Gaussian(R) 16 program.  It is based on
 the Gaussian(R) 09 system (copyright 2009, Gaussian, Inc.),
 the Gaussian(R) 03 system (copyright 2003, Gaussian, Inc.),
 the Gaussian(R) 98 system (copyright 1998, Gaussian, Inc.),
 the Gaussian(R) 94 system (copyright 1995, Gaussian, Inc.),
 the Gaussian 92(TM) system (copyright 1992, Gaussian, Inc.),
 the Gaussian 90(TM) system (copyright 1990, Gaussian, Inc.),
 the Gaussian 88(TM) system (copyright 1988, Gaussian, Inc.),
 the Gaussian 86(TM) system (copyright 1986, Carnegie Mellon
 University), and the Gaussian 82(TM) system (copyright 1983,
 Carnegie Mellon University). Gaussian is a federally registered
 trademark of Gaussian, Inc.
  
 This software contains proprietary and confidential information,
 including trade secrets, belonging to Gaussian, Inc.
  
 This software is provided under written license and may be
 used, copied, transmitted, or stored only in accord with that
 written license.
  
 The following legend is applicable only to US Government
 contracts under FAR:
  
                    RESTRICTED RIGHTS LEGEND
  
 Use, reproduction and disclosure by the US Government is
 subject to restrictions as set forth in subparagraphs (a)
 and (c) of the Commercial Computer Software - Restricted
 Rights clause in FAR 52.227-19.
  
 Gaussian, Inc.
 340 Quinnipiac St., Bldg. 40, Wallingford CT 06492
  
  
 ---------------------------------------------------------------
 Warning -- This program may not be used in any manner that
 competes with the business of Gaussian, Inc. or will provide
 assistance to any competitor of Gaussian, Inc.  The licensee
 of this program is prohibited from giving any competitor of
 Gaussian, Inc. access to this program.  By using this program,
 the user acknowledges that Gaussian, Inc. is engaged in the
 business of creating and licensing software in the field of
 computational chemistry and represents and warrants to the
 licensee that it is not a competitor of Gaussian, Inc. and that
 it will not use this program in any manner prohibited above.
 ---------------------------------------------------------------
  

 Cite this work as:
 Gaussian 16, Revision B.01,
 M. J. Frisch, G. W. Trucks, H. B. Schlegel, G. E. Scuseria, 
 M. A. Robb, J. R. Cheeseman, G. Scalmani, V. Barone, 
 G. A. Petersson, H. Nakatsuji, X. Li, M. Caricato, A. V. Marenich, 
 J. Bloino, B. G. Janesko, R. Gomperts, B. Mennucci, H. P. Hratchian, 
 J. V. Ortiz, A. F. Izmaylov, J. L. Sonnenberg, D. Williams-Young, 
 F. Ding, F. Lipparini, F. Egidi, J. Goings, B. Peng, A. Petrone, 
 T. Henderson, D. Ranasinghe, V. G. Zakrzewski, J. Gao, N. Rega, 
 G. Zheng, W. Liang, M. Hada, M. Ehara, K. Toyota, R. Fukuda, 
 J. Hasegawa, M. Ishida, T. Nakajima, Y. Honda, O. Kitao, H. Nakai, 
 T. Vreven, K. Throssell, J. A. Montgomery, Jr., J. E. Peralta, 
 F. Ogliaro, M. J. Bearpark, J. J. Heyd, E. N. Brothers, K. N. Kudin, 
 V. N. Staroverov, T. A. Keith, R. Kobayashi, J. Normand, 
 K. Raghavachari, A. P. Rendell, J. C. Burant, S. S. Iyengar, 
 J. Tomasi, M. Cossi, J. M. Millam, M. Klene, C. Adamo, R. Cammi, 
 J. W. Ochterski, R. L. Martin, K. Morokuma, O. Farkas, 
 J. B. Foresman, and D. J. Fox, Gaussian, Inc., Wallingford CT, 2016.
 
 ******************************************
 Gaussian 16:  ES64L-G16RevB.01 20-Dec-2017
                12-Oct-2020 
 ******************************************
 %nosave
 %nproc=8
 Will use up to    8 processors via shared memory.
 %mem=2gb
 %chk=input
 ----------------------------------------------------------------
 #P M062X/cc-pvtz nosymm opt(noeigentest) optcyc=120 freq scf=xqc
 ----------------------------------------------------------------
 1/6=120,11=1,18=20,19=15,26=3,38=1/1,3;
 2/9=110,12=2,15=1,17=6,18=5,40=1/2;
 3/5=16,6=1,11=2,25=1,30=1,71=1,74=-55/1,2,3;
 4//1;
 5/5=2,8=3,13=1,38=5/2,8;
 6/7=2,8=2,9=2,10=2,28=1/1;
 7/30=1/1,2,3,16;
 1/6=120,11=1,18=20,19=15,26=3/3(2);
 2/9=110,15=1/2;
 99//99;
 2/9=110,15=1/2;
 3/5=16,6=1,11=2,25=1,30=1,71=1,74=-55/1,2,3;
 4/5=5,16=3,69=1/1;
 5/5=2,8=3,13=1,38=5/2,8;
 7/30=1/1,2,3,16;
 1/6=120,11=1,18=20,19=15,26=3/3(-5);
 2/9=110,15=1/2;
 6/7=2,8=2,9=2,10=2,19=2,28=1/1;
 99/9=1/99;
 Leave Link    1 at Mon Oct 12 17:22:16 2020, MaxMem=   268435456 cpu:               0.4 elap:               0.1
 (Enter /home/spantaleone/g16/l101.exe)
 -----
 Title
 -----
 Symbolic Z-matrix:
 Charge =  0 Multiplicity = 2
 C
 C                    1    B1
 C                    2    B2       1    A2
 H                    1    B3       2    A3       3    D3       0
 H                    1    B4       2    A4       3    D4       0
 H                    2    B5       1    A5       3    D5       0
 C                    1    B6       2    A6       3    D6       0
       Variables:
  B1                    2.41585                  
  B2                    1.20558                  
  A2                  151.87972                  
  B3                    1.08644                  
  A3                   90.50801                  
  D3                    0.                       
  B4                    1.08435                  
  A4                  150.27912                  
  D4                  180.                       
  B5                    2.26389                  
  A5                  151.87752                  
  D5                    0.                       
  B6                    1.33238                  
  A6                   30.69985                  
  D6                  180.                       
 
 Add atom      1 valence  3 ND=      2 dihedral       4      1      5      7
 ITRead=  0  0  0  0  0  0  0
 MicOpt= -1 -1 -1 -1 -1 -1 -1
 NAtoms=      7 NQM=        7 NQMF=       0 NMMI=      0 NMMIF=      0
                NMic=       0 NMicF=      0.
                    Isotopes and Nuclear Properties:
 (Nuclear quadrupole moments (NQMom) in fm**2, nuclear magnetic moments (NMagM)
  in nuclear magnetons)

  Atom         1           2           3           4           5           6           7
 IAtWgt=          12          12          12           1           1           1          12
 AtmWgt=  12.0000000  12.0000000  12.0000000   1.0078250   1.0078250   1.0078250  12.0000000
 NucSpn=           0           0           0           1           1           1           0
 AtZEff=  -0.0000000  -0.0000000  -0.0000000  -0.0000000  -0.0000000  -0.0000000  -0.0000000
 NQMom=    0.0000000   0.0000000   0.0000000   0.0000000   0.0000000   0.0000000   0.0000000
 NMagM=    0.0000000   0.0000000   0.0000000   2.7928460   2.7928460   2.7928460   0.0000000
 AtZNuc=   6.0000000   6.0000000   6.0000000   1.0000000   1.0000000   1.0000000   6.0000000
 Leave Link  101 at Mon Oct 12 17:22:17 2020, MaxMem=   268435456 cpu:               2.0 elap:               0.3
 (Enter /home/spantaleone/g16/l103.exe)

 GradGradGradGradGradGradGradGradGradGradGradGradGradGradGradGradGradGrad
 Berny optimization.
 Initialization pass.
                           ----------------------------
                           !    Initial Parameters    !
                           ! (Angstroms and Degrees)  !
 --------------------------                            --------------------------
 ! Name  Definition              Value          Derivative Info.                !
 --------------------------------------------------------------------------------
 ! R1    R(1,4)                  1.0864         estimate D2E/DX2                !
 ! R2    R(1,5)                  1.0844         estimate D2E/DX2                !
 ! R3    R(1,7)                  1.3324         estimate D2E/DX2                !
 ! R4    R(2,3)                  1.2056         estimate D2E/DX2                !
 ! R5    R(2,7)                  1.4409         estimate D2E/DX2                !
 ! R6    R(3,6)                  1.0583         estimate D2E/DX2                !
 ! A1    A(4,1,5)              119.2129         estimate D2E/DX2                !
 ! A2    A(4,1,7)              121.2079         estimate D2E/DX2                !
 ! A3    A(5,1,7)              119.5793         estimate D2E/DX2                !
 ! A4    A(1,7,2)              121.1296         estimate D2E/DX2                !
 ! A5    L(3,2,7,4,-1)         180.0503         estimate D2E/DX2                !
 ! A6    L(2,3,6,4,-1)         179.9953         estimate D2E/DX2                !
 ! A7    L(3,2,7,4,-2)         180.0            estimate D2E/DX2                !
 ! A8    L(2,3,6,4,-2)         180.0            estimate D2E/DX2                !
 ! D1    D(4,1,5,7)            180.0            estimate D2E/DX2                !
 ! D2    D(4,1,7,2)              0.0            estimate D2E/DX2                !
 ! D3    D(5,1,7,2)            180.0            estimate D2E/DX2                !
 --------------------------------------------------------------------------------
 Trust Radius=3.00D-01 FncErr=1.00D-07 GrdErr=1.00D-06 EigMax=2.50D+02 EigMin=1.00D-04
 Number of steps in this run=    100 maximum allowed number of steps=    100.
 GradGradGradGradGradGradGradGradGradGradGradGradGradGradGradGradGradGrad

 Leave Link  103 at Mon Oct 12 17:22:17 2020, MaxMem=   268435456 cpu:               0.1 elap:               0.0
 (Enter /home/spantaleone/g16/l202.exe)
                          Input orientation:                          
 ---------------------------------------------------------------------
 Center     Atomic      Atomic             Coordinates (Angstroms)
 Number     Number       Type             X           Y           Z
 ---------------------------------------------------------------------
      1          6           0        0.000000    0.000000    0.000000
      2          6           0        0.000000    0.000000    2.415850
      3          6           0        0.568219    0.000000    3.479123
      4          1           0        1.086397    0.000000   -0.009633
      5          1           0       -0.537594    0.000000   -0.941705
      6          1           0        1.067103    0.000000    4.412470
      7          6           0       -0.680234    0.000000    1.145652
 ---------------------------------------------------------------------
                    Distance matrix (angstroms):
                    1          2          3          4          5
     1  C    0.000000
     2  C    2.415850   0.000000
     3  C    3.525220   1.205580   0.000000
     4  H    1.086440   2.657673   3.527028   0.000000
     5  H    1.084350   3.400321   4.557032   1.872460   0.000000
     6  H    4.539669   2.263890   1.058310   4.422144   5.589475
     7  C    1.332380   1.440875   2.646455   2.110846   2.092224
                    6          7
     6  H    0.000000
     7  C    3.704765   0.000000
 Symmetry turned off by external request.
 Stoichiometry    C4H3(2)
 Framework group  CS[SG(C4H3)]
 Deg. of freedom    11
 Full point group                 CS      NOp   2
 Rotational constants (GHZ):          62.6325205           4.8664663           4.5156093
 Leave Link  202 at Mon Oct 12 17:22:17 2020, MaxMem=   268435456 cpu:               0.1 elap:               0.0
 (Enter /home/spantaleone/g16/l301.exe)
 Standard basis: CC-pVTZ (5D, 7F)
 Ernie: Thresh=  0.10000D-02 Tol=  0.10000D-05 Strict=F.
 Ernie:  12 primitive shells out of 128 were deleted.
   162 basis functions,   259 primitive gaussians,   185 cartesian basis functions
    14 alpha electrons       13 beta electrons
       nuclear repulsion energy        82.8629062153 Hartrees.
 IExCor= 4336 DFT=T Ex+Corr=M062X ExCW=0 ScaHFX=  0.540000
 ScaDFX=  1.000000  1.000000  1.000000  1.000000 ScalE2=  1.000000  1.000000
 IRadAn=      5 IRanWt=     -1 IRanGd=            0 ICorTp=0 IEmpDi=  4
 NAtoms=    7 NActive=    7 NUniq=    7 SFac= 1.00D+00 NAtFMM=   60 NAOKFM=F Big=F
 Integral buffers will be    131072 words long.
 Raffenetti 2 integral format.
 Two-electron integral symmetry is turned off.
 Leave Link  301 at Mon Oct 12 17:22:17 2020, MaxMem=   268435456 cpu:               0.5 elap:               0.1
 (Enter /home/spantaleone/g16/l302.exe)
 NPDir=0 NMtPBC=     1 NCelOv=     1 NCel=       1 NClECP=     1 NCelD=      1
         NCelK=      1 NCelE2=     1 NClLst=     1 CellRange=     0.0.
 One-electron integrals computed using PRISM.
 NBasis=   162 RedAO= T EigKep=  5.40D-05  NBF=   162
 NBsUse=   162 1.00D-06 EigRej= -1.00D+00 NBFU=   162
 Precomputing XC quadrature grid using
 IXCGrd= 4 IRadAn=           5 IRanWt=          -1 IRanGd=           0 AccXCQ= 0.00D+00.
 Generated NRdTot=       0 NPtTot=           0 NUsed=           0 NTot=          32
 NSgBfM=   185   185   185   185   185 MxSgAt=     7 MxSgA2=     7.
 Leave Link  302 at Mon Oct 12 17:22:17 2020, MaxMem=   268435456 cpu:               1.6 elap:               0.2
 (Enter /home/spantaleone/g16/l303.exe)
 DipDrv:  MaxL=1.
 Leave Link  303 at Mon Oct 12 17:22:17 2020, MaxMem=   268435456 cpu:               0.4 elap:               0.1
 (Enter /home/spantaleone/g16/l401.exe)
 ExpMin= 1.03D-01 ExpMax= 8.24D+03 ExpMxC= 2.81D+02 IAcc=3 IRadAn=         5 AccDes= 0.00D+00
 Harris functional with IExCor= 1009 and IRadAn=       5 diagonalized for initial guess.
 HarFok:  IExCor= 1009 AccDes= 0.00D+00 IRadAn=         5 IDoV= 1 UseB2=F ITyADJ=14
 ICtDFT=  3500011 ScaDFX=  1.000000  1.000000  1.000000  1.000000
 FoFCou: FMM=F IPFlag=           0 FMFlag=      100000 FMFlg1=           0
         NFxFlg=           0 DoJE=T BraDBF=F KetDBF=T FulRan=T
         wScrn=  0.000000 ICntrl=       500 IOpCl=  0 I1Cent=   200000004 NGrid=           0
         NMat0=    1 NMatS0=      1 NMatT0=    0 NMatD0=    1 NMtDS0=    0 NMtDT0=    0
 Symmetry not used in FoFCou.
 Harris En= -153.978713694971    
 JPrj=0 DoOrth=F DoCkMO=F.
 Initial guess <Sx>= 0.0000 <Sy>= 0.0000 <Sz>= 0.5000 <S**2>= 0.7500 S= 0.5000
 Leave Link  401 at Mon Oct 12 17:22:18 2020, MaxMem=   268435456 cpu:               5.1 elap:               0.7
 (Enter /home/spantaleone/g16/l502.exe)
 Keep R1 and R2 ints in memory in canonical form, NReq=182448050.
 FoFCou: FMM=F IPFlag=           0 FMFlag=           0 FMFlg1=           0
         NFxFlg=           0 DoJE=F BraDBF=F KetDBF=F FulRan=T
         wScrn=  0.000000 ICntrl=       600 IOpCl=  0 I1Cent=           0 NGrid=           0
         NMat0=    1 NMatS0=  13203 NMatT0=    0 NMatD0=    1 NMtDS0=    0 NMtDT0=    0
 Symmetry not used in FoFCou.
 Two-electron integral symmetry not used.
 UHF open shell SCF:
 Using DIIS extrapolation, IDIIS=  1040.
 NGot=   268435456 LenX=    94031820 LenY=    93997154
 Requested convergence on RMS density matrix=1.00D-08 within  32 cycles.
 Requested convergence on MAX density matrix=1.00D-06.
 Requested convergence on             energy=1.00D-06.
 No special actions if energy rises.
 Integral accuracy reduced to 1.0D-05 until final iterations.

 Cycle   1  Pass 0  IDiag  1:
 E= -153.906675814737    
 DIIS: error= 3.30D-02 at cycle   1 NSaved=   1.
 NSaved= 1 IEnMin= 1 EnMin= -153.906675814737     IErMin= 1 ErrMin= 3.30D-02
 ErrMax= 3.30D-02  0.00D+00 EMaxC= 1.00D-01 BMatC= 5.66D-01 BMatP= 5.66D-01
 IDIUse=3 WtCom= 6.70D-01 WtEn= 3.30D-01
 Coeff-Com:  0.100D+01
 Coeff-En:   0.100D+01
 Coeff:      0.100D+01
 Gap=     0.357 Goal=   None    Shift=    0.000
 Gap=     0.179 Goal=   None    Shift=    0.000
 GapD=    0.179 DampG=1.000 DampE=0.500 DampFc=0.5000 IDamp=-1.
 Damping current iteration by 5.00D-01
 RMSDP=2.54D-03 MaxDP=4.40D-02              OVMax= 1.49D-01

 Cycle   2  Pass 0  IDiag  1:
 E= -153.973742362927     Delta-E=       -0.067066548190 Rises=F Damp=T
 DIIS: error= 7.08D-03 at cycle   2 NSaved=   2.
 NSaved= 2 IEnMin= 2 EnMin= -153.973742362927     IErMin= 2 ErrMin= 7.08D-03
 ErrMax= 7.08D-03  0.00D+00 EMaxC= 1.00D-01 BMatC= 4.19D-02 BMatP= 5.66D-01
 IDIUse=3 WtCom= 9.29D-01 WtEn= 7.08D-02
 Coeff-Com: -0.176D+00 0.118D+01
 Coeff-En:   0.000D+00 0.100D+01
 Coeff:     -0.164D+00 0.116D+01
 Gap=     0.315 Goal=   None    Shift=    0.000
 Gap=     0.236 Goal=   None    Shift=    0.000
 RMSDP=8.19D-04 MaxDP=1.91D-02 DE=-6.71D-02 OVMax= 9.25D-02

 Cycle   3  Pass 0  IDiag  1:
 E= -154.031284997573     Delta-E=       -0.057542634646 Rises=F Damp=F
 DIIS: error= 7.68D-03 at cycle   3 NSaved=   3.
 NSaved= 3 IEnMin= 3 EnMin= -154.031284997573     IErMin= 2 ErrMin= 7.08D-03
 ErrMax= 7.68D-03  0.00D+00 EMaxC= 1.00D-01 BMatC= 1.57D-02 BMatP= 4.19D-02
 IDIUse=3 WtCom= 9.23D-01 WtEn= 7.68D-02
 Coeff-Com: -0.114D+00 0.489D+00 0.626D+00
 Coeff-En:   0.000D+00 0.000D+00 0.100D+01
 Coeff:     -0.106D+00 0.451D+00 0.654D+00
 Gap=     0.308 Goal=   None    Shift=    0.000
 Gap=     0.224 Goal=   None    Shift=    0.000
 RMSDP=5.10D-04 MaxDP=1.91D-02 DE=-5.75D-02 OVMax= 3.61D-02

 Cycle   4  Pass 0  IDiag  1:
 E= -154.034665070175     Delta-E=       -0.003380072602 Rises=F Damp=F
 DIIS: error= 4.60D-03 at cycle   4 NSaved=   4.
 NSaved= 4 IEnMin= 4 EnMin= -154.034665070175     IErMin= 4 ErrMin= 4.60D-03
 ErrMax= 4.60D-03  0.00D+00 EMaxC= 1.00D-01 BMatC= 3.81D-03 BMatP= 1.57D-02
 IDIUse=3 WtCom= 9.54D-01 WtEn= 4.60D-02
 Coeff-Com: -0.218D-01 0.518D-01 0.338D+00 0.632D+00
 Coeff-En:   0.000D+00 0.000D+00 0.135D+00 0.865D+00
 Coeff:     -0.208D-01 0.494D-01 0.328D+00 0.643D+00
 Gap=     0.306 Goal=   None    Shift=    0.000
 Gap=     0.230 Goal=   None    Shift=    0.000
 RMSDP=1.29D-04 MaxDP=4.40D-03 DE=-3.38D-03 OVMax= 1.66D-02

 Cycle   5  Pass 0  IDiag  1:
 E= -154.035800340127     Delta-E=       -0.001135269952 Rises=F Damp=F
 DIIS: error= 1.56D-03 at cycle   5 NSaved=   5.
 NSaved= 5 IEnMin= 5 EnMin= -154.035800340127     IErMin= 5 ErrMin= 1.56D-03
 ErrMax= 1.56D-03  0.00D+00 EMaxC= 1.00D-01 BMatC= 5.26D-04 BMatP= 3.81D-03
 IDIUse=3 WtCom= 9.84D-01 WtEn= 1.56D-02
 Coeff-Com: -0.160D-02-0.146D-01 0.102D+00 0.324D+00 0.589D+00
 Coeff-En:   0.000D+00 0.000D+00 0.000D+00 0.000D+00 0.100D+01
 Coeff:     -0.158D-02-0.144D-01 0.101D+00 0.319D+00 0.596D+00
 Gap=     0.307 Goal=   None    Shift=    0.000
 Gap=     0.232 Goal=   None    Shift=    0.000
 RMSDP=7.40D-05 MaxDP=2.49D-03 DE=-1.14D-03 OVMax= 7.62D-03

 Cycle   6  Pass 0  IDiag  1:
 E= -154.036014128435     Delta-E=       -0.000213788308 Rises=F Damp=F
 DIIS: error= 9.32D-04 at cycle   6 NSaved=   6.
 NSaved= 6 IEnMin= 6 EnMin= -154.036014128435     IErMin= 6 ErrMin= 9.32D-04
 ErrMax= 9.32D-04  0.00D+00 EMaxC= 1.00D-01 BMatC= 1.19D-04 BMatP= 5.26D-04
 IDIUse=3 WtCom= 9.91D-01 WtEn= 9.32D-03
 Coeff-Com:  0.895D-02-0.262D-01-0.154D+00-0.234D+00 0.189D+00 0.122D+01
 Coeff-En:   0.000D+00 0.000D+00 0.000D+00 0.000D+00 0.000D+00 0.100D+01
 Coeff:      0.887D-02-0.259D-01-0.153D+00-0.231D+00 0.187D+00 0.121D+01
 Gap=     0.309 Goal=   None    Shift=    0.000
 Gap=     0.236 Goal=   None    Shift=    0.000
 RMSDP=1.08D-04 MaxDP=3.71D-03 DE=-2.14D-04 OVMax= 1.11D-02

 Cycle   7  Pass 0  IDiag  1:
 E= -154.036163823091     Delta-E=       -0.000149694655 Rises=F Damp=F
 DIIS: error= 5.93D-04 at cycle   7 NSaved=   7.
 NSaved= 7 IEnMin= 7 EnMin= -154.036163823091     IErMin= 7 ErrMin= 5.93D-04
 ErrMax= 5.93D-04  0.00D+00 EMaxC= 1.00D-01 BMatC= 2.50D-05 BMatP= 1.19D-04
 IDIUse=3 WtCom= 9.94D-01 WtEn= 5.93D-03
 Coeff-Com:  0.329D-02-0.789D-02-0.779D-01-0.144D+00-0.304D-01 0.475D+00
 Coeff-Com:  0.781D+00
 Coeff-En:   0.000D+00 0.000D+00 0.000D+00 0.000D+00 0.000D+00 0.000D+00
 Coeff-En:   0.100D+01
 Coeff:      0.327D-02-0.784D-02-0.775D-01-0.143D+00-0.302D-01 0.472D+00
 Coeff:      0.783D+00
 Gap=     0.309 Goal=   None    Shift=    0.000
 Gap=     0.236 Goal=   None    Shift=    0.000
 RMSDP=3.60D-05 MaxDP=1.10D-03 DE=-1.50D-04 OVMax= 5.10D-03

 Cycle   8  Pass 0  IDiag  1:
 E= -154.036190115354     Delta-E=       -0.000026292263 Rises=F Damp=F
 DIIS: error= 2.63D-04 at cycle   8 NSaved=   8.
 NSaved= 8 IEnMin= 8 EnMin= -154.036190115354     IErMin= 8 ErrMin= 2.63D-04
 ErrMax= 2.63D-04  0.00D+00 EMaxC= 1.00D-01 BMatC= 5.76D-06 BMatP= 2.50D-05
 IDIUse=3 WtCom= 9.97D-01 WtEn= 2.63D-03
 Coeff-Com: -0.243D-02 0.720D-02 0.278D-01 0.354D-01-0.565D-01-0.246D+00
 Coeff-Com:  0.181D+00 0.105D+01
 Coeff-En:   0.000D+00 0.000D+00 0.000D+00 0.000D+00 0.000D+00 0.000D+00
 Coeff-En:   0.000D+00 0.100D+01
 Coeff:     -0.242D-02 0.718D-02 0.278D-01 0.353D-01-0.564D-01-0.246D+00
 Coeff:      0.181D+00 0.105D+01
 Gap=     0.309 Goal=   None    Shift=    0.000
 Gap=     0.236 Goal=   None    Shift=    0.000
 RMSDP=2.00D-05 MaxDP=7.47D-04 DE=-2.63D-05 OVMax= 3.28D-03

 Cycle   9  Pass 0  IDiag  1:
 E= -154.036200097441     Delta-E=       -0.000009982088 Rises=F Damp=F
 DIIS: error= 1.32D-04 at cycle   9 NSaved=   9.
 NSaved= 9 IEnMin= 9 EnMin= -154.036200097441     IErMin= 9 ErrMin= 1.32D-04
 ErrMax= 1.32D-04  0.00D+00 EMaxC= 1.00D-01 BMatC= 1.29D-06 BMatP= 5.76D-06
 IDIUse=3 WtCom= 9.99D-01 WtEn= 1.32D-03
 Coeff-Com: -0.686D-03 0.189D-02 0.201D-01 0.357D-01-0.121D-02-0.135D+00
 Coeff-Com: -0.167D+00 0.589D-01 0.119D+01
 Coeff-En:   0.000D+00 0.000D+00 0.000D+00 0.000D+00 0.000D+00 0.000D+00
 Coeff-En:   0.000D+00 0.000D+00 0.100D+01
 Coeff:     -0.685D-03 0.189D-02 0.201D-01 0.357D-01-0.121D-02-0.135D+00
 Coeff:     -0.167D+00 0.588D-01 0.119D+01
 Gap=     0.310 Goal=   None    Shift=    0.000
 Gap=     0.236 Goal=   None    Shift=    0.000
 RMSDP=1.33D-05 MaxDP=4.96D-04 DE=-9.98D-06 OVMax= 2.38D-03

 Failed to achieve initial convergence to 1.0D-08 in 10 cycles.
 Switch to full accuracy anyway.
 Cycle  10  Pass 1  IDiag  1:
 E= -154.036230335124     Delta-E=       -0.000030237682 Rises=F Damp=F
 DIIS: error= 4.88D-05 at cycle   1 NSaved=   1.
 NSaved= 1 IEnMin= 1 EnMin= -154.036230335124     IErMin= 1 ErrMin= 4.88D-05
 ErrMax= 4.88D-05  0.00D+00 EMaxC= 1.00D-01 BMatC= 6.51D-07 BMatP= 6.51D-07
 IDIUse=1 WtCom= 1.00D+00 WtEn= 0.00D+00
 Coeff-Com:  0.100D+01
 Coeff:      0.100D+01
 Gap=     0.310 Goal=   None    Shift=    0.000
 Gap=     0.236 Goal=   None    Shift=    0.000
 RMSDP=1.33D-05 MaxDP=4.96D-04 DE=-3.02D-05 OVMax= 4.54D-04

 Cycle  11  Pass 1  IDiag  1:
 E= -154.036230743133     Delta-E=       -0.000000408009 Rises=F Damp=F
 DIIS: error= 3.50D-05 at cycle   2 NSaved=   2.
 NSaved= 2 IEnMin= 2 EnMin= -154.036230743133     IErMin= 2 ErrMin= 3.50D-05
 ErrMax= 3.50D-05  0.00D+00 EMaxC= 1.00D-01 BMatC= 1.17D-07 BMatP= 6.51D-07
 IDIUse=1 WtCom= 1.00D+00 WtEn= 0.00D+00
 Coeff-Com: -0.453D-01 0.105D+01
 Coeff:     -0.453D-01 0.105D+01
 Gap=     0.310 Goal=   None    Shift=    0.000
 Gap=     0.236 Goal=   None    Shift=    0.000
 RMSDP=2.33D-06 MaxDP=7.16D-05 DE=-4.08D-07 OVMax= 3.43D-04

 Cycle  12  Pass 1  IDiag  1:
 E= -154.036230912930     Delta-E=       -0.000000169798 Rises=F Damp=F
 DIIS: error= 2.88D-05 at cycle   3 NSaved=   3.
 NSaved= 3 IEnMin= 3 EnMin= -154.036230912930     IErMin= 3 ErrMin= 2.88D-05
 ErrMax= 2.88D-05  0.00D+00 EMaxC= 1.00D-01 BMatC= 6.31D-08 BMatP= 1.17D-07
 IDIUse=1 WtCom= 1.00D+00 WtEn= 0.00D+00
 Coeff-Com: -0.144D+00 0.237D+00 0.907D+00
 Coeff:     -0.144D+00 0.237D+00 0.907D+00
 Gap=     0.310 Goal=   None    Shift=    0.000
 Gap=     0.236 Goal=   None    Shift=    0.000
 RMSDP=1.68D-06 MaxDP=5.26D-05 DE=-1.70D-07 OVMax= 2.67D-04

 Cycle  13  Pass 1  IDiag  1:
 E= -154.036230999804     Delta-E=       -0.000000086874 Rises=F Damp=F
 DIIS: error= 1.95D-05 at cycle   4 NSaved=   4.
 NSaved= 4 IEnMin= 4 EnMin= -154.036230999804     IErMin= 4 ErrMin= 1.95D-05
 ErrMax= 1.95D-05  0.00D+00 EMaxC= 1.00D-01 BMatC= 2.51D-08 BMatP= 6.31D-08
 IDIUse=1 WtCom= 1.00D+00 WtEn= 0.00D+00
 Coeff-Com:  0.842D-02-0.571D+00 0.117D+00 0.145D+01
 Coeff:      0.842D-02-0.571D+00 0.117D+00 0.145D+01
 Gap=     0.310 Goal=   None    Shift=    0.000
 Gap=     0.236 Goal=   None    Shift=    0.000
 RMSDP=2.30D-06 MaxDP=7.55D-05 DE=-8.69D-08 OVMax= 3.66D-04

 Cycle  14  Pass 1  IDiag  1:
 E= -154.036231065317     Delta-E=       -0.000000065513 Rises=F Damp=F
 DIIS: error= 9.44D-06 at cycle   5 NSaved=   5.
 NSaved= 5 IEnMin= 5 EnMin= -154.036231065317     IErMin= 5 ErrMin= 9.44D-06
 ErrMax= 9.44D-06  0.00D+00 EMaxC= 1.00D-01 BMatC= 6.51D-09 BMatP= 2.51D-08
 IDIUse=1 WtCom= 1.00D+00 WtEn= 0.00D+00
 Coeff-Com:  0.303D-01-0.297D+00-0.132D+00 0.634D+00 0.764D+00
 Coeff:      0.303D-01-0.297D+00-0.132D+00 0.634D+00 0.764D+00
 Gap=     0.310 Goal=   None    Shift=    0.000
 Gap=     0.236 Goal=   None    Shift=    0.000
 RMSDP=7.29D-07 MaxDP=2.39D-05 DE=-6.55D-08 OVMax= 1.26D-04

 Cycle  15  Pass 1  IDiag  1:
 E= -154.036231073085     Delta-E=       -0.000000007768 Rises=F Damp=F
 DIIS: error= 4.03D-06 at cycle   6 NSaved=   6.
 NSaved= 6 IEnMin= 6 EnMin= -154.036231073085     IErMin= 6 ErrMin= 4.03D-06
 ErrMax= 4.03D-06  0.00D+00 EMaxC= 1.00D-01 BMatC= 2.18D-09 BMatP= 6.51D-09
 IDIUse=1 WtCom= 1.00D+00 WtEn= 0.00D+00
 Coeff-Com:  0.142D-01-0.247D-01-0.951D-01-0.633D-02 0.404D+00 0.708D+00
 Coeff:      0.142D-01-0.247D-01-0.951D-01-0.633D-02 0.404D+00 0.708D+00
 Gap=     0.310 Goal=   None    Shift=    0.000
 Gap=     0.236 Goal=   None    Shift=    0.000
 RMSDP=2.79D-07 MaxDP=7.91D-06 DE=-7.77D-09 OVMax= 4.34D-05

 Cycle  16  Pass 1  IDiag  1:
 E= -154.036231074633     Delta-E=       -0.000000001548 Rises=F Damp=F
 DIIS: error= 1.76D-06 at cycle   7 NSaved=   7.
 NSaved= 7 IEnMin= 7 EnMin= -154.036231074633     IErMin= 7 ErrMin= 1.76D-06
 ErrMax= 1.76D-06  0.00D+00 EMaxC= 1.00D-01 BMatC= 4.83D-10 BMatP= 2.18D-09
 IDIUse=1 WtCom= 1.00D+00 WtEn= 0.00D+00
 Coeff-Com: -0.806D-02 0.120D+00 0.261D-01-0.294D+00-0.139D+00 0.284D+00
 Coeff-Com:  0.101D+01
 Coeff:     -0.806D-02 0.120D+00 0.261D-01-0.294D+00-0.139D+00 0.284D+00
 Coeff:      0.101D+01
 Gap=     0.310 Goal=   None    Shift=    0.000
 Gap=     0.236 Goal=   None    Shift=    0.000
 RMSDP=1.99D-07 MaxDP=5.70D-06 DE=-1.55D-09 OVMax= 2.37D-05

 Cycle  17  Pass 1  IDiag  1:
 E= -154.036231075061     Delta-E=       -0.000000000429 Rises=F Damp=F
 DIIS: error= 9.02D-07 at cycle   8 NSaved=   8.
 NSaved= 8 IEnMin= 8 EnMin= -154.036231075061     IErMin= 8 ErrMin= 9.02D-07
 ErrMax= 9.02D-07  0.00D+00 EMaxC= 1.00D-01 BMatC= 1.19D-10 BMatP= 4.83D-10
 IDIUse=1 WtCom= 1.00D+00 WtEn= 0.00D+00
 Coeff-Com: -0.620D-02 0.675D-01 0.321D-01-0.157D+00-0.136D+00 0.300D-01
 Coeff-Com:  0.529D+00 0.641D+00
 Coeff:     -0.620D-02 0.675D-01 0.321D-01-0.157D+00-0.136D+00 0.300D-01
 Coeff:      0.529D+00 0.641D+00
 Gap=     0.310 Goal=   None    Shift=    0.000
 Gap=     0.236 Goal=   None    Shift=    0.000
 RMSDP=6.52D-08 MaxDP=2.45D-06 DE=-4.29D-10 OVMax= 4.42D-06

 Cycle  18  Pass 1  IDiag  1:
 E= -154.036231075111     Delta-E=       -0.000000000050 Rises=F Damp=F
 DIIS: error= 2.59D-07 at cycle   9 NSaved=   9.
 NSaved= 9 IEnMin= 9 EnMin= -154.036231075111     IErMin= 9 ErrMin= 2.59D-07
 ErrMax= 2.59D-07  0.00D+00 EMaxC= 1.00D-01 BMatC= 9.69D-12 BMatP= 1.19D-10
 IDIUse=1 WtCom= 1.00D+00 WtEn= 0.00D+00
 Coeff-Com:  0.721D-04-0.880D-02 0.364D-02 0.225D-01-0.359D-02-0.576D-01
 Coeff-Com: -0.825D-01 0.192D+00 0.935D+00
 Coeff:      0.721D-04-0.880D-02 0.364D-02 0.225D-01-0.359D-02-0.576D-01
 Coeff:     -0.825D-01 0.192D+00 0.935D+00
 Gap=     0.310 Goal=   None    Shift=    0.000
 Gap=     0.236 Goal=   None    Shift=    0.000
 RMSDP=2.09D-08 MaxDP=6.63D-07 DE=-4.97D-11 OVMax= 1.67D-06

 Cycle  19  Pass 1  IDiag  1:
 E= -154.036231075115     Delta-E=       -0.000000000004 Rises=F Damp=F
 DIIS: error= 8.30D-08 at cycle  10 NSaved=  10.
 NSaved=10 IEnMin=10 EnMin= -154.036231075115     IErMin=10 ErrMin= 8.30D-08
 ErrMax= 8.30D-08  0.00D+00 EMaxC= 1.00D-01 BMatC= 7.28D-13 BMatP= 9.69D-12
 IDIUse=1 WtCom= 1.00D+00 WtEn= 0.00D+00
 Coeff-Com:  0.459D-03-0.632D-02-0.220D-02 0.159D-01 0.803D-02-0.919D-02
 Coeff-Com: -0.507D-01-0.155D-01 0.122D+00 0.938D+00
 Coeff:      0.459D-03-0.632D-02-0.220D-02 0.159D-01 0.803D-02-0.919D-02
 Coeff:     -0.507D-01-0.155D-01 0.122D+00 0.938D+00
 Gap=     0.310 Goal=   None    Shift=    0.000
 Gap=     0.236 Goal=   None    Shift=    0.000
 RMSDP=5.47D-09 MaxDP=1.89D-07 DE=-4.26D-12 OVMax= 5.82D-07

 SCF Done:  E(UM062X) =  -154.036231075     A.U. after   19 cycles
            NFock= 19  Conv=0.55D-08     -V/T= 2.0067
 <Sx>= 0.0000 <Sy>= 0.0000 <Sz>= 0.5000 <S**2>= 0.7754 S= 0.5126
 <L.S>= 0.000000000000E+00
 KE= 1.530135511605D+02 PE=-5.225576088365D+02 EE= 1.326449203856D+02
 Annihilation of the first spin contaminant:
 S**2 before annihilation     0.7754,   after     0.7504
 Leave Link  502 at Mon Oct 12 17:22:46 2020, MaxMem=   268435456 cpu:             196.5 elap:              28.6
 (Enter /home/spantaleone/g16/l508.exe)
 QCSCF skips out because SCF is already converged.
 Leave Link  508 at Mon Oct 12 17:22:47 2020, MaxMem=   268435456 cpu:               0.0 elap:               0.0
 (Enter /home/spantaleone/g16/l601.exe)
 Copying SCF densities to generalized density rwf, IOpCl= 1 IROHF=0.

 **********************************************************************

            Population analysis using the SCF Density.

 **********************************************************************

 Alpha  occ. eigenvalues --  -10.60298 -10.56214 -10.56069 -10.55378  -0.91563
 Alpha  occ. eigenvalues --   -0.84345  -0.70340  -0.60757  -0.55345  -0.51231
 Alpha  occ. eigenvalues --   -0.41981  -0.39353  -0.31805  -0.31549
 Alpha virt. eigenvalues --   -0.00585   0.07659   0.08902   0.11530   0.13518
 Alpha virt. eigenvalues --    0.13892   0.18892   0.24073   0.30313   0.31330
 Alpha virt. eigenvalues --    0.32114   0.32646   0.34388   0.37167   0.38411
 Alpha virt. eigenvalues --    0.42266   0.42511   0.47133   0.47560   0.48820
 Alpha virt. eigenvalues --    0.51392   0.53371   0.57212   0.59348   0.62871
 Alpha virt. eigenvalues --    0.63087   0.65187   0.69672   0.74533   0.76132
 Alpha virt. eigenvalues --    0.77787   0.82111   0.88742   0.91401   0.92002
 Alpha virt. eigenvalues --    0.94185   0.95185   0.97421   0.99649   1.07155
 Alpha virt. eigenvalues --    1.07631   1.14631   1.19461   1.21615   1.21838
 Alpha virt. eigenvalues --    1.26089   1.30570   1.33754   1.37237   1.39340
 Alpha virt. eigenvalues --    1.46589   1.51390   1.51545   1.54319   1.60756
 Alpha virt. eigenvalues --    1.72354   1.99967   2.00947   2.08514   2.14712
 Alpha virt. eigenvalues --    2.16598   2.24103   2.26649   2.26864   2.37880
 Alpha virt. eigenvalues --    2.39523   2.42876   2.44563   2.46460   2.49047
 Alpha virt. eigenvalues --    2.53006   2.53509   2.54038   2.56322   2.61554
 Alpha virt. eigenvalues --    2.69490   2.69962   2.74196   2.75280   2.77716
 Alpha virt. eigenvalues --    2.78659   2.83841   2.84631   2.86499   2.90054
 Alpha virt. eigenvalues --    2.90331   2.91947   2.92402   2.93559   2.94936
 Alpha virt. eigenvalues --    3.00585   3.02824   3.05200   3.06027   3.07914
 Alpha virt. eigenvalues --    3.10257   3.12509   3.12958   3.15936   3.18607
 Alpha virt. eigenvalues --    3.24599   3.25452   3.29886   3.38491   3.39354
 Alpha virt. eigenvalues --    3.43984   3.47382   3.48371   3.56343   3.56543
 Alpha virt. eigenvalues --    3.64579   3.73127   3.78315   3.82688   3.85770
 Alpha virt. eigenvalues --    3.88591   3.91979   3.96054   3.98759   4.04356
 Alpha virt. eigenvalues --    4.08957   4.11833   4.18917   4.21851   4.23347
 Alpha virt. eigenvalues --    4.37787   4.44792   4.52168   4.64615   4.75314
 Alpha virt. eigenvalues --    4.81824   4.82751   4.93290   4.93778   5.09712
 Alpha virt. eigenvalues --    5.10365   5.27247   5.54273   5.61952   5.66396
 Alpha virt. eigenvalues --    5.74790   5.85837   5.94120   6.14046   7.96563
 Alpha virt. eigenvalues --   10.35007  13.52784  16.46526
  Beta  occ. eigenvalues --  -10.59238 -10.56242 -10.56135 -10.55216  -0.89925
  Beta  occ. eigenvalues --   -0.83523  -0.68904  -0.59954  -0.53405  -0.49722
  Beta  occ. eigenvalues --   -0.40668  -0.36239  -0.31119
  Beta virt. eigenvalues --   -0.07473   0.00250   0.07787   0.08897   0.11610
  Beta virt. eigenvalues --    0.12724   0.14994   0.18026   0.23561   0.29765
  Beta virt. eigenvalues --    0.30957   0.31186   0.32225   0.34279   0.36611
  Beta virt. eigenvalues --    0.37120   0.41625   0.42408   0.46958   0.47163
  Beta virt. eigenvalues --    0.47353   0.50810   0.53552   0.57375   0.59251
  Beta virt. eigenvalues --    0.62959   0.63076   0.65161   0.70009   0.75046
  Beta virt. eigenvalues --    0.76479   0.76825   0.81619   0.88439   0.90989
  Beta virt. eigenvalues --    0.91612   0.94115   0.95191   0.97768   0.99734
  Beta virt. eigenvalues --    1.07756   1.07884   1.15296   1.19374   1.21753
  Beta virt. eigenvalues --    1.21814   1.25869   1.30576   1.33361   1.37098
  Beta virt. eigenvalues --    1.39421   1.46376   1.49661   1.51700   1.54291
  Beta virt. eigenvalues --    1.59802   1.71419   2.00527   2.02070   2.09513
  Beta virt. eigenvalues --    2.13480   2.16680   2.24209   2.27313   2.27534
  Beta virt. eigenvalues --    2.38765   2.40226   2.43237   2.45477   2.46996
  Beta virt. eigenvalues --    2.49420   2.53472   2.53911   2.54065   2.56564
  Beta virt. eigenvalues --    2.62103   2.69690   2.71651   2.74754   2.75733
  Beta virt. eigenvalues --    2.78829   2.79627   2.84477   2.85753   2.87467
  Beta virt. eigenvalues --    2.90947   2.90996   2.92673   2.92782   2.94554
  Beta virt. eigenvalues --    2.95246   3.00759   3.02003   3.05157   3.07671
  Beta virt. eigenvalues --    3.09264   3.11574   3.12786   3.12881   3.17695
  Beta virt. eigenvalues --    3.18911   3.26725   3.28459   3.30560   3.38412
  Beta virt. eigenvalues --    3.39405   3.44127   3.48949   3.49826   3.56662
  Beta virt. eigenvalues --    3.57230   3.64788   3.72973   3.78541   3.82932
  Beta virt. eigenvalues --    3.87452   3.88504   3.92429   3.95764   3.98766
  Beta virt. eigenvalues --    4.04873   4.09660   4.12323   4.19438   4.23059
  Beta virt. eigenvalues --    4.23717   4.39057   4.45104   4.53486   4.65441
  Beta virt. eigenvalues --    4.74476   4.81700   4.82486   4.92046   4.93696
  Beta virt. eigenvalues --    5.10582   5.11353   5.27948   5.55005   5.61857
  Beta virt. eigenvalues --    5.67975   5.75629   5.86383   5.94841   6.14612
  Beta virt. eigenvalues --    7.97423  10.35757  13.52682  16.46501
          Condensed to atoms (all electrons):
               1          2          3          4          5          6
     1  C    4.981561  -0.074398   0.006703   0.401747   0.401201  -0.000023
     2  C   -0.074398   5.013997   0.710871  -0.000085   0.005772  -0.074732
     3  C    0.006703   0.710871   5.088062   0.005570  -0.000403   0.426779
     4  H    0.401747  -0.000085   0.005570   0.530123  -0.032923   0.000037
     5  H    0.401201   0.005772  -0.000403  -0.032923   0.542362   0.000002
     6  H   -0.000023  -0.074732   0.426779   0.000037   0.000002   0.499276
     7  C    0.573749   0.449195  -0.086553  -0.056283  -0.056428   0.000070
               7
     1  C    0.573749
     2  C    0.449195
     3  C   -0.086553
     4  H   -0.056283
     5  H   -0.056428
     6  H    0.000070
     7  C    5.144878
          Atomic-Atomic Spin Densities.
               1          2          3          4          5          6
     1  C   -0.175219   0.015173   0.003400   0.007818   0.017658   0.000033
     2  C    0.015173  -0.125721  -0.026837   0.002622  -0.002767  -0.000809
     3  C    0.003400  -0.026837   0.314092   0.006071  -0.000485   0.001590
     4  H    0.007818   0.002622   0.006071   0.075434  -0.007593   0.000031
     5  H    0.017658  -0.002767  -0.000485  -0.007593   0.034464  -0.000002
     6  H    0.000033  -0.000809   0.001590   0.000031  -0.000002  -0.005786
     7  C   -0.039556  -0.029602  -0.034540  -0.022321  -0.014820   0.000016
               7
     1  C   -0.039556
     2  C   -0.029602
     3  C   -0.034540
     4  H   -0.022321
     5  H   -0.014820
     6  H    0.000016
     7  C    1.132575
 Mulliken charges and spin densities:
               1          2
     1  C   -0.290542  -0.170693
     2  C   -0.030621  -0.167942
     3  C   -0.151030   0.263291
     4  H    0.151813   0.062063
     5  H    0.140417   0.026455
     6  H    0.148591  -0.004926
     7  C    0.031372   0.991752
 Sum of Mulliken charges =  -0.00000   1.00000
 Mulliken charges and spin densities with hydrogens summed into heavy atoms:
               1          2
     1  C    0.001689  -0.082175
     2  C   -0.030621  -0.167942
     3  C   -0.002439   0.258364
     7  C    0.031372   0.991752
 Electronic spatial extent (au):  <R**2>=            561.3108
 Charge=             -0.0000 electrons
 Dipole moment (field-independent basis, Debye):
    X=              0.8603    Y=              0.0000    Z=             -0.1728  Tot=              0.8774
 Quadrupole moment (field-independent basis, Debye-Ang):
   XX=            -23.0919   YY=            -26.1244   ZZ=            -17.9605
   XY=             -0.0000   XZ=              3.3950   YZ=              0.0000
 Traceless Quadrupole moment (field-independent basis, Debye-Ang):
   XX=             -0.6996   YY=             -3.7322   ZZ=              4.4318
   XY=             -0.0000   XZ=              3.3950   YZ=              0.0000
 Octapole moment (field-independent basis, Debye-Ang**2):
  XXX=              0.7477  YYY=              0.0000  ZZZ=            -83.0861  XYY=             -0.5321
  XXY=              0.0000  XXZ=            -38.7532  XZZ=             16.1465  YZZ=             -0.0000
  YYZ=            -44.2598  XYZ=             -0.0000
 Hexadecapole moment (field-independent basis, Debye-Ang**3):
 XXXX=            -63.7101 YYYY=            -30.6794 ZZZZ=           -508.6232 XXXY=             -0.0000
 XXXZ=            -25.4189 YYYX=             -0.0000 YYYZ=              0.0000 ZZZX=             57.5745
 ZZZY=             -0.0000 XXYY=            -16.3485 XXZZ=           -118.1764 YYZZ=           -138.8341
 XXYZ=             -0.0000 YYXZ=            -11.0392 ZZXY=             -0.0000
 N-N= 8.286290621528D+01 E-N=-5.225576119057D+02  KE= 1.530135511605D+02
                          Isotropic Fermi Contact Couplings
        Atom                 a.u.       MegaHertz       Gauss      10(-4) cm-1
     1  C(13)              0.00288       3.23355       1.15381       1.07860
     2  C(13)              0.02496      28.05935      10.01227       9.35959
     3  C(13)              0.04080      45.86200      16.36470      15.29792
     4  H(1)               0.02600     116.19658      41.46183      38.75901
     5  H(1)               0.01400      62.55741      22.32204      20.86691
     6  H(1)              -0.00300     -13.41966      -4.78847      -4.47632
     7  C(13)              0.55311     621.80607     221.87587     207.41218
 --------------------------------------------------------
       Center         ----  Spin Dipole Couplings  ----
                      3XX-RR        3YY-RR        3ZZ-RR
 --------------------------------------------------------
     1   Atom        0.086876     -0.183714      0.096838
     2   Atom       -0.036682     -0.043837      0.080519
     3   Atom        0.079411     -0.055507     -0.023904
     4   Atom        0.003949     -0.009808      0.005859
     5   Atom       -0.007511     -0.012488      0.019998
     6   Atom        0.000665     -0.015359      0.014694
     7   Atom        0.835294     -0.309247     -0.526047
 --------------------------------------------------------
                        XY            XZ            YZ
 --------------------------------------------------------
     1   Atom       -0.000000     -0.058775      0.000000
     2   Atom       -0.000000      0.110978      0.000000
     3   Atom        0.000000     -0.142539      0.000000
     4   Atom        0.000000     -0.007550      0.000000
     5   Atom       -0.000000     -0.012347     -0.000000
     6   Atom       -0.000000      0.011517     -0.000000
     7   Atom        0.000000     -0.037958     -0.000000
 --------------------------------------------------------


 ---------------------------------------------------------------------------------
              Anisotropic Spin Dipole Couplings in Principal Axis System
 ---------------------------------------------------------------------------------

       Atom             a.u.   MegaHertz   Gauss  10(-4) cm-1        Axes

              Baa    -0.1837   -24.653    -8.797    -8.223  0.0000  1.0000 -0.0000
     1 C(13)  Bbb     0.0329     4.411     1.574     1.471  0.7364  0.0000  0.6766
              Bcc     0.1508    20.242     7.223     6.752 -0.6766  0.0000  0.7364
 
              Baa    -0.1036   -13.900    -4.960    -4.636  0.8564  0.0000 -0.5163
     2 C(13)  Bbb    -0.0438    -5.882    -2.099    -1.962 -0.0000  1.0000  0.0000
              Bcc     0.1474    19.782     7.059     6.599  0.5163  0.0000  0.8564
 
              Baa    -0.1239   -16.620    -5.931    -5.544  0.5741 -0.0000  0.8188
     3 C(13)  Bbb    -0.0555    -7.449    -2.658    -2.485  0.0000  1.0000  0.0000
              Bcc     0.1794    24.069     8.588     8.029  0.8188  0.0000 -0.5741
 
              Baa    -0.0098    -5.233    -1.867    -1.746 -0.0000  1.0000 -0.0000
     4 H(1)   Bbb    -0.0027    -1.444    -0.515    -0.482  0.7502  0.0000  0.6612
              Bcc     0.0125     6.677     2.382     2.227 -0.6612 -0.0000  0.7502
 
              Baa    -0.0125    -6.663    -2.377    -2.222  0.0000  1.0000  0.0000
     5 H(1)   Bbb    -0.0122    -6.530    -2.330    -2.178  0.9339 -0.0000  0.3577
              Bcc     0.0247    13.193     4.708     4.401 -0.3577 -0.0000  0.9339
 
              Baa    -0.0154    -8.195    -2.924    -2.733 -0.0000  1.0000  0.0000
     6 H(1)   Bbb    -0.0058    -3.098    -1.105    -1.033  0.8718  0.0000 -0.4898
              Bcc     0.0212    11.292     4.029     3.767  0.4898 -0.0000  0.8718
 
              Baa    -0.5271   -70.732   -25.239   -23.594  0.0279  0.0000  0.9996
     7 C(13)  Bbb    -0.3092   -41.498   -14.808   -13.842 -0.0000  1.0000 -0.0000
              Bcc     0.8364   112.230    40.047    37.436  0.9996  0.0000 -0.0279
 

 ---------------------------------------------------------------------------------

 No NMR shielding tensors so no spin-rotation constants.
 Leave Link  601 at Mon Oct 12 17:22:47 2020, MaxMem=   268435456 cpu:               2.4 elap:               0.3
 (Enter /home/spantaleone/g16/l701.exe)
 ... and contract with generalized density number  0.
 Compute integral first derivatives.
 Leave Link  701 at Mon Oct 12 17:22:47 2020, MaxMem=   268435456 cpu:               1.3 elap:               0.2
 (Enter /home/spantaleone/g16/l702.exe)
 L702 exits ... SP integral derivatives will be done elsewhere.
 Leave Link  702 at Mon Oct 12 17:22:47 2020, MaxMem=   268435456 cpu:               0.2 elap:               0.0
 (Enter /home/spantaleone/g16/l703.exe)
 Integral derivatives from FoFJK, PRISM(SPDF).
 Compute integral first derivatives, UseDBF=F ICtDFT=           0.
 Calling FoFJK, ICntrl=      2127 FMM=F ISym2X=0 I1Cent= 0 IOpClX= 1 NMat=1 NMatS=1 NMatT=0.
 FoFJK:  IHMeth= 1 ICntrl=    2127 DoSepK=F KAlg= 0 I1Cent=           0 FoldK=F
 IRaf=         0 NMat=       1 IRICut=       1 DoRegI=T DoRafI=F ISym2E= 0 IDoP0=0 IntGTp=1.
 FoFCou: FMM=F IPFlag=           0 FMFlag=      100000 FMFlg1=         800
         NFxFlg=           0 DoJE=F BraDBF=F KetDBF=F FulRan=T
         wScrn=  0.000000 ICntrl=      2127 IOpCl=  1 I1Cent=           0 NGrid=           0
         NMat0=    1 NMatS0=      1 NMatT0=    0 NMatD0=    1 NMtDS0=    0 NMtDT0=    0
 Symmetry not used in FoFCou.
 Leave Link  703 at Mon Oct 12 17:22:51 2020, MaxMem=   268435456 cpu:              30.5 elap:               3.8
 (Enter /home/spantaleone/g16/l716.exe)
 Dipole        = 3.38449025D-01 3.69303666D-15-6.79777824D-02
 -------------------------------------------------------------------
 Center     Atomic                   Forces (Hartrees/Bohr)
 Number     Number              X              Y              Z
 -------------------------------------------------------------------
      1        6          -0.030108370   -0.000000000    0.002728905
      2        6          -0.025362940    0.000000000   -0.014099224
      3        6          -0.005489207   -0.000000000   -0.006232236
      4        1          -0.002417478    0.000000000    0.000887278
      5        1           0.003942538    0.000000000   -0.001666961
      6        1           0.002013738   -0.000000000    0.002739483
      7        6           0.057421718   -0.000000000    0.015642754
 -------------------------------------------------------------------
 Cartesian Forces:  Max     0.057421718 RMS     0.016040816
 Leave Link  716 at Mon Oct 12 17:22:51 2020, MaxMem=   268435456 cpu:               0.3 elap:               0.0
 (Enter /home/spantaleone/g16/l103.exe)

 GradGradGradGradGradGradGradGradGradGradGradGradGradGradGradGradGradGrad
 Berny optimization.
 FormGI is forming the generalized inverse of G from B-inverse, IUseBI=4.
 Internal  Forces:  Max     0.048882799 RMS     0.014574727
 Search for a local minimum.
 Step number   1 out of a maximum of  100
 All quantities printed in internal units (Hartrees-Bohrs-Radians)
 RMS Force = .14575D-01 SwitMx=.10000D-02 MixMth= 1
 Mixed Optimization -- RFO/linear search
 Second derivative matrix not updated -- first step.
 The second derivative matrix:
                          R1        R2        R3        R4        R5
           R1           0.35227
           R2           0.00000   0.35474
           R3           0.00000   0.00000   0.58947
           R4           0.00000   0.00000   0.00000   1.02069
           R5           0.00000   0.00000   0.00000   0.00000   0.39466
           R6           0.00000   0.00000   0.00000   0.00000   0.00000
           A1           0.00000   0.00000   0.00000   0.00000   0.00000
           A2           0.00000   0.00000   0.00000   0.00000   0.00000
           A3           0.00000   0.00000   0.00000   0.00000   0.00000
           A4           0.00000   0.00000   0.00000   0.00000   0.00000
           A5           0.00000   0.00000   0.00000   0.00000   0.00000
           A6           0.00000   0.00000   0.00000   0.00000   0.00000
           A7           0.00000   0.00000   0.00000   0.00000   0.00000
           A8           0.00000   0.00000   0.00000   0.00000   0.00000
           D1           0.00000   0.00000   0.00000   0.00000   0.00000
           D2           0.00000   0.00000   0.00000   0.00000   0.00000
           D3           0.00000   0.00000   0.00000   0.00000   0.00000
                          R6        A1        A2        A3        A4
           R6           0.38748
           A1           0.00000   0.16000
           A2           0.00000   0.00000   0.16000
           A3           0.00000   0.00000   0.00000   0.16000
           A4           0.00000   0.00000   0.00000   0.00000   0.25000
           A5           0.00000   0.00000   0.00000   0.00000   0.00000
           A6           0.00000   0.00000   0.00000   0.00000   0.00000
           A7           0.00000   0.00000   0.00000   0.00000   0.00000
           A8           0.00000   0.00000   0.00000   0.00000   0.00000
           D1           0.00000   0.00000   0.00000   0.00000   0.00000
           D2           0.00000   0.00000   0.00000   0.00000   0.00000
           D3           0.00000   0.00000   0.00000   0.00000   0.00000
                          A5        A6        A7        A8        D1
           A5           0.01548
           A6           0.00000   0.00654
           A7           0.00000   0.00000   0.01548
           A8           0.00000   0.00000   0.00000   0.00654
           D1           0.00000   0.00000   0.00000   0.00000   0.00310
           D2           0.00000   0.00000   0.00000   0.00000   0.00000
           D3           0.00000   0.00000   0.00000   0.00000   0.00000
                          D2        D3
           D2           0.02983
           D3           0.00000   0.02983
 ITU=  0
     Eigenvalues ---    0.00654   0.00654   0.01225   0.01548   0.01548
     Eigenvalues ---    0.02983   0.16000   0.16000   0.25000   0.35227
     Eigenvalues ---    0.35474   0.38748   0.39466   0.58947   1.02069
 RFO step:  Lambda=-1.23013604D-02 EMin= 6.54028044D-03
 Linear search not attempted -- first point.
 Iteration  1 RMS(Cart)=  0.16089300 RMS(Int)=  0.00899296
 Iteration  2 RMS(Cart)=  0.01372427 RMS(Int)=  0.00000710
 Iteration  3 RMS(Cart)=  0.00001194 RMS(Int)=  0.00000000
 Iteration  4 RMS(Cart)=  0.00000000 RMS(Int)=  0.00000000
 ITry= 1 IFail=0 DXMaxC= 3.43D-01 DCOld= 1.00D+10 DXMaxT= 3.00D-01 DXLimC= 3.00D+00 Rises=F
 Variable       Old X    -DE/DX   Delta X   Delta X   Delta X     New X
                                 (Linear)    (Quad)   (Total)
    R1        2.05307  -0.00242   0.00000  -0.00665  -0.00665   2.04642
    R2        2.04912  -0.00051   0.00000  -0.00138  -0.00138   2.04774
    R3        2.51783  -0.01627   0.00000  -0.02703  -0.02703   2.49080
    R4        2.27822  -0.00472   0.00000  -0.00457  -0.00457   2.27365
    R5        2.72286  -0.02912   0.00000  -0.07156  -0.07156   2.65130
    R6        1.99992   0.00337   0.00000   0.00842   0.00842   2.00833
    A1        2.08066  -0.00231   0.00000  -0.01341  -0.01341   2.06724
    A2        2.11548  -0.00409   0.00000  -0.02373  -0.02373   2.09174
    A3        2.08705   0.00640   0.00000   0.03715   0.03715   2.12420
    A4        2.11411   0.04888   0.00000   0.18636   0.18636   2.30047
    A5        3.14247   0.00227   0.00000   0.08169   0.08169   3.22416
    A6        3.14151  -0.00097   0.00000  -0.05132  -0.05132   3.09019
    A7        3.14159  -0.00000   0.00000  -0.00000   0.00000   3.14159
    A8        3.14159  -0.00000   0.00000  -0.00000   0.00000   3.14159
    D1        3.14159   0.00000   0.00000   0.00000   0.00000   3.14159
    D2        0.00000  -0.00000   0.00000  -0.00000   0.00000   0.00000
    D3        3.14159  -0.00000   0.00000  -0.00000   0.00000   3.14159
         Item               Value     Threshold  Converged?
 Maximum Force            0.048883     0.000450     NO 
 RMS     Force            0.014575     0.000300     NO 
 Maximum Displacement     0.342966     0.001800     NO 
 RMS     Displacement     0.156681     0.001200     NO 
 Predicted change in Energy=-6.471446D-03
 Lowest energy point so far.  Saving SCF results.
 GradGradGradGradGradGradGradGradGradGradGradGradGradGradGradGradGradGrad

 Leave Link  103 at Mon Oct 12 17:22:51 2020, MaxMem=   268435456 cpu:               0.2 elap:               0.0
 (Enter /home/spantaleone/g16/l202.exe)
                          Input orientation:                          
 ---------------------------------------------------------------------
 Center     Atomic      Atomic             Coordinates (Angstroms)
 Number     Number       Type             X           Y           Z
 ---------------------------------------------------------------------
      1          6           0       -0.006329   -0.000000   -0.051710
      2          6           0        0.099635   -0.000000    2.430237
      3          6           0        0.531011   -0.000000    3.553408
      4          1           0        1.067580   -0.000000   -0.191123
      5          1           0       -0.640829    0.000000   -0.930140
      6          1           0        0.962524    0.000000    4.524626
      7          6           0       -0.509702   -0.000000    1.166459
 ---------------------------------------------------------------------
                    Distance matrix (angstroms):
                    1          2          3          4          5
     1  C    0.000000
     2  C    2.484208   0.000000
     3  C    3.644944   1.203163   0.000000
     4  H    1.082921   2.794359   3.782779   0.000000
     5  H    1.083619   3.440991   4.634158   1.861400   0.000000
     6  H    4.677770   2.265181   1.062764   4.716919   5.685527
     7  C    1.318074   1.403006   2.603960   2.081069   2.100696
                    6          7
     6  H    0.000000
     7  C    3.666706   0.000000
 Symmetry turned off by external request.
 Stoichiometry    C4H3(2)
 Framework group  CS[SG(C4H3)]
 Deg. of freedom    11
 Full point group                 CS      NOp   2
 Rotational constants (GHZ):          90.0255920           4.6044397           4.3804002
 Leave Link  202 at Mon Oct 12 17:22:51 2020, MaxMem=   268435456 cpu:               0.0 elap:               0.0
 (Enter /home/spantaleone/g16/l301.exe)
 Standard basis: CC-pVTZ (5D, 7F)
 Ernie: Thresh=  0.10000D-02 Tol=  0.10000D-05 Strict=F.
 Ernie:  12 primitive shells out of 128 were deleted.
   162 basis functions,   259 primitive gaussians,   185 cartesian basis functions
    14 alpha electrons       13 beta electrons
       nuclear repulsion energy        82.9821092081 Hartrees.
 IExCor= 4336 DFT=T Ex+Corr=M062X ExCW=0 ScaHFX=  0.540000
 ScaDFX=  1.000000  1.000000  1.000000  1.000000 ScalE2=  1.000000  1.000000
 IRadAn=      5 IRanWt=     -1 IRanGd=            0 ICorTp=0 IEmpDi=  4
 NAtoms=    7 NActive=    7 NUniq=    7 SFac= 1.00D+00 NAtFMM=   60 NAOKFM=F Big=F
 Integral buffers will be    131072 words long.
 Raffenetti 2 integral format.
 Two-electron integral symmetry is turned off.
 Leave Link  301 at Mon Oct 12 17:22:51 2020, MaxMem=   268435456 cpu:               0.3 elap:               0.0
 (Enter /home/spantaleone/g16/l302.exe)
 NPDir=0 NMtPBC=     1 NCelOv=     1 NCel=       1 NClECP=     1 NCelD=      1
         NCelK=      1 NCelE2=     1 NClLst=     1 CellRange=     0.0.
 One-electron integrals computed using PRISM.
 NBasis=   162 RedAO= T EigKep=  5.22D-05  NBF=   162
 NBsUse=   162 1.00D-06 EigRej= -1.00D+00 NBFU=   162
 Precomputing XC quadrature grid using
 IXCGrd= 4 IRadAn=           5 IRanWt=          -1 IRanGd=           0 AccXCQ= 0.00D+00.
 Generated NRdTot=       0 NPtTot=           0 NUsed=           0 NTot=          32
 NSgBfM=   185   185   185   185   185 MxSgAt=     7 MxSgA2=     7.
 Leave Link  302 at Mon Oct 12 17:22:52 2020, MaxMem=   268435456 cpu:               1.5 elap:               0.2
 (Enter /home/spantaleone/g16/l303.exe)
 DipDrv:  MaxL=1.
 Leave Link  303 at Mon Oct 12 17:22:52 2020, MaxMem=   268435456 cpu:               0.3 elap:               0.0
 (Enter /home/spantaleone/g16/l401.exe)
 Initial guess from the checkpoint file:  "input.chk"
 B after Tr=     0.104085   -0.000000    0.019800
         Rot=    0.999993   -0.000000    0.003872   -0.000000 Ang=   0.44 deg.
 Guess basis will be translated and rotated to current coordinates.
 JPrj=2 DoOrth=T DoCkMO=T.
 Initial guess <Sx>= 0.0000 <Sy>= 0.0000 <Sz>= 0.5000 <S**2>= 0.7756 S= 0.5127
 Generating alternative initial guess.
 ExpMin= 1.03D-01 ExpMax= 8.24D+03 ExpMxC= 2.81D+02 IAcc=3 IRadAn=         5 AccDes= 0.00D+00
 Harris functional with IExCor= 1009 and IRadAn=       5 diagonalized for initial guess.
 HarFok:  IExCor= 1009 AccDes= 0.00D+00 IRadAn=         5 IDoV= 1 UseB2=F ITyADJ=14
 ICtDFT=  3500011 ScaDFX=  1.000000  1.000000  1.000000  1.000000
 FoFCou: FMM=F IPFlag=           0 FMFlag=      100000 FMFlg1=           0
         NFxFlg=           0 DoJE=T BraDBF=F KetDBF=T FulRan=T
         wScrn=  0.000000 ICntrl=       500 IOpCl=  0 I1Cent=   200000004 NGrid=           0
         NMat0=    1 NMatS0=      1 NMatT0=    0 NMatD0=    1 NMtDS0=    0 NMtDT0=    0
 Symmetry not used in FoFCou.
 Harris En= -153.993392672131    
 Leave Link  401 at Mon Oct 12 17:22:52 2020, MaxMem=   268435456 cpu:               5.5 elap:               0.7
 (Enter /home/spantaleone/g16/l502.exe)
 Keep R1 and R2 ints in memory in canonical form, NReq=182448050.
 FoFCou: FMM=F IPFlag=           0 FMFlag=           0 FMFlg1=           0
         NFxFlg=           0 DoJE=F BraDBF=F KetDBF=F FulRan=T
         wScrn=  0.000000 ICntrl=       600 IOpCl=  0 I1Cent=           0 NGrid=           0
         NMat0=    1 NMatS0=  13203 NMatT0=    0 NMatD0=    1 NMtDS0=    0 NMtDT0=    0
 Symmetry not used in FoFCou.
 Two-electron integral symmetry not used.
 UHF open shell SCF:
 Using DIIS extrapolation, IDIIS=  1040.
 NGot=   268435456 LenX=    94031820 LenY=    93997154
 Requested convergence on RMS density matrix=1.00D-08 within  32 cycles.
 Requested convergence on MAX density matrix=1.00D-06.
 Requested convergence on             energy=1.00D-06.
 No special actions if energy rises.
 Integral accuracy reduced to 1.0D-05 until final iterations.

 Cycle   1  Pass 0  IDiag  1:
 E= -154.028529770291    
 DIIS: error= 8.85D-03 at cycle   1 NSaved=   1.
 NSaved= 1 IEnMin= 1 EnMin= -154.028529770291     IErMin= 1 ErrMin= 8.85D-03
 ErrMax= 8.85D-03  0.00D+00 EMaxC= 1.00D-01 BMatC= 7.55D-02 BMatP= 7.55D-02
 IDIUse=3 WtCom= 9.11D-01 WtEn= 8.85D-02
 Coeff-Com:  0.100D+01
 Coeff-En:   0.100D+01
 Coeff:      0.100D+01
 Gap=     1.081 Goal=   None    Shift=    0.000
 Gap=     1.099 Goal=   None    Shift=    0.000
 GapD=    1.081 DampG=2.000 DampE=1.000 DampFc=2.0000 IDamp=-1.
 RMSDP=1.08D-03 MaxDP=3.57D-02              OVMax= 3.86D-02

 Cycle   2  Pass 0  IDiag  1:
 E= -154.044096296926     Delta-E=       -0.015566526636 Rises=F Damp=F
 DIIS: error= 2.83D-03 at cycle   2 NSaved=   2.
 NSaved= 2 IEnMin= 2 EnMin= -154.044096296926     IErMin= 2 ErrMin= 2.83D-03
 ErrMax= 2.83D-03  0.00D+00 EMaxC= 1.00D-01 BMatC= 2.22D-03 BMatP= 7.55D-02
 IDIUse=3 WtCom= 9.72D-01 WtEn= 2.83D-02
 Coeff-Com: -0.489D-01 0.105D+01
 Coeff-En:   0.000D+00 0.100D+01
 Coeff:     -0.475D-01 0.105D+01
 Gap=     0.290 Goal=   None    Shift=    0.000
 Gap=     0.249 Goal=   None    Shift=    0.000
 RMSDP=2.34D-04 MaxDP=5.58D-03 DE=-1.56D-02 OVMax= 2.65D-02

 Cycle   3  Pass 0  IDiag  1:
 E= -154.044313719979     Delta-E=       -0.000217423053 Rises=F Damp=F
 DIIS: error= 3.68D-03 at cycle   3 NSaved=   3.
 NSaved= 3 IEnMin= 3 EnMin= -154.044313719979     IErMin= 2 ErrMin= 2.83D-03
 ErrMax= 3.68D-03  0.00D+00 EMaxC= 1.00D-01 BMatC= 3.17D-03 BMatP= 2.22D-03
 IDIUse=3 WtCom= 1.41D-01 WtEn= 8.59D-01
 Coeff-Com: -0.514D-01 0.605D+00 0.446D+00
 Coeff-En:   0.000D+00 0.391D+00 0.609D+00
 Coeff:     -0.726D-02 0.421D+00 0.586D+00
 Gap=     0.290 Goal=   None    Shift=    0.000
 Gap=     0.247 Goal=   None    Shift=    0.000
 RMSDP=1.64D-04 MaxDP=4.76D-03 DE=-2.17D-04 OVMax= 1.96D-02

 Cycle   4  Pass 0  IDiag  1:
 E= -154.044855841484     Delta-E=       -0.000542121505 Rises=F Damp=F
 DIIS: error= 2.45D-03 at cycle   4 NSaved=   4.
 NSaved= 4 IEnMin= 4 EnMin= -154.044855841484     IErMin= 4 ErrMin= 2.45D-03
 ErrMax= 2.45D-03  0.00D+00 EMaxC= 1.00D-01 BMatC= 1.20D-03 BMatP= 2.22D-03
 IDIUse=3 WtCom= 9.75D-01 WtEn= 2.45D-02
 Coeff-Com: -0.452D-02-0.682D-01 0.382D+00 0.691D+00
 Coeff-En:   0.000D+00 0.000D+00 0.282D+00 0.718D+00
 Coeff:     -0.440D-02-0.666D-01 0.380D+00 0.691D+00
 Gap=     0.289 Goal=   None    Shift=    0.000
 Gap=     0.247 Goal=   None    Shift=    0.000
 RMSDP=7.08D-05 MaxDP=2.30D-03 DE=-5.42D-04 OVMax= 9.39D-03

 Cycle   5  Pass 0  IDiag  1:
 E= -154.045178688402     Delta-E=       -0.000322846918 Rises=F Damp=F
 DIIS: error= 2.69D-04 at cycle   5 NSaved=   5.
 NSaved= 5 IEnMin= 5 EnMin= -154.045178688402     IErMin= 5 ErrMin= 2.69D-04
 ErrMax= 2.69D-04  0.00D+00 EMaxC= 1.00D-01 BMatC= 1.79D-05 BMatP= 1.20D-03
 IDIUse=3 WtCom= 9.97D-01 WtEn= 2.69D-03
 Coeff-Com:  0.574D-02-0.992D-01 0.439D-01 0.186D+00 0.863D+00
 Coeff-En:   0.000D+00 0.000D+00 0.000D+00 0.000D+00 0.100D+01
 Coeff:      0.573D-02-0.989D-01 0.438D-01 0.186D+00 0.864D+00
 Gap=     0.289 Goal=   None    Shift=    0.000
 Gap=     0.246 Goal=   None    Shift=    0.000
 RMSDP=2.61D-05 MaxDP=7.72D-04 DE=-3.23D-04 OVMax= 3.26D-03

 Cycle   6  Pass 0  IDiag  1:
 E= -154.045193981220     Delta-E=       -0.000015292818 Rises=F Damp=F
 DIIS: error= 1.18D-04 at cycle   6 NSaved=   6.
 NSaved= 6 IEnMin= 6 EnMin= -154.045193981220     IErMin= 6 ErrMin= 1.18D-04
 ErrMax= 1.18D-04  0.00D+00 EMaxC= 1.00D-01 BMatC= 3.38D-06 BMatP= 1.79D-05
 IDIUse=3 WtCom= 9.99D-01 WtEn= 1.18D-03
 Coeff-Com: -0.933D-03 0.459D-01-0.881D-01-0.197D+00-0.223D+00 0.146D+01
 Coeff-En:   0.000D+00 0.000D+00 0.000D+00 0.000D+00 0.000D+00 0.100D+01
 Coeff:     -0.932D-03 0.458D-01-0.880D-01-0.197D+00-0.222D+00 0.146D+01
 Gap=     0.289 Goal=   None    Shift=    0.000
 Gap=     0.246 Goal=   None    Shift=    0.000
 RMSDP=2.31D-05 MaxDP=8.53D-04 DE=-1.53D-05 OVMax= 2.98D-03

 Cycle   7  Pass 0  IDiag  1:
 E= -154.045200204742     Delta-E=       -0.000006223522 Rises=F Damp=F
 DIIS: error= 7.12D-05 at cycle   7 NSaved=   7.
 NSaved= 7 IEnMin= 7 EnMin= -154.045200204742     IErMin= 7 ErrMin= 7.12D-05
 ErrMax= 7.12D-05  0.00D+00 EMaxC= 1.00D-01 BMatC= 7.43D-07 BMatP= 3.38D-06
 IDIUse=1 WtCom= 1.00D+00 WtEn= 0.00D+00
 Coeff-Com: -0.113D-02 0.282D-01-0.321D-01-0.888D-01-0.180D+00 0.387D+00
 Coeff-Com:  0.886D+00
 Coeff:     -0.113D-02 0.282D-01-0.321D-01-0.888D-01-0.180D+00 0.387D+00
 Coeff:      0.886D+00
 Gap=     0.289 Goal=   None    Shift=    0.000
 Gap=     0.246 Goal=   None    Shift=    0.000
 RMSDP=7.52D-06 MaxDP=3.27D-04 DE=-6.22D-06 OVMax= 1.16D-03

 Initial convergence to 1.0D-05 achieved.  Increase integral accuracy.
 Cycle   8  Pass 1  IDiag  1:
 E= -154.045211036130     Delta-E=       -0.000010831388 Rises=F Damp=F
 DIIS: error= 3.90D-05 at cycle   1 NSaved=   1.
 NSaved= 1 IEnMin= 1 EnMin= -154.045211036130     IErMin= 1 ErrMin= 3.90D-05
 ErrMax= 3.90D-05  0.00D+00 EMaxC= 1.00D-01 BMatC= 5.60D-07 BMatP= 5.60D-07
 IDIUse=1 WtCom= 1.00D+00 WtEn= 0.00D+00
 Coeff-Com:  0.100D+01
 Coeff:      0.100D+01
 Gap=     0.289 Goal=   None    Shift=    0.000
 Gap=     0.246 Goal=   None    Shift=    0.000
 RMSDP=7.52D-06 MaxDP=3.27D-04 DE=-1.08D-05 OVMax= 2.76D-04

 Cycle   9  Pass 1  IDiag  1:
 E= -154.045211268272     Delta-E=       -0.000000232141 Rises=F Damp=F
 DIIS: error= 3.08D-05 at cycle   2 NSaved=   2.
 NSaved= 2 IEnMin= 2 EnMin= -154.045211268272     IErMin= 2 ErrMin= 3.08D-05
 ErrMax= 3.08D-05  0.00D+00 EMaxC= 1.00D-01 BMatC= 1.78D-07 BMatP= 5.60D-07
 IDIUse=1 WtCom= 1.00D+00 WtEn= 0.00D+00
 Coeff-Com:  0.259D+00 0.741D+00
 Coeff:      0.259D+00 0.741D+00
 Gap=     0.289 Goal=   None    Shift=    0.000
 Gap=     0.246 Goal=   None    Shift=    0.000
 RMSDP=1.71D-06 MaxDP=4.56D-05 DE=-2.32D-07 OVMax= 2.75D-04

 Cycle  10  Pass 1  IDiag  1:
 E= -154.045211351170     Delta-E=       -0.000000082898 Rises=F Damp=F
 DIIS: error= 2.64D-05 at cycle   3 NSaved=   3.
 NSaved= 3 IEnMin= 3 EnMin= -154.045211351170     IErMin= 3 ErrMin= 2.64D-05
 ErrMax= 2.64D-05  0.00D+00 EMaxC= 1.00D-01 BMatC= 1.07D-07 BMatP= 1.78D-07
 IDIUse=1 WtCom= 1.00D+00 WtEn= 0.00D+00
 Coeff-Com: -0.959D-01 0.400D+00 0.695D+00
 Coeff:     -0.959D-01 0.400D+00 0.695D+00
 Gap=     0.289 Goal=   None    Shift=    0.000
 Gap=     0.246 Goal=   None    Shift=    0.000
 RMSDP=1.40D-06 MaxDP=5.83D-05 DE=-8.29D-08 OVMax= 1.33D-04

 Cycle  11  Pass 1  IDiag  1:
 E= -154.045211411505     Delta-E=       -0.000000060336 Rises=F Damp=F
 DIIS: error= 1.61D-05 at cycle   4 NSaved=   4.
 NSaved= 4 IEnMin= 4 EnMin= -154.045211411505     IErMin= 4 ErrMin= 1.61D-05
 ErrMax= 1.61D-05  0.00D+00 EMaxC= 1.00D-01 BMatC= 2.68D-08 BMatP= 1.07D-07
 IDIUse=1 WtCom= 1.00D+00 WtEn= 0.00D+00
 Coeff-Com: -0.108D+00 0.345D-01 0.279D+00 0.795D+00
 Coeff:     -0.108D+00 0.345D-01 0.279D+00 0.795D+00
 Gap=     0.289 Goal=   None    Shift=    0.000
 Gap=     0.246 Goal=   None    Shift=    0.000
 RMSDP=1.01D-06 MaxDP=5.12D-05 DE=-6.03D-08 OVMax= 1.57D-04

 Cycle  12  Pass 1  IDiag  1:
 E= -154.045211438777     Delta-E=       -0.000000027272 Rises=F Damp=F
 DIIS: error= 1.10D-05 at cycle   5 NSaved=   5.
 NSaved= 5 IEnMin= 5 EnMin= -154.045211438777     IErMin= 5 ErrMin= 1.10D-05
 ErrMax= 1.10D-05  0.00D+00 EMaxC= 1.00D-01 BMatC= 1.18D-08 BMatP= 2.68D-08
 IDIUse=1 WtCom= 1.00D+00 WtEn= 0.00D+00
 Coeff-Com:  0.364D-01-0.317D+00-0.520D+00 0.404D+00 0.140D+01
 Coeff:      0.364D-01-0.317D+00-0.520D+00 0.404D+00 0.140D+01
 Gap=     0.289 Goal=   None    Shift=    0.000
 Gap=     0.246 Goal=   None    Shift=    0.000
 RMSDP=1.71D-06 MaxDP=8.17D-05 DE=-2.73D-08 OVMax= 2.10D-04

 Cycle  13  Pass 1  IDiag  1:
 E= -154.045211459258     Delta-E=       -0.000000020481 Rises=F Damp=F
 DIIS: error= 2.37D-06 at cycle   6 NSaved=   6.
 NSaved= 6 IEnMin= 6 EnMin= -154.045211459258     IErMin= 6 ErrMin= 2.37D-06
 ErrMax= 2.37D-06  0.00D+00 EMaxC= 1.00D-01 BMatC= 4.07D-10 BMatP= 1.18D-08
 IDIUse=1 WtCom= 1.00D+00 WtEn= 0.00D+00
 Coeff-Com:  0.895D-02-0.353D-01-0.612D-01-0.355D-02 0.140D+00 0.951D+00
 Coeff:      0.895D-02-0.353D-01-0.612D-01-0.355D-02 0.140D+00 0.951D+00
 Gap=     0.289 Goal=   None    Shift=    0.000
 Gap=     0.246 Goal=   None    Shift=    0.000
 RMSDP=1.81D-07 MaxDP=6.93D-06 DE=-2.05D-08 OVMax= 2.25D-05

 Cycle  14  Pass 1  IDiag  1:
 E= -154.045211459697     Delta-E=       -0.000000000438 Rises=F Damp=F
 DIIS: error= 1.42D-06 at cycle   7 NSaved=   7.
 NSaved= 7 IEnMin= 7 EnMin= -154.045211459697     IErMin= 7 ErrMin= 1.42D-06
 ErrMax= 1.42D-06  0.00D+00 EMaxC= 1.00D-01 BMatC= 2.42D-10 BMatP= 4.07D-10
 IDIUse=1 WtCom= 1.00D+00 WtEn= 0.00D+00
 Coeff-Com: -0.642D-02 0.751D-01 0.126D+00-0.120D+00-0.347D+00 0.510D+00
 Coeff-Com:  0.763D+00
 Coeff:     -0.642D-02 0.751D-01 0.126D+00-0.120D+00-0.347D+00 0.510D+00
 Coeff:      0.763D+00
 Gap=     0.289 Goal=   None    Shift=    0.000
 Gap=     0.246 Goal=   None    Shift=    0.000
 RMSDP=9.64D-08 MaxDP=2.98D-06 DE=-4.38D-10 OVMax= 1.29D-05

 Cycle  15  Pass 1  IDiag  1:
 E= -154.045211459874     Delta-E=       -0.000000000177 Rises=F Damp=F
 DIIS: error= 7.59D-07 at cycle   8 NSaved=   8.
 NSaved= 8 IEnMin= 8 EnMin= -154.045211459874     IErMin= 8 ErrMin= 7.59D-07
 ErrMax= 7.59D-07  0.00D+00 EMaxC= 1.00D-01 BMatC= 2.84D-11 BMatP= 2.42D-10
 IDIUse=1 WtCom= 1.00D+00 WtEn= 0.00D+00
 Coeff-Com: -0.157D-02 0.696D-02 0.136D-01-0.440D-03-0.331D-01-0.152D+00
 Coeff-Com:  0.496D-01 0.112D+01
 Coeff:     -0.157D-02 0.696D-02 0.136D-01-0.440D-03-0.331D-01-0.152D+00
 Coeff:      0.496D-01 0.112D+01
 Gap=     0.289 Goal=   None    Shift=    0.000
 Gap=     0.246 Goal=   None    Shift=    0.000
 RMSDP=4.72D-08 MaxDP=1.72D-06 DE=-1.77D-10 OVMax= 8.56D-06

 Cycle  16  Pass 1  IDiag  1:
 E= -154.045211459924     Delta-E=       -0.000000000050 Rises=F Damp=F
 DIIS: error= 3.34D-07 at cycle   9 NSaved=   9.
 NSaved= 9 IEnMin= 9 EnMin= -154.045211459924     IErMin= 9 ErrMin= 3.34D-07
 ErrMax= 3.34D-07  0.00D+00 EMaxC= 1.00D-01 BMatC= 8.90D-12 BMatP= 2.84D-11
 IDIUse=1 WtCom= 1.00D+00 WtEn= 0.00D+00
 Coeff-Com:  0.137D-02-0.199D-01-0.327D-01 0.331D-01 0.926D-01-0.169D+00
 Coeff-Com: -0.231D+00 0.182D+00 0.114D+01
 Coeff:      0.137D-02-0.199D-01-0.327D-01 0.331D-01 0.926D-01-0.169D+00
 Coeff:     -0.231D+00 0.182D+00 0.114D+01
 Gap=     0.289 Goal=   None    Shift=    0.000
 Gap=     0.246 Goal=   None    Shift=    0.000
 RMSDP=3.41D-08 MaxDP=1.11D-06 DE=-4.99D-11 OVMax= 5.32D-06

 Cycle  17  Pass 1  IDiag  1:
 E= -154.045211459941     Delta-E=       -0.000000000018 Rises=F Damp=F
 DIIS: error= 1.36D-07 at cycle  10 NSaved=  10.
 NSaved=10 IEnMin=10 EnMin= -154.045211459941     IErMin=10 ErrMin= 1.36D-07
 ErrMax= 1.36D-07  0.00D+00 EMaxC= 1.00D-01 BMatC= 1.65D-12 BMatP= 8.90D-12
 IDIUse=1 WtCom= 1.00D+00 WtEn= 0.00D+00
 Coeff-Com:  0.381D-03-0.430D-03-0.148D-02-0.333D-02 0.270D-02 0.630D-01
 Coeff-Com:  0.642D-02-0.320D+00-0.153D+00 0.141D+01
 Coeff:      0.381D-03-0.430D-03-0.148D-02-0.333D-02 0.270D-02 0.630D-01
 Coeff:      0.642D-02-0.320D+00-0.153D+00 0.141D+01
 Gap=     0.289 Goal=   None    Shift=    0.000
 Gap=     0.246 Goal=   None    Shift=    0.000
 RMSDP=1.82D-08 MaxDP=6.61D-07 DE=-1.79D-11 OVMax= 3.06D-06

 Cycle  18  Pass 1  IDiag  1:
 E= -154.045211459947     Delta-E=       -0.000000000005 Rises=F Damp=F
 DIIS: error= 2.86D-08 at cycle  11 NSaved=  11.
 NSaved=11 IEnMin=11 EnMin= -154.045211459947     IErMin=11 ErrMin= 2.86D-08
 ErrMax= 2.86D-08  0.00D+00 EMaxC= 1.00D-01 BMatC= 1.80D-13 BMatP= 1.65D-12
 IDIUse=1 WtCom= 1.00D+00 WtEn= 0.00D+00
 Coeff-Com: -0.212D-03 0.305D-02 0.517D-02-0.557D-02-0.146D-01 0.328D-01
 Coeff-Com:  0.429D-01-0.781D-01-0.166D+00 0.120D+00 0.106D+01
 Coeff:     -0.212D-03 0.305D-02 0.517D-02-0.557D-02-0.146D-01 0.328D-01
 Coeff:      0.429D-01-0.781D-01-0.166D+00 0.120D+00 0.106D+01
 Gap=     0.289 Goal=   None    Shift=    0.000
 Gap=     0.246 Goal=   None    Shift=    0.000
 RMSDP=4.92D-09 MaxDP=1.52D-07 DE=-5.23D-12 OVMax= 7.74D-07

 SCF Done:  E(UM062X) =  -154.045211460     A.U. after   18 cycles
            NFock= 18  Conv=0.49D-08     -V/T= 2.0061
 <Sx>= 0.0000 <Sy>= 0.0000 <Sz>= 0.5000 <S**2>= 0.7779 S= 0.5139
 <L.S>= 0.000000000000E+00
 KE= 1.531139199813D+02 PE=-5.228717204020D+02 EE= 1.327304797526D+02
 Annihilation of the first spin contaminant:
 S**2 before annihilation     0.7779,   after     0.7505
 Leave Link  502 at Mon Oct 12 17:23:20 2020, MaxMem=   268435456 cpu:             193.5 elap:              27.9
 (Enter /home/spantaleone/g16/l508.exe)
 QCSCF skips out because SCF is already converged.
 Leave Link  508 at Mon Oct 12 17:23:20 2020, MaxMem=   268435456 cpu:               0.0 elap:               0.0
 (Enter /home/spantaleone/g16/l701.exe)
 ... and contract with generalized density number  0.
 Compute integral first derivatives.
 Leave Link  701 at Mon Oct 12 17:23:21 2020, MaxMem=   268435456 cpu:               1.3 elap:               0.2
 (Enter /home/spantaleone/g16/l702.exe)
 L702 exits ... SP integral derivatives will be done elsewhere.
 Leave Link  702 at Mon Oct 12 17:23:21 2020, MaxMem=   268435456 cpu:               0.2 elap:               0.0
 (Enter /home/spantaleone/g16/l703.exe)
 Integral derivatives from FoFJK, PRISM(SPDF).
 Compute integral first derivatives, UseDBF=F ICtDFT=           0.
 Calling FoFJK, ICntrl=      2127 FMM=F ISym2X=0 I1Cent= 0 IOpClX= 1 NMat=1 NMatS=1 NMatT=0.
 FoFJK:  IHMeth= 1 ICntrl=    2127 DoSepK=F KAlg= 0 I1Cent=           0 FoldK=F
 IRaf=         0 NMat=       1 IRICut=       1 DoRegI=T DoRafI=F ISym2E= 0 IDoP0=0 IntGTp=1.
 FoFCou: FMM=F IPFlag=           0 FMFlag=      100000 FMFlg1=         800
         NFxFlg=           0 DoJE=F BraDBF=F KetDBF=F FulRan=T
         wScrn=  0.000000 ICntrl=      2127 IOpCl=  1 I1Cent=           0 NGrid=           0
         NMat0=    1 NMatS0=      1 NMatT0=    0 NMatD0=    1 NMtDS0=    0 NMtDT0=    0
 Symmetry not used in FoFCou.
 Leave Link  703 at Mon Oct 12 17:23:24 2020, MaxMem=   268435456 cpu:              29.6 elap:               3.7
 (Enter /home/spantaleone/g16/l716.exe)
 Dipole        = 3.02860594D-01 2.02732776D-09-3.10048580D-02
 -------------------------------------------------------------------
 Center     Atomic                   Forces (Hartrees/Bohr)
 Number     Number              X              Y              Z
 -------------------------------------------------------------------
      1        6          -0.015212247   -0.000000000    0.003342679
      2        6          -0.018827975   -0.000000000   -0.016763526
      3        6           0.003800810    0.000000000    0.005980691
      4        1           0.001637503    0.000000000   -0.001059616
      5        1           0.001446056   -0.000000000   -0.000101872
      6        1          -0.000717657   -0.000000000    0.000081144
      7        6           0.027873509    0.000000000    0.008520500
 -------------------------------------------------------------------
 Cartesian Forces:  Max     0.027873509 RMS     0.009217654
 Leave Link  716 at Mon Oct 12 17:23:24 2020, MaxMem=   268435456 cpu:               0.2 elap:               0.0
 (Enter /home/spantaleone/g16/l103.exe)

 GradGradGradGradGradGradGradGradGradGradGradGradGradGradGradGradGradGrad
 Berny optimization.
 Using GEDIIS/GDIIS optimizer.
 FormGI is forming the generalized inverse of G from B-inverse, IUseBI=4.
 Internal  Forces:  Max     0.025048611 RMS     0.007661586
 Search for a local minimum.
 Step number   2 out of a maximum of  100
 All quantities printed in internal units (Hartrees-Bohrs-Radians)
 RMS Force = .76616D-02 SwitMx=.10000D-02 MixMth= 1
 Mixed Optimization -- RFO/linear search
 Update second derivatives using D2CorX and points    1    2
 DE= -8.98D-03 DEPred=-6.47D-03 R= 1.39D+00
 TightC=F SS=  1.41D+00  RLast= 2.28D-01 DXNew= 5.0454D-01 6.8510D-01
 Trust test= 1.39D+00 RLast= 2.28D-01 DXMaxT set to 5.05D-01
 The second derivative matrix:
                          R1        R2        R3        R4        R5
           R1           0.35456
           R2          -0.00027   0.35473
           R3           0.00313  -0.00106   0.58225
           R4           0.00663  -0.00066   0.01101   1.03957
           R5           0.00265  -0.00170  -0.01946   0.01156   0.35141
           R6          -0.00170   0.00028  -0.00097  -0.00517   0.00077
           A1           0.00016  -0.00013  -0.00157   0.00076  -0.00341
           A2           0.00213  -0.00034   0.00146   0.00642  -0.00045
           A3          -0.00229   0.00046   0.00011  -0.00719   0.00386
           A4          -0.00633   0.00292   0.02759  -0.02444   0.06542
           A5          -0.00139   0.00015  -0.00205  -0.00400  -0.00190
           A6           0.00148  -0.00011   0.00310   0.00411   0.00386
           A7          -0.00000   0.00000  -0.00000  -0.00000  -0.00000
           A8           0.00000  -0.00000   0.00000   0.00000   0.00000
           D1          -0.00000   0.00000  -0.00000  -0.00000  -0.00000
           D2          -0.00000   0.00000  -0.00000  -0.00000  -0.00000
           D3          -0.00000   0.00000  -0.00000  -0.00000  -0.00000
                          R6        A1        A2        A3        A4
           R6           0.38858
           A1           0.00009   0.15973
           A2          -0.00142  -0.00008   0.16180
           A3           0.00132   0.00035  -0.00173   0.16138
           A4           0.00040   0.00521  -0.00131  -0.00389   0.15324
           A5           0.00105  -0.00012  -0.00131   0.00143   0.00430
           A6          -0.00123   0.00027   0.00152  -0.00178  -0.00747
           A7           0.00000  -0.00000  -0.00000   0.00000   0.00000
           A8          -0.00000   0.00000   0.00000  -0.00000  -0.00000
           D1           0.00000  -0.00000  -0.00000   0.00000   0.00000
           D2           0.00000  -0.00000  -0.00000   0.00000   0.00000
           D3           0.00000  -0.00000  -0.00000   0.00000   0.00000
                          A5        A6        A7        A8        D1
           A5           0.01632
           A6          -0.00089   0.00740
           A7           0.00000  -0.00000   0.01548
           A8          -0.00000   0.00000  -0.00000   0.00654
           D1           0.00000  -0.00000   0.00000  -0.00000   0.00310
           D2           0.00000  -0.00000   0.00000  -0.00000   0.00000
           D3           0.00000  -0.00000   0.00000  -0.00000   0.00000
                          D2        D3
           D2           0.02983
           D3           0.00000   0.02983
 ITU=  1  0
 Use linear search instead of GDIIS.
     Eigenvalues ---    0.00654   0.00672   0.01217   0.01548   0.01610
     Eigenvalues ---    0.02983   0.12895   0.16135   0.16344   0.35436
     Eigenvalues ---    0.35498   0.37061   0.38868   0.58494   1.04086
 RFO step:  Lambda=-1.55285072D-03 EMin= 6.54028044D-03
 Quartic linear search produced a step of  1.31582.
 Iteration  1 RMS(Cart)=  0.22592966 RMS(Int)=  0.03604454
 Iteration  2 RMS(Cart)=  0.08510526 RMS(Int)=  0.00302272
 Iteration  3 RMS(Cart)=  0.00498617 RMS(Int)=  0.00000289
 Iteration  4 RMS(Cart)=  0.00000463 RMS(Int)=  0.00000000
 Iteration  5 RMS(Cart)=  0.00000000 RMS(Int)=  0.00000000
 ITry= 1 IFail=0 DXMaxC= 6.18D-01 DCOld= 1.00D+10 DXMaxT= 5.05D-01 DXLimC= 3.00D+00 Rises=F
 Variable       Old X    -DE/DX   Delta X   Delta X   Delta X     New X
                                 (Linear)    (Quad)   (Total)
    R1        2.04642   0.00176  -0.00875   0.01865   0.00990   2.05632
    R2        2.04774  -0.00076  -0.00182  -0.00349  -0.00530   2.04244
    R3        2.49080  -0.00665  -0.03557   0.00389  -0.03168   2.45912
    R4        2.27365   0.00676  -0.00601   0.02050   0.01449   2.28813
    R5        2.65130  -0.01648  -0.09416  -0.01895  -0.11311   2.53818
    R6        2.00833  -0.00022   0.01108  -0.01038   0.00069   2.00902
    A1        2.06724  -0.00141  -0.01765  -0.00733  -0.02498   2.04226
    A2        2.09174   0.00031  -0.03123   0.02729  -0.00394   2.08780
    A3        2.12420   0.00111   0.04888  -0.01995   0.02892   2.15312
    A4        2.30047   0.02505   0.24522   0.03776   0.28298   2.58345
    A5        3.22416  -0.00023   0.10749   0.02740   0.13489   3.35906
    A6        3.09019   0.00138  -0.06753   0.25281   0.18527   3.27546
    A7        3.14159  -0.00000   0.00000  -0.00000  -0.00000   3.14159
    A8        3.14159   0.00000   0.00000   0.00000   0.00000   3.14159
    D1        3.14159  -0.00000   0.00000  -0.00000   0.00000   3.14159
    D2        0.00000  -0.00000   0.00000  -0.00000  -0.00000   0.00000
    D3        3.14159  -0.00000   0.00000  -0.00000  -0.00000   3.14159
         Item               Value     Threshold  Converged?
 Maximum Force            0.025049     0.000450     NO 
 RMS     Force            0.007662     0.000300     NO 
 Maximum Displacement     0.618133     0.001800     NO 
 RMS     Displacement     0.299095     0.001200     NO 
 Predicted change in Energy=-3.341289D-03
 Lowest energy point so far.  Saving SCF results.
 GradGradGradGradGradGradGradGradGradGradGradGradGradGradGradGradGradGrad

 Leave Link  103 at Mon Oct 12 17:23:24 2020, MaxMem=   268435456 cpu:               0.1 elap:               0.0
 (Enter /home/spantaleone/g16/l202.exe)
                          Input orientation:                          
 ---------------------------------------------------------------------
 Center     Atomic      Atomic             Coordinates (Angstroms)
 Number     Number       Type             X           Y           Z
 ---------------------------------------------------------------------
      1          6           0       -0.013977    0.000000   -0.094669
      2          6           0        0.335703    0.000000    2.423343
      3          6           0        0.570400   -0.000000    3.611208
      4          1           0        0.999997    0.000000   -0.489571
      5          1           0       -0.820853   -0.000000   -0.813771
      6          1           0        0.635422   -0.000000    4.672348
      7          6           0       -0.202802    0.000000    1.192870
 ---------------------------------------------------------------------
                    Distance matrix (angstroms):
                    1          2          3          4          5
     1  C    0.000000
     2  C    2.542176   0.000000
     3  C    3.751669   1.210828   0.000000
     4  H    1.088160   2.987700   4.123220   0.000000
     5  H    1.080812   3.437518   4.638536   1.849486   0.000000
     6  H    4.811046   2.268888   1.063130   5.174777   5.676111
     7  C    1.301312   1.343149   2.538936   2.068172   2.099666
                    6          7
     6  H    0.000000
     7  C    3.579020   0.000000
 Symmetry turned off by external request.
 Stoichiometry    C4H3(2)
 Framework group  C1[X(C4H3)]
 Deg. of freedom    15
 Full point group                 C1      NOp   1
 Rotational constants (GHZ):         171.6805978           4.3894549           4.2800251
 Leave Link  202 at Mon Oct 12 17:23:24 2020, MaxMem=   268435456 cpu:               0.0 elap:               0.0
 (Enter /home/spantaleone/g16/l301.exe)
 Standard basis: CC-pVTZ (5D, 7F)
 Ernie: Thresh=  0.10000D-02 Tol=  0.10000D-05 Strict=F.
 Ernie:  12 primitive shells out of 128 were deleted.
   162 basis functions,   259 primitive gaussians,   185 cartesian basis functions
    14 alpha electrons       13 beta electrons
       nuclear repulsion energy        83.3893246867 Hartrees.
 IExCor= 4336 DFT=T Ex+Corr=M062X ExCW=0 ScaHFX=  0.540000
 ScaDFX=  1.000000  1.000000  1.000000  1.000000 ScalE2=  1.000000  1.000000
[...]
 DD1Dir:  Pass   1 NRAB=    27 NRAA=     0 NRBB=     0 NR=    54.
 DD1Dir:  Pass   2 NRAB=    27 NRAA=     0 NRBB=     0 NR=    54.
 DD1Dir:  Pass   3 NRAB=    27 NRAA=     0 NRBB=     0 NR=    54.
 DD1Dir:  Pass   4 NRAB=     9 NRAA=    36 NRBB=     0 NR=    54.
 DD1Dir:  Pass   5 NRAB=     0 NRAA=     9 NRBB=    36 NR=    45.
 A-vector RMS=  1.9505638D-06 Max=  3.2396535D-05 conv= 1.00D-05.
 RLE energy=       -0.6344808758
 DE(Corr)= -0.63448024     E(CORR)=     -153.74508562     Delta=-3.33D-06
 NORM(A)=   0.11320848D+01
 Iteration Nr.  13
 **********************
 DD1Dir will call FoFJK   5 times, MxPair=        54
 NAB=    90 NAA=    45 NBB=    36 NumPrc=  8.
 DD1Dir:  Pass   1 NRAB=    27 NRAA=     0 NRBB=     0 NR=    54.
 DD1Dir:  Pass   2 NRAB=    27 NRAA=     0 NRBB=     0 NR=    54.
 DD1Dir:  Pass   3 NRAB=    27 NRAA=     0 NRBB=     0 NR=    54.
 DD1Dir:  Pass   4 NRAB=     9 NRAA=    36 NRBB=     0 NR=    54.
 DD1Dir:  Pass   5 NRAB=     0 NRAA=     9 NRBB=    36 NR=    45.
 A-vector RMS=  1.1886891D-06 Max=  1.5282790D-05 conv= 1.00D-05.
 RLE energy=       -0.6344818858
 DE(Corr)= -0.63448137     E(CORR)=     -153.74508674     Delta=-1.13D-06
 NORM(A)=   0.11320891D+01
 Iteration Nr.  14
 **********************
 DD1Dir will call FoFJK   5 times, MxPair=        54
 NAB=    90 NAA=    45 NBB=    36 NumPrc=  8.
 DD1Dir:  Pass   1 NRAB=    27 NRAA=     0 NRBB=     0 NR=    54.
 DD1Dir:  Pass   2 NRAB=    27 NRAA=     0 NRBB=     0 NR=    54.
 DD1Dir:  Pass   3 NRAB=    27 NRAA=     0 NRBB=     0 NR=    54.
 DD1Dir:  Pass   4 NRAB=     9 NRAA=    36 NRBB=     0 NR=    54.
 DD1Dir:  Pass   5 NRAB=     0 NRAA=     9 NRBB=    36 NR=    45.
 A-vector RMS=  7.6809108D-07 Max=  1.3364973D-05 conv= 1.00D-05.
 RLE energy=       -0.6344825228
 DE(Corr)= -0.63448217     E(CORR)=     -153.74508755     Delta=-8.05D-07
 NORM(A)=   0.11320926D+01
 Iteration Nr.  15
 **********************
 DD1Dir will call FoFJK   5 times, MxPair=        54
 NAB=    90 NAA=    45 NBB=    36 NumPrc=  8.
 DD1Dir:  Pass   1 NRAB=    27 NRAA=     0 NRBB=     0 NR=    54.
 DD1Dir:  Pass   2 NRAB=    27 NRAA=     0 NRBB=     0 NR=    54.
 DD1Dir:  Pass   3 NRAB=    27 NRAA=     0 NRBB=     0 NR=    54.
 DD1Dir:  Pass   4 NRAB=     9 NRAA=    36 NRBB=     0 NR=    54.
 DD1Dir:  Pass   5 NRAB=     0 NRAA=     9 NRBB=    36 NR=    45.
 A-vector RMS=  4.6366525D-07 Max=  7.3192746D-06 conv= 1.00D-05.
 RLE energy=       -0.6344827236
 DE(Corr)= -0.63448255     E(CORR)=     -153.74508792     Delta=-3.73D-07
 NORM(A)=   0.11320952D+01
 Iteration Nr.  16
 **********************
 DD1Dir will call FoFJK   5 times, MxPair=        54
 NAB=    90 NAA=    45 NBB=    36 NumPrc=  8.
 DD1Dir:  Pass   1 NRAB=    27 NRAA=     0 NRBB=     0 NR=    54.
 DD1Dir:  Pass   2 NRAB=    27 NRAA=     0 NRBB=     0 NR=    54.
 DD1Dir:  Pass   3 NRAB=    27 NRAA=     0 NRBB=     0 NR=    54.
 DD1Dir:  Pass   4 NRAB=     9 NRAA=    36 NRBB=     0 NR=    54.
 DD1Dir:  Pass   5 NRAB=     0 NRAA=     9 NRBB=    36 NR=    45.
 A-vector RMS=  2.5882013D-07 Max=  5.5850968D-06 conv= 1.00D-05.
 RLE energy=       -0.6344831286
 DE(Corr)= -0.63448298     E(CORR)=     -153.74508836     Delta=-4.36D-07
 NORM(A)=   0.11320969D+01
 Iteration Nr.  17
 **********************
 DD1Dir will call FoFJK   5 times, MxPair=        54
 NAB=    90 NAA=    45 NBB=    36 NumPrc=  8.
 DD1Dir:  Pass   1 NRAB=    27 NRAA=     0 NRBB=     0 NR=    54.
 DD1Dir:  Pass   2 NRAB=    27 NRAA=     0 NRBB=     0 NR=    54.
 DD1Dir:  Pass   3 NRAB=    27 NRAA=     0 NRBB=     0 NR=    54.
 DD1Dir:  Pass   4 NRAB=     9 NRAA=    36 NRBB=     0 NR=    54.
 DD1Dir:  Pass   5 NRAB=     0 NRAA=     9 NRBB=    36 NR=    45.
 A-vector RMS=  1.4142628D-07 Max=  2.6185519D-06 conv= 1.00D-05.
 RLE energy=       -0.6344831721
 DE(Corr)= -0.63448311     E(CORR)=     -153.74508848     Delta=-1.24D-07
 NORM(A)=   0.11320975D+01
 Iteration Nr.  18
 **********************
 DD1Dir will call FoFJK   5 times, MxPair=        54
 NAB=    90 NAA=    45 NBB=    36 NumPrc=  8.
 DD1Dir:  Pass   1 NRAB=    27 NRAA=     0 NRBB=     0 NR=    54.
 DD1Dir:  Pass   2 NRAB=    27 NRAA=     0 NRBB=     0 NR=    54.
 DD1Dir:  Pass   3 NRAB=    27 NRAA=     0 NRBB=     0 NR=    54.
 DD1Dir:  Pass   4 NRAB=     9 NRAA=    36 NRBB=     0 NR=    54.
 DD1Dir:  Pass   5 NRAB=     0 NRAA=     9 NRBB=    36 NR=    45.
 A-vector RMS=  7.4553860D-08 Max=  1.2894589D-06 conv= 1.00D-05.
 RLE energy=       -0.6344831858
 DE(Corr)= -0.63448318     E(CORR)=     -153.74508856     Delta=-7.60D-08
 NORM(A)=   0.11320978D+01
 CI/CC converged in   18 iterations to DelEn=-7.60D-08 Conv= 1.00D-07 ErrA1= 7.46D-08 Conv= 1.00D-05
 Wavefunction amplitudes converged. E(Corr)=     -153.74508856    
 Largest amplitude= 8.58D-02
 Time for triples=     7362.01 seconds.
 T4(CCSD)= -0.36434901D-01
 T5(CCSD)=  0.93686809D-03
 CCSD(T)= -0.15378058659D+03
 Discarding MO integrals.
 Leave Link  913 at Mon Oct 12 18:11:31 2020, MaxMem=   327680000 cpu:           18191.8 elap:            2275.2
 (Enter /home/spantaleone/g16/l601.exe)
 Copying SCF densities to generalized density rwf, IOpCl= 0 IROHF=1.

 **********************************************************************

            Population analysis using the SCF Density.

 **********************************************************************

 Orbital symmetries:
       Occupied  (A) (A) (A) (A) (A) (A) (A) (A) (A) (A) (A) (A)
                 (A) (A)
       Virtual   (A) (A) (A) (A) (A) (A) (A) (A) (A) (A) (A) (A)
                 (A) (A) (A) (A) (A) (A) (A) (A) (A) (A) (A) (A)
                 (A) (A) (A) (A) (A) (A) (A) (A) (A) (A) (A) (A)
                 (A) (A) (A) (A) (A) (A) (A) (A) (A) (A) (A) (A)
                 (A) (A) (A) (A) (A) (A) (A) (A) (A) (A) (A) (A)
                 (A) (A) (A) (A) (A) (A) (A) (A) (A) (A) (A) (A)
                 (A) (A) (A) (A) (A) (A) (A) (A) (A) (A) (A) (A)
                 (A) (A) (A) (A) (A) (A) (A) (A) (A) (A) (A) (A)
                 (A) (A) (A) (A) (A) (A) (A) (A) (A) (A) (A) (A)
                 (A) (A) (A) (A) (A) (A) (A) (A) (A) (A) (A) (A)
                 (A) (A) (A) (A) (A) (A) (A) (A) (A) (A) (A) (A)
                 (A) (A) (A) (A) (A) (A) (A) (A) (A) (A) (A) (A)
                 (A) (A) (A) (A) (A) (A) (A) (A) (A) (A) (A) (A)
                 (A) (A) (A) (A) (A) (A) (A) (A) (A) (A) (A) (A)
                 (A) (A) (A) (A) (A) (A) (A) (A) (A) (A) (A) (A)
                 (A) (A) (A) (A) (A) (A) (A) (A) (A) (A) (A) (A)
                 (A) (A) (A) (A) (A) (A) (A) (A) (A) (A) (A) (A)
                 (A) (A) (A) (A) (A) (A) (A) (A) (A) (A) (A) (A)
                 (A) (A) (A) (A) (A) (A) (A) (A) (A) (A) (A) (A)
                 (A) (A) (A) (A) (A) (A) (A) (A) (A) (A) (A)
 The electronic state is 2-A.
 Alpha  occ. eigenvalues --  -11.27865 -11.26146 -11.25829 -11.25633  -1.11200
 Alpha  occ. eigenvalues --   -1.02804  -0.88817  -0.72608  -0.67855  -0.64112
 Alpha  occ. eigenvalues --   -0.49118  -0.49097  -0.35618  -0.30473
 Alpha virt. eigenvalues --    0.02934   0.03190   0.04467   0.06466   0.07220
 Alpha virt. eigenvalues --    0.08406   0.09020   0.10419   0.10584   0.10990
 Alpha virt. eigenvalues --    0.12834   0.13437   0.14446   0.15487   0.16832
 Alpha virt. eigenvalues --    0.18156   0.18632   0.19466   0.20496   0.21829
 Alpha virt. eigenvalues --    0.24028   0.24395   0.25939   0.26828   0.29223
 Alpha virt. eigenvalues --    0.29612   0.31237   0.32818   0.33035   0.33502
 Alpha virt. eigenvalues --    0.35633   0.35778   0.35997   0.37684   0.37893
 Alpha virt. eigenvalues --    0.38215   0.39188   0.39413   0.41158   0.42745
 Alpha virt. eigenvalues --    0.43069   0.43236   0.44816   0.45474   0.46107
 Alpha virt. eigenvalues --    0.47209   0.48695   0.50252   0.53213   0.53589
 Alpha virt. eigenvalues --    0.56736   0.60437   0.61370   0.62296   0.62397
 Alpha virt. eigenvalues --    0.63754   0.67297   0.74539   0.77568   0.80188
 Alpha virt. eigenvalues --    0.82358   0.82479   0.83002   0.84539   0.84880
 Alpha virt. eigenvalues --    0.86919   0.88436   0.89010   0.89590   0.91825
 Alpha virt. eigenvalues --    0.92250   0.93666   0.94491   0.94886   0.96607
 Alpha virt. eigenvalues --    0.97083   0.98525   0.99878   1.00480   1.03009
 Alpha virt. eigenvalues --    1.03042   1.04072   1.05355   1.06038   1.06391
 Alpha virt. eigenvalues --    1.07479   1.08137   1.10108   1.10164   1.10808
 Alpha virt. eigenvalues --    1.11765   1.14173   1.17751   1.18078   1.18561
 Alpha virt. eigenvalues --    1.22094   1.22780   1.23404   1.26770   1.28489
 Alpha virt. eigenvalues --    1.28659   1.33263   1.36333   1.40571   1.41553
 Alpha virt. eigenvalues --    1.45352   1.47719   1.51533   1.53338   1.54505
 Alpha virt. eigenvalues --    1.55478   1.56886   1.60180   1.60566   1.65853
 Alpha virt. eigenvalues --    1.68157   1.70758   1.71156   1.74289   1.75652
 Alpha virt. eigenvalues --    1.77235   1.77798   1.82819   1.82930   1.86666
 Alpha virt. eigenvalues --    1.92175   1.92465   1.93603   1.95090   2.02192
 Alpha virt. eigenvalues --    2.03365   2.03414   2.09028   2.14286   2.15137
 Alpha virt. eigenvalues --    2.21421   2.22642   2.25776   2.30600   2.36206
 Alpha virt. eigenvalues --    2.46050   2.51068   2.51438   2.52238   2.63958
 Alpha virt. eigenvalues --    2.65561   2.69861   2.90954   2.97088   3.07267
 Alpha virt. eigenvalues --    3.10860   3.11397   3.19374   3.19682   3.21030
 Alpha virt. eigenvalues --    3.24294   3.27916   3.29843   3.30116   3.30222
 Alpha virt. eigenvalues --    3.31049   3.32033   3.34391   3.37647   3.39539
 Alpha virt. eigenvalues --    3.42652   3.43541   3.43605   3.48595   3.50053
 Alpha virt. eigenvalues --    3.52273   3.52476   3.55100   3.59780   3.63112
 Alpha virt. eigenvalues --    3.63970   3.69566   3.70191   3.72381   3.74749
 Alpha virt. eigenvalues --    3.78695   3.78961   3.79631   3.80176   3.80642
 Alpha virt. eigenvalues --    3.83344   3.88237   3.96166   3.96171   3.96728
 Alpha virt. eigenvalues --    3.99417   4.02231   4.03768   4.14743   4.14968
 Alpha virt. eigenvalues --    4.21557   4.24377   4.27133   4.33055   4.34442
 Alpha virt. eigenvalues --    4.37690   4.40600   4.42134   4.51170   4.61139
 Alpha virt. eigenvalues --    4.63419   4.68486   4.71269   4.72221   4.80363
 Alpha virt. eigenvalues --    4.90899   4.91323   4.95006   4.95791   4.98879
 Alpha virt. eigenvalues --    5.08874   5.15864   5.29448   5.30762   5.35257
 Alpha virt. eigenvalues --    5.41017   5.45622   5.45781   5.77261   5.89419
 Alpha virt. eigenvalues --    5.99951   6.02493   6.14640   6.23963   6.51182
 Alpha virt. eigenvalues --    6.62009   6.87951   6.93984   7.07716   7.20607
 Alpha virt. eigenvalues --   15.84784  16.46635  18.48000  20.90706
          Condensed to atoms (all electrons):
               1          2          3          4          5          6
     1  C    6.672584  -0.418138   0.016692   0.393617   0.393367   0.004428
     2  C   -0.418138   6.129487  -1.145561  -0.031900  -0.031446  -0.096016
     3  C    0.016692  -1.145561   8.797158   0.017106   0.017028   0.471588
     4  H    0.393617  -0.031900   0.017106   0.346061  -0.008866   0.000841
     5  H    0.393367  -0.031446   0.017028  -0.008866   0.345559   0.000837
     6  H    0.004428  -0.096016   0.471588   0.000841   0.000837   0.278295
     7  C    0.070011   0.323641  -0.474554  -0.027182  -0.027145  -0.006116
               7
     1  C    0.070011
     2  C    0.323641
     3  C   -0.474554
     4  H   -0.027182
     5  H   -0.027145
     6  H   -0.006116
     7  C    5.546388
          Atomic-Atomic Spin Densities.
               1          2          3          4          5          6
     1  C    0.041282   0.007799   0.007292   0.019763   0.019923   0.000091
     2  C    0.007799   0.006349   0.009936   0.001969   0.001994   0.000071
     3  C    0.007292   0.009936   0.272481   0.000535   0.000532   0.007027
     4  H    0.019763   0.001969   0.000535   0.045477  -0.015519   0.000003
     5  H    0.019923   0.001994   0.000532  -0.015519   0.045515   0.000003
     6  H    0.000091   0.000071   0.007027   0.000003   0.000003   0.000476
     7  C   -0.111434  -0.029776  -0.073012  -0.028553  -0.028833  -0.000944
               7
     1  C   -0.111434
     2  C   -0.029776
     3  C   -0.073012
     4  H   -0.028553
     5  H   -0.028833
     6  H   -0.000944
     7  C    1.010688
 Mulliken charges and spin densities:
               1          2
     1  C   -1.132561  -0.015285
     2  C    1.269933  -0.001659
     3  C   -1.699458   0.224791
     4  H    0.310323   0.023675
     5  H    0.310665   0.023614
     6  H    0.346144   0.006728
     7  C    0.594956   0.738135
 Sum of Mulliken charges =  -0.00000   1.00000
 Mulliken charges and spin densities with hydrogens summed into heavy atoms:
               1          2
     1  C   -0.511574   0.032005
     2  C    1.269933  -0.001659
     3  C   -1.353315   0.231519
     7  C    0.594956   0.738135
 Electronic spatial extent (au):  <R**2>=            308.8070
 Charge=             -0.0000 electrons
 Dipole moment (field-independent basis, Debye):
    X=              0.1782    Y=              0.0015    Z=              0.0000  Tot=              0.1782
 Quadrupole moment (field-independent basis, Debye-Ang):
   XX=            -15.3997   YY=            -24.4661   ZZ=            -26.4532
   XY=             -0.0015   XZ=              0.0000   YZ=             -0.0000
 Traceless Quadrupole moment (field-independent basis, Debye-Ang):
   XX=              6.7066   YY=             -2.3597   ZZ=             -4.3469
   XY=             -0.0015   XZ=              0.0000   YZ=             -0.0000
 Octapole moment (field-independent basis, Debye-Ang**2):
  XXX=            -12.7117  YYY=              0.0058  ZZZ=              0.0000  XYY=              5.3274
  XXY=              0.0059  XXZ=              0.0000  XZZ=              0.0767  YZZ=              0.0006
  YYZ=              0.0000  XYZ=             -0.0000
 Hexadecapole moment (field-independent basis, Debye-Ang**3):
 XXXX=           -278.0121 YYYY=            -35.5861 ZZZZ=            -32.8474 XXXY=             -0.0416
 XXXZ=              0.0000 YYYX=              0.0070 YYYZ=              0.0000 ZZZX=              0.0000
 ZZZY=              0.0000 XXYY=            -68.0533 XXZZ=            -76.7047 YYZZ=            -11.8420
 XXYZ=             -0.0000 YYXZ=              0.0000 ZZXY=              0.0000
 N-N= 8.288997116808D+01 E-N=-5.219400832695D+02  KE= 1.529125515883D+02
                          Isotropic Fermi Contact Couplings
        Atom                 a.u.       MegaHertz       Gauss      10(-4) cm-1
     1  C(13)              0.00000       0.00017       0.00006       0.00006
     2  C(13)              0.00000       0.00020       0.00007       0.00007
     3  C(13)              0.00000       0.00000       0.00000       0.00000
     4  H(1)               0.01428      63.84863      22.78278      21.29761
     5  H(1)               0.01427      63.77912      22.75798      21.27442
     6  H(1)               0.00000       0.00000       0.00000       0.00000
     7  C(13)              0.00000       0.00095       0.00034       0.00032
 --------------------------------------------------------
       Center         ----  Spin Dipole Couplings  ----
                      3XX-RR        3YY-RR        3ZZ-RR
 --------------------------------------------------------
     1   Atom        0.043548     -0.004477     -0.039071
     2   Atom        0.061321     -0.012764     -0.048557
     3   Atom       -0.122021      0.264312     -0.142291
     4   Atom        0.012427     -0.001696     -0.010731
     5   Atom        0.012481     -0.001749     -0.010733
     6   Atom        0.019080      0.000129     -0.019209
     7   Atom       -0.441859      0.901407     -0.459548
 --------------------------------------------------------
                        XY            XZ            YZ
 --------------------------------------------------------
     1   Atom        0.000068     -0.000000     -0.000000
     2   Atom       -0.000008     -0.000000     -0.000000
     3   Atom        0.000161     -0.000000     -0.000000
     4   Atom        0.010696      0.000000      0.000000
     5   Atom       -0.010671      0.000000     -0.000000
     6   Atom       -0.000008      0.000000     -0.000000
     7   Atom       -0.000017     -0.000000     -0.000000
 --------------------------------------------------------


 ---------------------------------------------------------------------------------
              Anisotropic Spin Dipole Couplings in Principal Axis System
 ---------------------------------------------------------------------------------

       Atom             a.u.   MegaHertz   Gauss  10(-4) cm-1        Axes

              Baa    -0.0391    -5.243    -1.871    -1.749  0.0000  0.0000  1.0000
     1 C(13)  Bbb    -0.0045    -0.601    -0.214    -0.200 -0.0014  1.0000 -0.0000
              Bcc     0.0435     5.844     2.085     1.949  1.0000  0.0014 -0.0000
 
              Baa    -0.0486    -6.516    -2.325    -2.173  0.0000  0.0000  1.0000
     2 C(13)  Bbb    -0.0128    -1.713    -0.611    -0.571  0.0001  1.0000 -0.0000
              Bcc     0.0613     8.229     2.936     2.745  1.0000 -0.0001 -0.0000
 
              Baa    -0.1423   -19.094    -6.813    -6.369  0.0000  0.0000  1.0000
     3 C(13)  Bbb    -0.1220   -16.374    -5.843    -5.462  1.0000 -0.0004 -0.0000
              Bcc     0.2643    35.468    12.656    11.831  0.0004  1.0000 -0.0000
 
              Baa    -0.0107    -5.726    -2.043    -1.910  0.0000 -0.0000  1.0000
     4 H(1)   Bbb    -0.0075    -3.975    -1.419    -1.326 -0.4738  0.8806  0.0000
              Bcc     0.0182     9.701     3.462     3.236  0.8806  0.4738  0.0000
 
              Baa    -0.0107    -5.726    -2.043    -1.910  0.0000  0.0000  1.0000
     5 H(1)   Bbb    -0.0075    -3.980    -1.420    -1.327  0.4718  0.8817 -0.0000
              Bcc     0.0182     9.706     3.463     3.238  0.8817 -0.4718  0.0000
 
              Baa    -0.0192   -10.249    -3.657    -3.419 -0.0000  0.0000  1.0000
     6 H(1)   Bbb     0.0001     0.069     0.025     0.023  0.0004  1.0000 -0.0000
              Bcc     0.0191    10.180     3.633     3.396  1.0000 -0.0004  0.0000
 
              Baa    -0.4595   -61.667   -22.004   -20.570  0.0000  0.0000  1.0000
     7 C(13)  Bbb    -0.4419   -59.293   -21.157   -19.778  1.0000  0.0000 -0.0000
              Bcc     0.9014   120.960    43.162    40.348 -0.0000  1.0000 -0.0000
 

 ---------------------------------------------------------------------------------

 No NMR shielding tensors so no spin-rotation constants.
 Leave Link  601 at Mon Oct 12 18:11:31 2020, MaxMem=   327680000 cpu:               2.7 elap:               0.4
 (Enter /home/spantaleone/g16/l9999.exe)
 1\1\GINC-N1054\SP\ROCCSD(T)-FC\Aug-CC-pVTZ\C4H3(2)\SPANTALEONE\12-Oct-
 2020\0\\#P ROCCSD(T)/aug-cc-pvtz geom=allcheck guess=read\\Title\\0,2\
 C,0,0.0484026177,0.0000000305,-0.1398619072\C,0,0.3130303947,0.0000000
 054,2.4713920706\C,0,0.4367054595,-0.0000000061,3.6876705806\H,0,0.911
 8316789,-0.0000000123,-0.8000318158\H,0,-0.9290978321,-0.0000000258,-0
 .6149200285\H,0,0.5444472665,-0.0000000097,4.7444113938\C,0,0.17857114
 5,0.000000018,1.1530971054\\Version=ES64L-G16RevB.01\State=2-A\HF=-153
 .1106054\MP2=-153.7265487\MP3=-153.7405648\PUHF=-153.1106054\PMP2-0=-1
 53.7265487\MP4SDQ=-153.7442475\CCSD=-153.7450886\CCSD(T)=-153.7805866\
 RMSD=4.536e-09\PG=C01 [X(C4H3)]\\@


 MISERY NO LONGER LOVES COMPANY.  NOWADAYS IT INSISTS ON IT.

                                              -- BAKER'S LAW
 Job cpu time:       0 days  5 hours 25 minutes 15.5 seconds.
 Elapsed time:       0 days  0 hours 40 minutes 40.8 seconds.
 File lengths (MBytes):  RWF=  13039 Int=      0 D2E=      0 Chk=      9 Scr=      1
 Normal termination of Gaussian 16 at Mon Oct 12 18:11:35 2020.
