$hessian                                                                        
        1.4005663203   0.2149585973  -0.2756103085  -0.6788835692  -0.1099114665
        0.0636380616  -0.6258249881  -0.1034319082   0.1919209666  -0.0441603442
       -0.0006157485   0.0082440266  -0.0516974187  -0.0009994741   0.0118072536
        0.2149585973   0.1314099938  -0.0461494093  -0.1267210460  -0.0630691680
       -0.0034983303  -0.1152584765  -0.0636473959   0.0554654091   0.0145129922
       -0.0023309843   0.0022448891   0.0125079330  -0.0023624457  -0.0080625586
       -0.2756103085  -0.0461494093   0.1727763261   0.0714074583   0.0042817013
       -0.0560204407   0.1840607370   0.0415017017  -0.1096017559   0.0282890801
        0.0009622959  -0.0071981430  -0.0081469670  -0.0005962896   0.0000440136
       -0.6788835692  -0.1267210460   0.0714074583   0.7693245244   0.0485636198
       -0.1711274920  -0.0051358142   0.0049450371  -0.0106988615  -0.0893191137
        0.0818926724   0.1088504808   0.0040139727  -0.0086802834   0.0015684144
       -0.1099114665  -0.0630691680   0.0042817013   0.0485636198   0.1385945020
        0.0906361352  -0.0038144979   0.0005653797  -0.0199841842   0.0602963181
       -0.0846362002  -0.0890460819   0.0048660265   0.0085454865   0.0141124296
        0.0636380616  -0.0034983303  -0.0560204407  -0.1711274920   0.0906361352
        0.1823694457   0.0204754158   0.0195865304   0.0163254491   0.0875016511
       -0.0981690725  -0.1406668238  -0.0004876365  -0.0085552628  -0.0020076303
       -0.6258249881  -0.1152584765   0.1840607370  -0.0051358142  -0.0038144979
        0.0204754158   0.8004128031   0.0065364957  -0.1065228856   0.0025895811
       -0.0043609618  -0.0037782653  -0.1720415817   0.1168974406  -0.0942350019
       -0.1034319082  -0.0636473959   0.0415017017   0.0049450371   0.0005653797
        0.0195865304   0.0065364957   0.1411948487  -0.1029167786  -0.0013057118
        0.0085596162  -0.0147801608   0.0932560871  -0.0866724488   0.0566087073
        0.1919209666   0.0554654091  -0.1096017559  -0.0106988615  -0.0199841842
        0.0163254491  -0.1065228856  -0.1029167786   0.1512858775  -0.0015723693
        0.0114376622  -0.0006145549  -0.0731268502   0.0559978915  -0.0573950158
       -0.0441603442   0.0145129922   0.0282890801  -0.0893191137   0.0602963181
        0.0875016511   0.0025895811  -0.0013057118  -0.0015723693   0.1309773103
       -0.0743423887  -0.1146709355  -0.0000874334   0.0008387901   0.0004525736
       -0.0006157485  -0.0023309843   0.0009622959   0.0818926724  -0.0846362002
       -0.0981690725  -0.0043609618   0.0085596162   0.0114376622  -0.0743423887
        0.0817393574   0.0935127604  -0.0025735734  -0.0033317891  -0.0077436461
        0.0082440266   0.0022448891  -0.0071981430   0.1088504808  -0.0890460819
       -0.1406668238  -0.0037782653  -0.0147801608  -0.0006145549  -0.1146709355
        0.0935127604   0.1445775033   0.0013546935   0.0080685932   0.0039020183
       -0.0516974187   0.0125079330  -0.0081469670   0.0040139727   0.0048660265
       -0.0004876365  -0.1720415817   0.0932560871  -0.0731268502  -0.0000874334
       -0.0025735734   0.0013546935   0.2198124611  -0.1080564732   0.0804067603
       -0.0009994741  -0.0023624457  -0.0005962896  -0.0086802834   0.0085454865
       -0.0085552628   0.1168974406  -0.0866724488   0.0559978915   0.0008387901
       -0.0033317891   0.0080685932  -0.1080564732   0.0838211971  -0.0549149322
        0.0118072536  -0.0080625586   0.0000440136   0.0015684144   0.0141124296
       -0.0020076303  -0.0942350019   0.0566087073  -0.0573950158   0.0004525736
       -0.0077436461   0.0039020183   0.0804067603  -0.0549149322   0.0554566142
