5
 energy: -9.078033304543 gnorm: 0.071884673321 xtb: 6.2.2 (9d81278992624c895f80dd42a50cac0aa55982e2)
O         0.09297000000000   -0.00253500000000    0.86423200000000
C        -1.16183300000000    0.07393600000000    0.26191800000000
C         0.98902900000000   -0.06920400000000   -0.20150400000000
H        -1.94544500000000    0.13102900000000    1.04532100000000
H         2.02527900000000   -0.13322600000000    0.18979400000000
5
 energy: -9.084449006570 gnorm: 0.031077163367 xtb: 6.2.2 (9d81278992624c895f80dd42a50cac0aa55982e2)
O         0.07397373523578   -0.00200793456403    0.77590356626623
C        -1.17590979684899    0.07469586677145    0.24253045916035
C         0.99388937646822   -0.06970575061217   -0.22497153598543
H        -1.88242479225763    0.12738078559089    1.10037387441740
H         1.99047147740263   -0.13036296718613    0.26592463614145
5
 energy: -9.085626975345 gnorm: 0.006734565545 xtb: 6.2.2 (9d81278992624c895f80dd42a50cac0aa55982e2)
O         0.06306086211909   -0.00169430274217    0.72515743151867
C        -1.18308428860916    0.07511888716618    0.23686821859350
C         0.99810123188872   -0.07003989393611   -0.23308716580937
H        -1.85039285198409    0.12550965418736    1.12722908755969
H         1.97231504658544   -0.12889434467527    0.30359342813752
5
 energy: -9.085694203458 gnorm: 0.003495745572 xtb: 6.2.2 (9d81278992624c895f80dd42a50cac0aa55982e2)
O         0.06114259419620   -0.00162328173358    0.71623233622294
C        -1.18844376854571    0.07547945685216    0.23823994973914
C         1.00355042976734   -0.07039491076602   -0.23404424497460
H        -1.84818411401828    0.12538623035354    1.13120541017336
H         1.97193485860044   -0.12884749470610    0.30812754883915
5
 energy: -9.085737532691 gnorm: 0.002628831719 xtb: 6.2.2 (9d81278992624c895f80dd42a50cac0aa55982e2)
O         0.05864749518526   -0.00151988741760    0.70462000485005
C        -1.19457351130748    0.07585378334473    0.23894287243081
C         1.00942726335900   -0.07074725041376   -0.23592781212672
H        -1.84313807484799    0.12509876408038    1.13681084312960
H         1.96963682761121   -0.12868540959374    0.31531509171626
5
 energy: -9.086054067202 gnorm: 0.023503856531 xtb: 6.2.2 (9d81278992624c895f80dd42a50cac0aa55982e2)
O         0.05228261373866   -0.00128197430945    0.67500539166741
C        -1.20882464535077    0.07575475232886    0.24209046149045
C         1.02371441650629   -0.07062166701030   -0.23891649277567
H        -1.83472226890592    0.12519226862285    1.15041063928531
H         1.96754988401174   -0.12904337963197    0.33117100033250
5
 energy: -9.099891829344 gnorm: 0.185046292778 xtb: 6.2.2 (9d81278992624c895f80dd42a50cac0aa55982e2)
O         0.01926524827609   -0.00025056827729    0.52144426171941
C        -1.28113334443365    0.06227650196156    0.26284160357882
C         1.09819761400960   -0.05714536003692   -0.24957651118198
H        -1.79563939898835    0.13304906133706    1.21710623884445
H         1.95930988113631   -0.13792963498441    0.40794540703930
5
 energy: -9.134195224258 gnorm: 0.158163728532 xtb: 6.2.2 (9d81278992624c895f80dd42a50cac0aa55982e2)
O        -0.01227689966009    0.00046503991188    0.37482731179935
C        -1.30116163406520   -0.05496035026842    0.33386492750283
C         1.14594277352382    0.05927277388342   -0.19175281738165
H        -1.76609661540117    0.19576651983540    1.22041944851835
H         1.93359237560265   -0.20054398336228    0.42240212956113
5
 energy: -9.157323426484 gnorm: 0.108216786713 xtb: 6.2.2 (9d81278992624c895f80dd42a50cac0aa55982e2)
O        -0.00855327964421    0.00019108146385    0.39223157760100
C        -1.15363914907259   -0.24515978450916    0.37479803254189
C         1.02877961388051    0.24856563504073   -0.09163097824700
H        -1.75067356688581    0.29220718146891    1.13478471980624
H         1.88408638172211   -0.29580411346434    0.34957764829787
5
 energy: -9.140495643649 gnorm: 0.129549800368 xtb: 6.2.2 (9d81278992624c895f80dd42a50cac0aa55982e2)
O        -0.02775375634105    0.00093874805515    0.30268962317126
C        -1.25537234367678   -0.37133318161647    0.38754724819736
C         1.12703876002855    0.37493162327342   -0.12043971209891
H        -1.76423782477984    0.36539673765253    1.19335910798656
H         1.92032516476912   -0.36993392736464    0.39660473274373
5
 energy: -9.162312572197 gnorm: 0.068810492562 xtb: 6.2.2 (9d81278992624c895f80dd42a50cac0aa55982e2)
O        -0.02774016854114    0.00092116669736    0.30275318983131
C        -1.25229529068966   -0.21044071203064    0.39411551135466
C         1.12653015481827    0.21396217984566   -0.11498138035882
H        -1.77981670841843    0.27915714341378    1.18987995125346
H         1.93332201283096   -0.28359977792615    0.38799372791940
5
 energy: -9.162153394466 gnorm: 0.081323493585 xtb: 6.2.2 (9d81278992624c895f80dd42a50cac0aa55982e2)
O        -0.01786634424946    0.00019471463000    0.34931414690154
C        -1.16324181423494   -0.24601628731685    0.40876639282072
C         1.05151658999207    0.24895642177377   -0.06450297996290
H        -1.76937351834221    0.29447632111671    1.12935152793672
H         1.89896508683455   -0.29761117020363    0.33683191230392
5
 energy: -9.166380703156 gnorm: 0.009173465896 xtb: 6.2.2 (9d81278992624c895f80dd42a50cac0aa55982e2)
O        -0.02205473775248    0.00121651392058    0.32874773379782
C        -1.20870713128637   -0.24109688225766    0.40843555429320
C         1.09273333674269    0.24454055381854   -0.08370480263855
H        -1.78788717588123    0.29426034933550    1.15422454607010
H         1.92591570817739   -0.29892053481697    0.35205796847743
5
 energy: -9.166452614434 gnorm: 0.007195703088 xtb: 6.2.2 (9d81278992624c895f80dd42a50cac0aa55982e2)
O        -0.02416000305590   -0.00566187973475    0.32311964620925
C        -1.20606417786271   -0.24160735134594    0.41139033614298
C         1.09161217623457    0.24208349923585   -0.07944523324312
H        -1.78892218337313    0.29867695736149    1.15390219285727
H         1.92753418805718   -0.29349122551665    0.35079405803362
5
 energy: -9.165139908462 gnorm: 0.051055734402 xtb: 6.2.2 (9d81278992624c895f80dd42a50cac0aa55982e2)
O        -0.02374845158026    0.04391565781329    0.30149765942862
C        -1.19498962383236   -0.22804377929587    0.42604732139321
C         1.08710591127571    0.24924252574652   -0.06401696541401
H        -1.79984694417300    0.26200382758898    1.15027217269452
H         1.93147910830990   -0.32711823185293    0.34596081189766
5
 energy: -9.166491258448 gnorm: 0.001092050981 xtb: 6.2.2 (9d81278992624c895f80dd42a50cac0aa55982e2)
O        -0.02426548978310    0.00280355454892    0.32088538511436
C        -1.20443217392418   -0.23977863986248    0.41497064349012
C         1.09201152359108    0.24374406881840   -0.07545213551144
H        -1.79418612304237    0.29291837125178    1.15223542849097
H         1.93087226315857   -0.29968735475664    0.34712167841600
5
 energy: -9.166489637961 gnorm: 0.002522288505 xtb: 6.2.2 (9d81278992624c895f80dd42a50cac0aa55982e2)
O        -0.02241173414350   -0.00099773900458    0.32227528875852
C        -1.20422910213704   -0.24088313418407    0.41638417582516
C         1.09212979160041    0.24328702628748   -0.07561741577892
H        -1.79677565151179    0.29587284940976    1.15071864274906
H         1.93128669619191   -0.29727900250860    0.34600030844618
5
 energy: -9.166492723781 gnorm: 0.000671810040 xtb: 6.2.2 (9d81278992624c895f80dd42a50cac0aa55982e2)
O        -0.02322077034073    0.00017819541932    0.32237424602688
C        -1.20438095968664   -0.24060944902976    0.41611044038480
C         1.09217796838040    0.24349301611789   -0.07516416210354
H        -1.79636589493900    0.29503366678070    1.15082855125953
H         1.93178965658597   -0.29809542928815    0.34561192443233
