[Molden Format]
[Title]
[Atoms] AU
O      1     8 -0.43878764000352E-01  0.33803350941417E-03  0.60919913068297E+00
C      2     6 -0.22759495882083E+01 -0.45467263022606E+00  0.78634343510336E+00
C      3     6  0.20639189615038E+01  0.46012401647582E+00 -0.14204767509996E+00
H      4     1 -0.33946287354687E+01  0.55755434592888E+00  0.21747614529388E+01
H      5     1  0.36505523728323E+01 -0.56333664245193E+00  0.65310006232388E+00
[GTO]
           1 0
 s           4   1.0000000000000000     
   69.137961906196551      -0.20478756370077797     
   11.906129132707308      -0.24997023136827334     
  0.95670827744340703       0.40025880240639616     
  0.36462520496073686       0.15952206667693555     
 p           4   1.0000000000000000     
   8.2124193257781641        1.1321556799186829     
   2.1293576997098116        1.0476840782254817     
  0.75066448202360914       0.54956508217158984     
  0.29885246543283073        8.2908486592766617E-002

           2 0
 s           4   1.0000000000000000     
   51.049363095579913      -0.16312063210127389     
   8.7911227406887544      -0.19911024581000730     
  0.70640422258929825       0.31882047753655751     
  0.26922813413411617       0.12706504184240380     
 p           4   1.0000000000000000     
   5.8263656140800002       0.73716451545209605     
   1.5106896018720002       0.68216371614850257     
  0.53256483288000001       0.35783053929253711     
  0.21202323690600003        5.3983030275847881E-002

           3 0
 s           4   1.0000000000000000     
   51.049363095579913      -0.16312063210127389     
   8.7911227406887544      -0.19911024581000730     
  0.70640422258929825       0.31882047753655751     
  0.26922813413411617       0.12706504184240380     
 p           4   1.0000000000000000     
   5.8263656140800002       0.73716451545209605     
   1.5106896018720002       0.68216371614850257     
  0.53256483288000001       0.35783053929253711     
  0.21202323690600003        5.3983030275847881E-002

           4 0
 s           3   1.0000000000000000     
   3.3702276975336001       0.27359110588908298     
  0.61389118221497996       0.26460540653860526     
  0.16614291148415999        8.2465947534082318E-002

           5 0
 s           3   1.0000000000000000     
   3.3702276975336001       0.27359110588908298     
  0.61389118221497996       0.26460540653860526     
  0.16614291148415999        8.2465947534082318E-002

[MO]
Sym=     1a
Ene=  -0.78414911446381674     
Spin= Alpha
Occup=     2.00000000
           1 -0.76750699125504729     
           2   5.0894330299466294E-003
           3  -2.7648113294259972E-004
           4   2.4224459455536657E-002
           5 -0.15695180819400020     
           6 -0.13615893901561982     
           7  -2.6424441998225121E-002
           8   1.4146590340852291E-002
           9 -0.15716943714661896     
          10  0.13010972935747608     
          11   2.6685342287420980E-002
          12  -4.2854615866118329E-002
          13  -4.3148289803213230E-003
          14  -4.3717392168372924E-003
Sym=     2a
Ene=  -0.72899454856029211     
Spin= Alpha
Occup=     2.00000000
           1   3.2351679636645757E-004
           2 -0.59216586832910012     
           3 -0.12153172101800533     
           4  0.12668384724330997     
           5  0.30372512954033609     
           6  0.14220238954277711     
           7   2.6475650949774266E-002
           8   2.9330136551866965E-003
           9 -0.30371891185891925     
          10  0.12830386218538256     
          11   2.6997849825790895E-002
          12  -6.0829633864434171E-002
          13   4.8778452302476544E-002
          14  -4.8940202345431255E-002
Sym=     3a
Ene=  -0.62527724111834715     
Spin= Alpha
Occup=     2.00000000
           1   8.2093810314449442E-002
           2  0.17276239879726152     
           3  -2.4830209957874994E-002
           4  0.78687130690867435     
           5  -3.9045818519275230E-002
           6   9.4676907569500920E-003
           7  -1.3846425205858621E-002
           8  0.25634509425035984     
           9  -3.9260786369301623E-002
          10  0.10051542961786133     
          11  -1.7820006205717764E-003
          12  0.23709635932232936     
          13   5.2920669353658217E-002
          14   5.6717822636436474E-002
Sym=     4a
Ene=  -0.62498044661528362     
Spin= Alpha
Occup=     2.00000000
           1   1.8721881960129321E-003
           2 -0.12670101743425141     
           3  0.78967143688261121     
           4   5.3053768825366256E-002
           5  -4.2218382906605897E-003
           6  -6.8419164179064476E-002
           7  0.24945204064067511     
           8   2.4105702164257881E-002
           9   2.3946304647324583E-003
          10  -6.6846944271876638E-002
          11  0.24992627935457937     
          12   2.1223352614977868E-002
          13   7.1550118245573030E-002
          14  -6.8819984933738226E-002
Sym=     5a
Ene=  -0.53684196305713694     
Spin= Alpha
Occup=     2.00000000
           1  0.17619875196188733     
           2   2.4913571912581211E-002
           3  -8.4913048608248256E-004
           4  0.11344658477549013     
           5 -0.39101038240549962     
           6  0.22343745292232459     
           7  -4.7616254434275689E-002
           8  -5.6029813921340189E-002
           9 -0.39132051871689782     
          10 -0.22763287291566237     
          11   4.7464031641287929E-002
          12   4.1299193975808002E-002
          13 -0.34269653471315231     
          14 -0.34359073200860080     
Sym=     6a
Ene=  -0.50336778609312438     
Spin= Alpha
Occup=     2.00000000
           1   5.1507474423216702E-005
           2 -0.25807864802178698     
           3  0.14664809005627358     
           4   5.6307573270982909E-002
           5 -0.24479053826727307     
           6  0.31513729358723752     
           7   6.1023293311652016E-002
           8 -0.14695876388120510     
           9  0.24390564181472396     
          10  0.34715975276661554     
          11   6.0660662451833984E-002
          12   5.0920459264388162E-003
          13 -0.36164169004163382     
          14  0.36059939591261231     
Sym=     7a
Ene=  -0.36848018903326951     
Spin= Alpha
Occup=     2.00000000
           1   5.9634439068175227E-002
           2  -2.3988822500208822E-002
           3   1.0965763222519978E-003
           4 -0.11139375423474465     
           5 -0.31568899858746297     
           6   3.9179733888189773E-002
           7  0.61136894053377278     
           8   4.1991836038154796E-002
           9 -0.31722229791182210     
          10  -1.9280081186044781E-002
          11 -0.61204676864929708     
          12   5.0892877098037609E-002
          13  0.16321559232610294     
          14  0.16391714308886554     
Sym=     8a
Ene=  -0.36522743232432159     
Spin= Alpha
Occup=     2.00000000
           1   2.6342123470560110E-004
           2  -4.9876981410662442E-002
           3 -0.10938148404943546     
           4   9.9951014827318052E-003
           5 -0.30073830120591272     
           6  0.25666126527272831     
           7   7.7510981708229426E-002
           8  0.56862958013625953     
           9  0.29919050129763747     
          10   3.7257770078276159E-004
          11   8.1181466333370644E-002
          12 -0.62272476956344114     
          13  0.13908110000369356     
          14 -0.13815061253518526     
Sym=     9a
Ene=  -0.23025527763538986     
Spin= Alpha
Occup=     0.00000000
           1   6.6811541336884756E-004
           2   8.4128313168407839E-002
           3 -0.59033128405965873     
           4  -1.9143972482828845E-002
           5 -0.18689652431212866     
           6   2.6089679390097771E-002
           7  0.58760420126734825     
           8 -0.25294981106916331     
           9  0.18805892455546178     
          10  0.12911917316575533     
          11  0.58375975187216500     
          12  0.22140705786182016     
          13  0.19874147409052056     
          14 -0.19971876784499948     
Sym=    10a
Ene=  -0.22893570393688298     
Spin= Alpha
Occup=     0.00000000
           1  -6.4023691938942667E-002
           2 -0.12549555204354840     
           3   1.0347642504045784E-003
           4 -0.58467401181445255     
           5 -0.19928052842645347     
           6  0.25933780042872423     
           7 -0.21943989824617713     
           8  0.53827742121286692     
           9 -0.19775003574506486     
          10  -1.3728054181053948E-002
          11  0.21727231209060793     
          12  0.60136893277200587     
          13  0.18860327474986138     
          14  0.18691822156539512     
Sym=    11a
Ene=   0.14360510673176022     
Spin= Alpha
Occup=     0.00000000
           1  0.71261089240859099     
           2   6.0923292695342383E-003
           3   1.7539760035475080E-003
           4   3.3693724781402049E-002
           5 -0.65288736447081042     
           6 -0.27879352740027546     
           7 -0.34987910027961888     
           8 -0.29763255633205399     
           9 -0.64717759894157645     
          10  0.13776337585661680     
          11  0.34846193827982141     
          12 -0.37929483400191660     
          13  0.57222984402477761     
          14  0.56327565788778955     
Sym=    12a
Ene=   0.23209411216085182     
Spin= Alpha
Occup=     0.00000000
           1  -9.4392258957946996E-003
           2  -6.6665914061439860E-002
           3  0.23696441210799810     
           4   1.7400759266372162E-002
           5 -0.45273512131810772     
           6  0.37246283214111831     
           7 -0.39226735281106506     
           8 -0.42853807920829950     
           9  0.46120137873481887     
          10  0.50302597768166035     
          11 -0.39906988088798356     
          12  0.23703919411441271     
          13  0.78920410699671228     
          14 -0.78981414038789111     
Sym=    13a
Ene=   0.29731260714058427     
Spin= Alpha
Occup=     0.00000000
           1 -0.80247793225716868     
           2   6.0457036479973407E-002
           3  -3.3526817210493892E-003
           4  0.27855640530389936     
           5  -4.6477157083670744E-003
           6  0.72084327166592566     
           7  -9.5659503435757243E-002
           8 -0.41256556749497575     
           9  -1.0722408525787840E-002
          10 -0.83308522141185781     
          11  0.10317765223901330     
          12  -8.1886494484729608E-002
          13  0.55116519318829627     
          14  0.56146109200083405     
Sym=    14a
Ene=   0.95923228459575016     
Spin= Alpha
Occup=     0.00000000
           1  -7.2805341243715094E-004
           2  -1.2075852696653213     
           3 -0.25939177983398398     
           4  0.25836401214476290     
           5 -0.66002355581444350     
           6 -0.76512549394380203     
           7 -0.14321163329630951     
           8   3.4159875922578416E-002
           9  0.66100843400153197     
          10 -0.71202445184319663     
          11 -0.14570836915286964     
          12  0.28229061664506189     
          13  -3.0357506039308119E-002
          14   2.9653864264212806E-002
