      -----------------------------------------------------------      
     |                   =====================                   |     
     |                           x T B                           |     
     |                   =====================                   |     
     |                         S. Grimme                         |     
     |          Mulliken Center for Theoretical Chemistry        |     
     |                    University of Bonn                     |     
      -----------------------------------------------------------      

   * xtb version 6.2.2 (9d81278992624c895f80dd42a50cac0aa55982e2) compiled by '@Darwin' on 04/03/2020

   xtb is free software: you can redistribute it and/or modify it under
   the terms of the GNU Lesser General Public License as published by
   the Free Software Foundation, either version 3 of the License, or
   (at your option) any later version.
   
   xtb is distributed in the hope that it will be useful,
   but WITHOUT ANY WARRANTY; without even the implied warranty of
   MERCHANTABILITY or FITNESS FOR A PARTICULAR PURPOSE.  See the
   GNU Lesser General Public License for more details.
   
   Cite this work as:
   * S. Grimme, C. Bannwarth, P. Shushkov, J. Chem. Theory Comput., 2017,
     13, 1989-2009. DOI: 10.1021/acs.jctc.7b00118
   * C. Bannwarth, S. Ehlert and S. Grimme., J. Chem. Theory Comput., 2019,
     15, 1652-1671. DOI: 10.1021/acs.jctc.8b01176
   * P. Pracht, E. Caldeweyher, S. Ehlert, S. Grimme, ChemRxiv, 2019, preprint.
     DOI: 10.26434/chemrxiv.8326202.v1
   
   for DFT-D4:
   * E. Caldeweyher, C. Bannwarth and S. Grimme, J. Chem. Phys., 2017,
     147, 034112. DOI: 10.1063/1.4993215
   * E. Caldeweyher, S. Ehlert, A. Hansen, H. Neugebauer, S. Spicher,
     C. Bannwarth and S. Grimme, J. Chem. Phys., 2019, 150, 154122.
     DOI: 10.1063/1.5090222
   
   for sTDA-xTB:
   * S. Grimme and C. Bannwarth, J. Chem. Phys., 2016, 145, 054103.
     DOI: 10.1063/1.4959605
   
   in the mass-spec context:
   * V. Asgeirsson, C. Bauer and S. Grimme, Chem. Sci., 2017, 8, 4879.
     DOI: 10.1039/c7sc00601b
   
   for metadynamics refer to:
   * S. Grimme, J. Chem. Theory Comput., 2019, 155, 2847-2862
     DOI: 10.1021/acs.jctc.9b00143
   
   with help from (in alphabetical order)
   C. Bannwarth, F. Bohle, G. Brandenburg, E. Caldeweyher, M. Checinski,
   S. Dohm, S. Ehlert, S. Ehrlich, F. März, H. Neugebauer, J. Pisarek,
   P. Pracht, P. Shushkov, and S. Spicher.
   
 * started run on 2020/05/12 at 11:45:14.983     

           -------------------------------------------------
          |                Calculation Setup                |
           -------------------------------------------------

          program call               : xtb --input H2C2O1_6_S_0.input H2C2O1_6_S_0.xyz --ohess --molden --namespace H2C2O1_6_S_0 output.out
          calculation namespace      : H2C2O1_6_S_0
          coordinate file            : H2C2O1_6_S_0.xyz
          number of atoms            :                     5
          number of electrons        :                    16
          charge                     :                     0
          spin                       :                   0.0
          first test random number   :      0.72991647159083

   ID    Z sym.   atoms
    1    8 O      1
    2    6 C      2, 3
    3    1 H      4, 5

           -------------------------------------------------
          |                 G F N 2 - x T B                 |
           -------------------------------------------------

        Reference                      10.1021/acs.jctc.8b01176
      * Hamiltonian:
        H0-scaling (s, p, d)           1.850000    2.230000    2.230000
        zeta-weighting                 0.500000
      * Dispersion:
        s8                             2.700000
        a1                             0.520000
        a2                             5.000000
        s9                             5.000000
      * Repulsion:
        kExp                           1.500000    1.000000
        rExp                           1.000000
      * Coulomb:
        alpha                          2.000000
        third order                    shell-resolved
        anisotropic                    true
        a3                             3.000000
        a5                             4.000000
        cn-shift                       1.200000
        cn-exp                         4.000000
        max-rad                        5.000000


          ...................................................
          :                      SETUP                      :
          :.................................................:
          :  # basis functions                  14          :
          :  # atomic orbitals                  14          :
          :  # shells                            8          :
          :  # electrons                        16          :
          :  max. iterations                   250          :
          :  Hamiltonian                  GFN2-xTB          :
          :  restarted?                      false          :
          :  GBSA solvation                  false          :
          :  PC potential                    false          :
          :  electronic temp.          300.0000000     K    :
          :  accuracy                    1.0000000          :
          :  -> integral cutoff          0.2500000E+02      :
          :  -> integral neglect         0.1000000E-07      :
          :  -> SCF convergence          0.1000000E-05 Eh   :
          :  -> wf. convergence          0.1000000E-03 e    :
          :  Broyden damping             0.4000000          :
          ...................................................

 iter      E             dE          RMSdq      gap      omega  full diag
   1     -9.1162238 -0.911622E+01  0.112E+01    0.79       0.0  T
   2     -9.1212352 -0.501145E-02  0.676E+00    0.70       1.0  T
   3     -9.1222630 -0.102779E-02  0.715E-01    0.58       1.0  T
   4     -9.1219351  0.327907E-03  0.682E-01    0.70       1.0  T
   5     -9.1231751 -0.123998E-02  0.269E-01    0.67       1.0  T
   6     -9.1231707  0.442827E-05  0.210E-01    0.63       1.0  T
   7     -9.1233387 -0.168036E-03  0.118E-02    0.65       3.8  T
   8     -9.1233389 -0.153336E-06  0.694E-03    0.65       6.4  T
   9     -9.1233390 -0.119552E-06  0.362E-04    0.66     123.7  T
  10     -9.1233390 -0.146651E-09  0.151E-04    0.66     296.1  T

   *** convergence criteria satisfied after 10 iterations ***

         #    Occupation            Energy/Eh            Energy/eV
      -------------------------------------------------------------
         1        2.0000           -0.7613069             -20.7162
         2        2.0000           -0.6832849             -18.5931
         3        2.0000           -0.6293121             -17.1245
         4        2.0000           -0.5815396             -15.8245
         5        2.0000           -0.5626770             -15.3112
         6        2.0000           -0.5283372             -14.3768
         7        2.0000           -0.4119607             -11.2100
         8        2.0000           -0.4017811             -10.9330 (HOMO)
         9        0.0000           -0.3776837             -10.2773 (LUMO)
        10                         -0.3154965              -8.5851
        11                          0.0427695               1.1638
        12                          0.1002176               2.7271
        13                          0.1166065               3.1730
        14                          0.1764327               4.8010
      -------------------------------------------------------------
                  HL-Gap            0.0240974 Eh            0.6557 eV
             Fermi-level           -0.3897324 Eh          -10.6052 eV

 SCC (total)                   0 d,  0 h,  0 min,  0.003 sec
 SCC setup                      ...        0 min,  0.000 sec (  3.417%)
 Dispersion                     ...        0 min,  0.000 sec (  0.536%)
 integral evaluation            ...        0 min,  0.001 sec ( 27.725%)
 zeroth order Hamiltonian       ...        0 min,  0.000 sec (  0.683%)
 iterations                     ...        0 min,  0.001 sec ( 37.344%)
 molecular gradient             ...        0 min,  0.001 sec ( 27.725%)
 printout                       ...        0 min,  0.000 sec (  2.171%)

         :::::::::::::::::::::::::::::::::::::::::::::::::::::
         ::                     SUMMARY                     ::
         :::::::::::::::::::::::::::::::::::::::::::::::::::::
         :: total energy              -9.078033302990 Eh    ::
         :: gradient norm              0.071883198525 Eh/a0 ::
         :: HOMO-LUMO gap              0.655723397506 eV    ::
         ::.................................................::
         :: SCC energy                -9.123338977986 Eh    ::
         :: -> isotropic ES           -0.004910568970 Eh    ::
         :: -> anisotropic ES         -0.000542397855 Eh    ::
         :: -> anisotropic XC          0.009737290921 Eh    ::
         :: -> dispersion             -0.001392203886 Eh    ::
         :: repulsion energy           0.045305758828 Eh    ::
         :: add. restraining           0.000000000000 Eh    ::
         :::::::::::::::::::::::::::::::::::::::::::::::::::::

      ----------------------------------------------------------- 
     |                   =====================                   |
     |                        A N C O P T                        |
     |                   =====================                   |
     |               Approximate Normal Coordinate               |
     |                Rational Function Optimizer                |
      ----------------------------------------------------------- 

          ...................................................
          :                      SETUP                      :
          :.................................................:
          :   optimization level            normal          :
          :   max. optcycles                   200          :
          :   ANC micro-cycles                  20          :
          :   degrees of freedom                 9          :
          :.................................................:
          :   RF solver                   davidson          :
          :   write xtbopt.log                true          :
          :   linear?                        false          :
          :   energy convergence         0.5000000E-05 Eh   :
          :   grad. convergence          0.1000000E-02 Eh/α :
          :   maximium RF displ.         1.0000000          :
          :   Hlow (freq-cutoff)         0.1000000E-01      :
          :   Hmax (freq-cutoff)         5.0000000          :
          :   S6 in model hess.         20.0000000          :
          ...................................................

generating ANC from model Hessian ...
Using Lindh-Hessian (1995)
 Shifting diagonal of input Hessian by    5.1047383185100909E-004
 Lowest  eigenvalues of input Hessian
   -0.000000   -0.000000   -0.000000    0.000000    0.000000    0.000000
    0.010000    0.018765    0.054984    0.111785    0.155509    0.780440
    0.881088    1.193151    1.352431
 Highest eigenvalues
    0.111785    0.155509    0.780440    0.881088    1.193151    1.352431


........................................................................
.............................. CYCLE    1 ..............................
........................................................................
   1     -9.1233390 -0.912334E+01  0.137E-05    0.66       0.0  T
   2     -9.1233390 -0.577316E-12  0.399E-06    0.66   11207.2  T
   3     -9.1233390 -0.675016E-13  0.121E-06    0.66   36956.7  T
     SCC iter.                  ...        0 min,  0.000 sec
     gradient                   ...        0 min,  0.001 sec
 * total energy  :    -9.0780333 Eh     change       -0.1552426E-08 Eh
   gradient norm :     0.0718847 Eh/α   predicted     0.0000000E+00 (-100.00%)
   displ. norm   :     0.2887237 α      lambda       -0.9302667E-02
   maximum displ.:     0.2823229 α      in ANC's #3, #8, #7, ...

........................................................................
.............................. CYCLE    2 ..............................
........................................................................
   1     -9.1341057 -0.913411E+01  0.959E-01    0.41       0.0  T
   2     -9.1341912 -0.855696E-04  0.574E-01    0.43       1.0  T
   3     -9.1341836  0.764931E-05  0.102E-01    0.42       1.0  T
   4     -9.1341983 -0.146981E-04  0.124E-02    0.42       3.6  T
   5     -9.1341983 -0.489885E-07  0.394E-03    0.42      11.4  T
   6     -9.1341983 -0.418142E-08  0.508E-04    0.42      88.1  T
   7     -9.1341983 -0.135964E-09  0.234E-04    0.42     190.9  T
     SCC iter.                  ...        0 min,  0.000 sec
     gradient                   ...        0 min,  0.001 sec
 * total energy  :    -9.0844490 Eh     change       -0.6415702E-02 Eh
   gradient norm :     0.0310772 Eh/α   predicted    -0.5039072E-02 ( -21.46%)
   displ. norm   :     0.1507438 α      lambda       -0.2214084E-02
   maximum displ.:     0.1438318 α      in ANC's #3, #8, #7, ...

........................................................................
.............................. CYCLE    3 ..............................
........................................................................
   1     -9.1389819 -0.913898E+01  0.595E-01    0.24       0.0  T
   2     -9.1390433 -0.614491E-04  0.350E-01    0.25       1.0  T
   3     -9.1390412  0.217165E-05  0.106E-01    0.24       1.0  T
   4     -9.1390489 -0.769910E-05  0.104E-02    0.24       4.3  T
   5     -9.1390489 -0.294991E-07  0.298E-03    0.24      15.0  T
   6     -9.1390489 -0.319568E-08  0.428E-04    0.24     104.5  T
   7     -9.1390489 -0.140009E-09  0.157E-04    0.24     285.5  T
     SCC iter.                  ...        0 min,  0.000 sec
     gradient                   ...        0 min,  0.001 sec
 * total energy  :    -9.0856270 Eh     change       -0.1177969E-02 Eh
   gradient norm :     0.0067346 Eh/α   predicted    -0.1132200E-02 (  -3.89%)
   displ. norm   :     0.0257879 α      lambda       -0.9010307E-04
   maximum displ.:     0.0197198 α      in ANC's #3, #4, #7, ...

........................................................................
.............................. CYCLE    4 ..............................
........................................................................
   1     -9.1397381 -0.913974E+01  0.154E-01    0.20       0.0  T
   2     -9.1397420 -0.395405E-05  0.820E-02    0.21       1.0  T
   3     -9.1397421 -0.472329E-07  0.366E-02    0.20       1.2  T
   4     -9.1397427 -0.567997E-06  0.462E-03    0.20       9.7  T
   5     -9.1397427 -0.165540E-07  0.166E-03    0.20      26.9  T
   6     -9.1397427 -0.862935E-09  0.252E-04    0.20     177.6  T
   7     -9.1397427 -0.138218E-10  0.114E-04    0.20     391.8  T
     SCC iter.                  ...        0 min,  0.000 sec
     gradient                   ...        0 min,  0.001 sec
 * total energy  :    -9.0856942 Eh     change       -0.6722811E-04 Eh
   gradient norm :     0.0034957 Eh/α   predicted    -0.4508205E-04 ( -32.94%)
   displ. norm   :     0.0344031 α      lambda       -0.5816868E-04
   maximum displ.:     0.0299706 α      in ANC's #3, #4, #7, ...

........................................................................
.............................. CYCLE    5 ..............................
........................................................................
   1     -9.1405432 -0.914054E+01  0.308E-01    0.16       0.0  T
   2     -9.1405579 -0.147095E-04  0.120E-01    0.17       1.0  T
   3     -9.1405587 -0.763027E-06  0.984E-02    0.16       1.0  T
   4     -9.1405617 -0.302971E-05  0.657E-03    0.16       6.8  T
   5     -9.1405618 -0.269500E-07  0.243E-03    0.16      18.4  T
   6     -9.1405618 -0.182103E-08  0.118E-03    0.16      38.0  T
   7     -9.1405618 -0.288779E-09  0.501E-04    0.16      89.2  T
   8     -9.1405618 -0.603055E-10  0.960E-06    0.16    4657.8  T
     SCC iter.                  ...        0 min,  0.001 sec
     gradient                   ...        0 min,  0.001 sec
 * total energy  :    -9.0857375 Eh     change       -0.4332923E-04 Eh
   gradient norm :     0.0026288 Eh/α   predicted    -0.2911989E-04 ( -32.79%)
   displ. norm   :     0.0813978 α      lambda       -0.9922368E-04
   maximum displ.:     0.0663854 α      in ANC's #3, #4, #7, ...

........................................................................
.............................. CYCLE    6 ..............................
........................................................................
   1     -9.1403944 -0.914039E+01  0.306E+00    0.04       0.0  T
   2     -9.1404896 -0.951367E-04  0.130E+00    0.14       1.0  T
   3     -9.1424360 -0.194646E-02  0.920E-01    0.07       1.0  T
   4     -9.1426607 -0.224690E-03  0.806E-02    0.08       1.0  T
   5     -9.1426615 -0.779210E-06  0.244E-02    0.08       1.8  T
   6     -9.1426617 -0.203362E-06  0.105E-02    0.08       4.2  T
   7     -9.1426617  0.319501E-08  0.102E-02    0.08       4.4  T
   8     -9.1426617 -0.196382E-07  0.180E-03    0.08      24.8  T
   9     -9.1426617 -0.458580E-08  0.297E-03    0.08      15.0  T
  10     -9.1426617 -0.328549E-08  0.259E-04    0.08     172.7  T
  11     -9.1426617 -0.158504E-10  0.844E-05    0.08     529.8  T
     SCC iter.                  ...        0 min,  0.001 sec
     gradient                   ...        0 min,  0.001 sec
 * total energy  :    -9.0860541 Eh     change       -0.3165345E-03 Eh
   gradient norm :     0.0235038 Eh/α   predicted    -0.4994134E-04 ( -84.22%)
   displ. norm   :     0.4158888 α      lambda       -0.3730617E-02
   maximum displ.:     0.3259079 α      in ANC's #3, #4, #7, ...

........................................................................
.............................. CYCLE    7 ..............................
........................................................................
   1     -9.1478261 -0.914783E+01  0.868E+00    0.46       0.0  T
   2     -9.1603560 -0.125299E-01  0.434E+00    0.17       1.0  T
   3     -9.1606006 -0.244654E-03  0.269E+00    0.26       1.0  T
   4     -9.1625835 -0.198283E-02  0.300E-01    0.19       1.0  T
   5     -9.1585499  0.403357E-02  0.738E-01    0.19       1.0  T
   6     -9.1625726 -0.402269E-02  0.190E-01    0.19       1.0  T
   7     -9.1626824 -0.109830E-03  0.384E-02    0.20       1.2  T
   8     -9.1626838 -0.142785E-05  0.113E-02    0.20       3.9  T
   9     -9.1626839 -0.294647E-07  0.261E-03    0.20      17.1  T
  10     -9.1626839 -0.336812E-08  0.175E-03    0.20      25.6  T
  11     -9.1626839 -0.132129E-09  0.368E-04    0.20     121.7  T
  12     -9.1626839 -0.112887E-10  0.611E-05    0.20     731.7  T
     SCC iter.                  ...        0 min,  0.001 sec
     gradient                   ...        0 min,  0.001 sec
 * total energy  :    -9.0998918 Eh     change       -0.1383776E-01 Eh
   gradient norm :     0.1850280 Eh/α   predicted    -0.2187954E-02 ( -84.19%)
   displ. norm   :     0.5016374 α      lambda       -0.5195662E-01
   maximum displ.:     0.3611491 α      in ANC's #2, #7, #8, ...

........................................................................
.............................. CYCLE    8 ..............................
........................................................................
   1     -9.2235846 -0.922358E+01  0.223E+00    1.44       0.0  T
   2     -9.2243336 -0.749055E-03  0.143E+00    1.42       1.0  T
   3     -9.2243512 -0.175409E-04  0.261E-01    1.48       1.0  T
   4     -9.2243882 -0.370377E-04  0.631E-02    1.48       1.0  T
   5     -9.2242942  0.939989E-04  0.122E-01    1.48       1.0  T
   6     -9.2244005 -0.106300E-03  0.596E-03    1.48       7.5  T
   7     -9.2244005 -0.222271E-07  0.232E-03    1.48      19.3  T
   8     -9.2244005 -0.343476E-08  0.701E-04    1.48      63.8  T
   9     -9.2244005 -0.365089E-09  0.814E-05    1.48     549.6  T
     SCC iter.                  ...        0 min,  0.001 sec
     gradient                   ...        0 min,  0.001 sec
 * total energy  :    -9.1341952 Eh     change       -0.3430339E-01 Eh
   gradient norm :     0.1576550 Eh/α   predicted    -0.3251549E-01 (  -5.21%)
   displ. norm   :     0.7396899 α      lambda       -0.6739058E-01
   maximum displ.:     0.5487444 α      in ANC's #2, #4, #8, ...

........................................................................
.............................. CYCLE    9 ..............................
........................................................................
   1     -9.2795956 -0.927960E+01  0.254E+00    3.94       0.0  T
   2     -9.2854090 -0.581345E-02  0.133E+00    3.82       1.0  T
   3     -9.2855729 -0.163885E-03  0.612E-01    3.84       1.0  T
   4     -9.2855626  0.103136E-04  0.902E-02    3.85       1.0  T
   5     -9.2854705  0.921220E-04  0.124E-01    3.86       1.0  T
   6     -9.2855780 -0.107541E-03  0.928E-03    3.86       4.8  T
   7     -9.2855780 -0.146843E-07  0.165E-03    3.86      27.2  T
   8     -9.2855780 -0.116244E-08  0.465E-04    3.86      96.1  T
   9     -9.2855780 -0.869171E-10  0.423E-05    3.86    1058.1  T
     SCC iter.                  ...        0 min,  0.001 sec
     gradient                   ...        0 min,  0.001 sec
 * total energy  :    -9.1573234 Eh     change       -0.2312820E-01 Eh
   gradient norm :     0.1071560 Eh/α   predicted    -0.5213140E-01 ( 125.40%)
   displ. norm   :     0.5320300 α      lambda       -0.2908650E-01
   maximum displ.:     0.4031279 α      in ANC's #2, #4, #3, ...

........................................................................
.............................. CYCLE   10 ..............................
........................................................................
   1     -9.1757448 -0.917574E+01  0.330E+00    2.69       0.0  T
   2     -9.1932716 -0.175268E-01  0.113E+00    2.85       1.0  T
   3     -9.1939185 -0.646887E-03  0.757E-01    2.82       1.0  T
   4     -9.1939626 -0.441112E-04  0.130E-01    2.83       1.0  T
   5     -9.1939793 -0.166385E-04  0.107E-01    2.83       1.0  T
   6     -9.1940388 -0.595174E-04  0.717E-02    2.83       1.0  T
   7     -9.1940479 -0.915722E-05  0.310E-02    2.83       1.4  T
   8     -9.1940512 -0.326205E-05  0.321E-03    2.83      13.9  T
   9     -9.1940512 -0.207561E-07  0.103E-03    2.83      43.5  T
  10     -9.1940512 -0.230093E-08  0.166E-04    2.83     269.0  T
  11     -9.1940512 -0.551896E-10  0.489E-05    2.83     913.7  T
     SCC iter.                  ...        0 min,  0.001 sec
     gradient                   ...        0 min,  0.001 sec
 * total energy  :    -9.1404956 Eh     change        0.1682778E-01 Eh
   gradient norm :     0.1295231 Eh/α   predicted    -0.1865981E-01 (-210.89%)
   displ. norm   :     0.4901242 α      lambda       -0.4625446E-01
   maximum displ.:     0.4884271 α      in ANC's #2, #4, #3, ...

........................................................................
.............................. CYCLE   11 ..............................
........................................................................
   1     -9.2496881 -0.924969E+01  0.249E+00    3.25       0.0  T
   2     -9.2548320 -0.514394E-02  0.116E+00    3.12       1.0  T
   3     -9.2550783 -0.246280E-03  0.657E-01    3.14       1.0  T
   4     -9.2551173 -0.389423E-04  0.111E-01    3.12       1.0  T
   5     -9.2549683  0.148990E-03  0.151E-01    3.12       1.0  T
   6     -9.2551305 -0.162243E-03  0.260E-02    3.12       1.7  T
   7     -9.2551303  0.212316E-06  0.146E-02    3.12       3.1  T
   8     -9.2551309 -0.604980E-06  0.955E-04    3.12      46.8  T
   9     -9.2551309  0.218049E-08  0.108E-03    3.12      41.4  T
  10     -9.2551309 -0.252621E-08  0.742E-05    3.12     602.5  T
     SCC iter.                  ...        0 min,  0.001 sec
     gradient                   ...        0 min,  0.001 sec
 * total energy  :    -9.1623126 Eh     change       -0.2181693E-01 Eh
   gradient norm :     0.0681821 Eh/α   predicted    -0.2868290E-01 (  31.47%)
   displ. norm   :     0.3222418 α      lambda       -0.1447461E-01
   maximum displ.:     0.2207642 α      in ANC's #4, #3, #8, ...

........................................................................
.............................. CYCLE   12 ..............................
........................................................................
   1     -9.2907845 -0.929078E+01  0.135E+00    4.14       0.0  T
   2     -9.2938556 -0.307104E-02  0.432E-01    4.02       1.0  T
   3     -9.2938718 -0.162421E-04  0.251E-01    4.02       1.0  T
   4     -9.2936615  0.210325E-03  0.183E-01    4.02       1.0  T
   5     -9.2938776 -0.216152E-03  0.340E-02    4.02       1.3  T
   6     -9.2938819 -0.430900E-05  0.514E-03    4.02       8.7  T
   7     -9.2938819 -0.170382E-08  0.934E-04    4.02      47.9  T
   8     -9.2938819 -0.431376E-09  0.176E-04    4.02     254.1  T
     SCC iter.                  ...        0 min,  0.001 sec
     gradient                   ...        0 min,  0.001 sec
 * total energy  :    -9.1621534 Eh     change        0.1591777E-03 Eh
   gradient norm :     0.0806135 Eh/α   predicted    -0.7988822E-02 (*******%)
   displ. norm   :     0.1528384 α      lambda       -0.9570464E-02
   maximum displ.:     0.1328996 α      in ANC's #4, #3, #8, ...

........................................................................
.............................. CYCLE   13 ..............................
........................................................................
   1     -9.2705966 -0.927060E+01  0.771E-01    3.58       0.0  T
   2     -9.2716975 -0.110094E-02  0.213E-01    3.64       1.0  T
   3     -9.2716728  0.247309E-04  0.145E-01    3.64       1.0  T
   4     -9.2713363  0.336516E-03  0.235E-01    3.64       1.0  T
   5     -9.2717085 -0.372241E-03  0.137E-02    3.64       3.3  T
   6     -9.2717087 -0.176104E-06  0.336E-03    3.64      13.3  T
   7     -9.2717087 -0.101864E-08  0.822E-04    3.64      54.4  T
   8     -9.2717087 -0.496655E-09  0.969E-05    3.64     461.6  T
     SCC iter.                  ...        0 min,  0.001 sec
     gradient                   ...        0 min,  0.001 sec
 * total energy  :    -9.1663807 Eh     change       -0.4227309E-02 Eh
   gradient norm :     0.0091297 Eh/α   predicted    -0.4897011E-02 (  15.84%)
   displ. norm   :     0.0252977 α      lambda       -0.1391383E-03
   maximum displ.:     0.0190287 α      in ANC's #1, #8, #7, ...

........................................................................
.............................. CYCLE   14 ..............................
........................................................................
   1     -9.2739427 -0.927394E+01  0.159E-01    3.69       0.0  T
   2     -9.2738773  0.654254E-04  0.130E-01    3.69       1.0  T
   3     -9.2738445  0.327774E-04  0.150E-01    3.67       1.0  T
   4     -9.2739719 -0.127352E-03  0.274E-02    3.68       1.6  T
   5     -9.2739719 -0.832996E-07  0.267E-03    3.68      16.7  T
   6     -9.2739719 -0.282567E-08  0.770E-04    3.68      58.1  T
   7     -9.2739719 -0.885656E-09  0.187E-04    3.68     238.9  T
     SCC iter.                  ...        0 min,  0.001 sec
     gradient                   ...        0 min,  0.001 sec
 * total energy  :    -9.1664526 Eh     change       -0.7191128E-04 Eh
   gradient norm :     0.0071199 Eh/α   predicted    -0.6961373E-04 (  -3.19%)
   displ. norm   :     0.1512228 α      lambda       -0.4882472E-03
   maximum displ.:     0.1359091 α      in ANC's #1, #8, #7, ...

........................................................................
.............................. CYCLE   15 ..............................
........................................................................
   1     -9.2803470 -0.928035E+01  0.717E-01    3.69       0.0  T
   2     -9.2774411  0.290590E-02  0.804E-01    3.70       1.0  T
   3     -9.2801566 -0.271557E-02  0.477E-01    3.66       1.0  T
   4     -9.2811553 -0.998688E-03  0.101E-01    3.68       1.0  T
   5     -9.2811600 -0.462605E-05  0.133E-02    3.67       3.4  T
   6     -9.2811600 -0.890326E-07  0.443E-03    3.67      10.1  T
   7     -9.2811601 -0.243694E-07  0.144E-03    3.67      31.0  T
   8     -9.2811601 -0.615758E-08  0.147E-04    3.67     304.0  T
   9     -9.2811601 -0.359961E-10  0.473E-05    3.67     945.8  T
     SCC iter.                  ...        0 min,  0.001 sec
     gradient                   ...        0 min,  0.001 sec
 * total energy  :    -9.1651399 Eh     change        0.1312706E-02 Eh
   gradient norm :     0.0504863 Eh/α   predicted    -0.2497078E-03 (-119.02%)
   displ. norm   :     0.1245895 α      lambda       -0.2662380E-02
   maximum displ.:     0.1127658 α      in ANC's #1, #8, #7, ...

........................................................................
.............................. CYCLE   16 ..............................
........................................................................
   1     -9.2742425 -0.927424E+01  0.607E-01    3.64       0.0  T
   2     -9.2717020  0.254044E-02  0.723E-01    3.63       1.0  T
   3     -9.2742032 -0.250118E-02  0.397E-01    3.66       1.0  T
   4     -9.2748914 -0.688176E-03  0.867E-02    3.68       1.0  T
   5     -9.2748928 -0.140575E-05  0.117E-02    3.68       3.8  T
   6     -9.2748928 -0.351513E-07  0.390E-03    3.68      11.5  T
   7     -9.2748928 -0.268475E-07  0.110E-03    3.68      40.7  T
   8     -9.2748928 -0.336482E-08  0.114E-04    3.68     393.7  T
   9     -9.2748928 -0.916422E-11  0.391E-05    3.68    1142.3  T
     SCC iter.                  ...        0 min,  0.001 sec
     gradient                   ...        0 min,  0.001 sec
 * total energy  :    -9.1664913 Eh     change       -0.1351350E-02 Eh
   gradient norm :     0.0010782 Eh/α   predicted    -0.1351852E-02 (   0.04%)
   displ. norm   :     0.0131322 α      lambda       -0.4877198E-05
   maximum displ.:     0.0100813 α      in ANC's #1, #3, #5, ...

........................................................................
.............................. CYCLE   17 ..............................
........................................................................
   1     -9.2747014 -0.927470E+01  0.502E-02    3.67       0.0  T
   2     -9.2746674  0.339609E-04  0.773E-02    3.67       1.0  T
   3     -9.2747060 -0.385776E-04  0.268E-02    3.67       1.7  T
   4     -9.2747080 -0.197001E-05  0.215E-03    3.67      20.8  T
   5     -9.2747080 -0.494392E-09  0.130E-03    3.67      34.5  T
   6     -9.2747080 -0.148438E-08  0.506E-04    3.67      88.4  T
   7     -9.2747080 -0.919128E-09  0.735E-05    3.67     608.5  T
     SCC iter.                  ...        0 min,  0.000 sec
     gradient                   ...        0 min,  0.001 sec
 * total energy  :    -9.1664896 Eh     change        0.1620488E-05 Eh
   gradient norm :     0.0024349 Eh/α   predicted    -0.2437375E-05 (-250.41%)
   displ. norm   :     0.0039751 α      lambda       -0.4749073E-05
   maximum displ.:     0.0030653 α      in ANC's #1, #5, #9, ...

........................................................................
.............................. CYCLE   18 ..............................
........................................................................
   1     -9.2747194 -0.927472E+01  0.222E-02    3.67       0.0  T
   2     -9.2747085  0.108579E-04  0.425E-02    3.67       1.1  T
   3     -9.2747213 -0.127860E-04  0.859E-03    3.67       5.2  T
   4     -9.2747215 -0.147335E-06  0.807E-04    3.67      55.4  T
   5     -9.2747215 -0.146484E-09  0.452E-04    3.67      99.0  T
     SCC iter.                  ...        0 min,  0.000 sec
     gradient                   ...        0 min,  0.001 sec
 * total energy  :    -9.1664927 Eh     change       -0.3085820E-05 Eh
   gradient norm :     0.0006460 Eh/α   predicted    -0.2375558E-05 ( -23.02%)
   displ. norm   :     0.0036632 α      lambda       -0.7579022E-06
   maximum displ.:     0.0028786 α      in ANC's #1, #3, #5, ...

   *** GEOMETRY OPTIMIZATION CONVERGED AFTER 18 ITERATIONS ***

------------------------------------------------------------------------
 total energy gain   :        -0.0884594 Eh      -55.5091 kcal/mol
 total RMSD          :         0.6950895 a0        0.3678 Å
 total power (kW/mol):       -12.9027876 (step)-5635.2268 (real)
------------------------------------------------------------------------

 ANCopt (total)                0 d,  0 h,  0 min,  0.041 sec
 optimizer setup                ...        0 min,  0.000 sec (  0.172%)
 model hessian                  ...        0 min,  0.000 sec (  0.223%)
 ANC generation                 ...        0 min,  0.000 sec (  0.147%)
 coordinate transformation      ...        0 min,  0.000 sec (  0.108%)
 single point calculation       ...        0 min,  0.039 sec ( 95.445%)
 optimization log               ...        0 min,  0.000 sec (  1.204%)
 hessian update                 ...        0 min,  0.000 sec (  0.113%)
 rational function              ...        0 min,  0.000 sec (  1.140%)

================
 final structure:
================
5
 xtb: 6.2.2 (9d81278992624c895f80dd42a50cac0aa55982e2)
O        -0.02322077034073    0.00017819541932    0.32237424602688
C        -1.20438095968664   -0.24060944902976    0.41611044038480
C         1.09217796838040    0.24349301611789   -0.07516416210354
H        -1.79636589493900    0.29503366678070    1.15082855125953
H         1.93178965658597   -0.29809542928815    0.34561192443233

 Bond Distances (Angstroems)
 ---------------------------
O1-C2=1.2091         O1-C3=1.2089         C2-O1=1.2091         C2-H4=1.0850         C3-O1=1.2089         C3-H5=1.0841         
H4-C2=1.0850         H5-C3=1.0841         
 C  H  Rav=1.0845 sigma=0.0004  Rmin=1.0841  Rmax=1.0850     2
 O  C  Rav=1.2090 sigma=0.0001  Rmin=1.2089  Rmax=1.2091     2

 selected bond angles (degree)
 --------------------
C3-O1-C2=165.23                H4-C2-O1=119.16                H5-C3-O1=119.10                

 selected dihedral angles (degree)
 ---------------------------------
H4-C2-O1-C3=225.65            H5-C3-O1-C2=225.31            
           -------------------------------------------------
          |                Final Singlepoint                |
           -------------------------------------------------

          ...................................................
          :                      SETUP                      :
          :.................................................:
          :  # basis functions                  14          :
          :  # atomic orbitals                  14          :
          :  # shells                            8          :
          :  # electrons                        16          :
          :  max. iterations                   250          :
          :  Hamiltonian                  GFN2-xTB          :
          :  restarted?                      false          :
          :  GBSA solvation                  false          :
          :  PC potential                    false          :
          :  electronic temp.          300.0000000     K    :
          :  accuracy                    1.0000000          :
          :  -> integral cutoff          0.2500000E+02      :
          :  -> integral neglect         0.1000000E-07      :
          :  -> SCF convergence          0.1000000E-05 Eh   :
          :  -> wf. convergence          0.1000000E-03 e    :
          :  Broyden damping             0.4000000          :
          ...................................................

 iter      E             dE          RMSdq      gap      omega  full diag
   1     -9.2747215 -0.927472E+01  0.135E-04    3.67       0.0  T
   2     -9.2747215  0.721830E-09  0.370E-04    3.67     120.9  T
   3     -9.2747215 -0.828596E-09  0.102E-04    3.67     438.9  T

   *** convergence criteria satisfied after 3 iterations ***

         #    Occupation            Energy/Eh            Energy/eV
      -------------------------------------------------------------
         1        2.0000           -0.7841492             -21.3378
         2        2.0000           -0.7289946             -19.8370
         3        2.0000           -0.6252773             -17.0147
         4        2.0000           -0.6249805             -17.0066
         5        2.0000           -0.5368420             -14.6082
         6        2.0000           -0.5033678             -13.6973
         7        2.0000           -0.3684802             -10.0269
         8        2.0000           -0.3652275              -9.9383 (HOMO)
         9                         -0.2302553              -6.2656 (LUMO)
        10                         -0.2289358              -6.2297
        11                          0.1436051               3.9077
        12                          0.2320941               6.3156
        13                          0.2973126               8.0903
        14                          0.9592322              26.1020
      -------------------------------------------------------------
                  HL-Gap            0.1349722 Eh            3.6728 eV
             Fermi-level           -0.2977414 Eh           -8.1020 eV

 SCC (total)                   0 d,  0 h,  0 min,  0.002 sec
 SCC setup                      ...        0 min,  0.000 sec (  2.537%)
 Dispersion                     ...        0 min,  0.000 sec (  0.436%)
 integral evaluation            ...        0 min,  0.001 sec ( 39.380%)
 zeroth order Hamiltonian       ...        0 min,  0.000 sec (  0.602%)
 iterations                     ...        0 min,  0.000 sec ( 13.310%)
 molecular gradient             ...        0 min,  0.001 sec ( 39.226%)
 printout                       ...        0 min,  0.000 sec (  4.035%)

         :::::::::::::::::::::::::::::::::::::::::::::::::::::
         ::                     SUMMARY                     ::
         :::::::::::::::::::::::::::::::::::::::::::::::::::::
         :: total energy              -9.166492723732 Eh    ::
         :: gradient norm              0.000666655512 Eh/a0 ::
         :: HOMO-LUMO gap              3.672779252998 eV    ::
         ::.................................................::
         :: SCC energy                -9.274721472177 Eh    ::
         :: -> isotropic ES           -0.001858438079 Eh    ::
         :: -> anisotropic ES          0.001879587276 Eh    ::
         :: -> anisotropic XC          0.003741601845 Eh    ::
         :: -> dispersion             -0.001423815633 Eh    ::
         :: repulsion energy           0.108228798594 Eh    ::
         :: add. restraining           0.000000000000 Eh    ::
         :::::::::::::::::::::::::::::::::::::::::::::::::::::

           ------------------------------------------------- 
          |                Numerical Hessian                |
           ------------------------------------------------- 
step length          :   0.00500
SCC accuracy         :   0.30000
Hessian scale factor :   1.00000
frozen atoms in %    :   0.00000    0
RMS gradient         :   0.00067
estimated CPU  time      0.00 min
estimated wall time      0.00 min

writing file <hessian>.

 projected vibrational frequencies (cm-1)
eigval :       -0.00    -0.00    -0.00     0.00     0.00     0.00
eigval :      449.84   454.08   848.52   971.63  1020.63  1243.12
eigval :     2003.03  2968.25  2986.22
           -------------------------------------------------
          |                Property Printout                |
           -------------------------------------------------

    * Orbital Energies and Occupations

         #    Occupation            Energy/Eh            Energy/eV
      -------------------------------------------------------------
         1        2.0000           -0.7841491             -21.3378
         2        2.0000           -0.7289945             -19.8370
         3        2.0000           -0.6252772             -17.0147
         4        2.0000           -0.6249804             -17.0066
         5        2.0000           -0.5368420             -14.6082
         6        2.0000           -0.5033678             -13.6973
         7        2.0000           -0.3684802             -10.0269
         8        2.0000           -0.3652274              -9.9383 (HOMO)
         9                         -0.2302553              -6.2656 (LUMO)
        10                         -0.2289357              -6.2297
        11                          0.1436051               3.9077
        12                          0.2320941               6.3156
        13                          0.2973126               8.0903
        14                          0.9592323              26.1020
      -------------------------------------------------------------
                  HL-Gap            0.1349722 Eh            3.6728 eV
             Fermi-level           -0.2977414 Eh           -8.1020 eV

     #   Z        covCN         q      C6AA      α(0)
     1   8 O      1.711     0.132    12.892     4.848
Refinement of some symmetry elements was terminated before convergence was reached.
Some symmetry elements may remain unidentified.
Molecule has the following symmetry elements: (C2) 
It seems to be the C2 point group
     2   6 C      1.798    -0.120    34.576     9.503
     3   6 C      1.798    -0.120    34.574     9.503
     4   1 H      0.925     0.054     2.266     2.354
     5   1 H      0.925     0.054     2.265     2.354

 Mol. C6AA /au·bohr⁶  :        335.339424
 Mol. C8AA /au·bohr⁸  :       8031.734225
 Mol. α(0) /au        :         28.560970


Wiberg/Mayer (AO) data.
largest (>0.10) Wiberg bond orders for each atom
          total WBO             WBO to atom ...
     1  O   3.054        C    3 1.527    C    2 1.527
     2  C   3.381        O    1 1.527    H    4 0.916    C    3 0.857
     3  C   3.381        O    1 1.527    H    5 0.916    C    2 0.857
     4  H   0.997        C    2 0.916
     5  H   0.997        C    3 0.916

MOs/occ written to file <molden.input>


molecular dipole:
                 x           y           z       tot (Debye)
 q only:        0.034      -0.001       0.157
   full:        0.139      -0.004       0.643       1.671
molecular quadrupole (traceless):
                xx          xy          yy          xz          yz          zz
 q only:        0.099      -0.680      -0.251      -0.037       0.145       0.152
  q+dip:       -1.224      -3.635      -0.243       0.399       0.776       1.467
   full:       -1.612      -3.514      -0.030       0.527       0.751       1.642

           -------------------------------------------------
          |                Geometry Summary                 |
           -------------------------------------------------

      molecular mass/u    :       42.0367582
   center of mass at/Å    :       -0.0376485       0.0008189       0.2559936
  moments of inertia/u·Å² :        0.1538110E+01   0.4203792E+02   0.4203904E+02
rotational constants/cm⁻¹ :        0.1095997E+02   0.4010101E+00   0.4009995E+00

 * 2 selected distances

     #   Z        #   Z                                     value/Å
     1   8 O      2   6 C                                 1.2090925 (max)
     1   8 O      3   6 C                                 1.2088644 (min)

 * 1 distinct bonds (by element types)

   Z      Z             #   av. dist./Å        max./Å        min./Å
   6 C    8 O           2     1.2089784     1.2090925     1.2088644

           -------------------------------------------------
          |               Frequency Printout                |
           -------------------------------------------------
 projected vibrational frequencies (cm-1)
eigval :       -0.00    -0.00    -0.00     0.00     0.00     0.00
eigval :      449.84   454.08   848.52   971.63  1020.63  1243.12
eigval :     2003.03  2968.25  2986.22
 reduced masses (amu)
   1:  4.07   2: 10.35   3: 12.18   4: 11.78   5: 12.42   6: 12.29   7: 11.19   8: 12.19
   9:  2.92  10:  3.46  11:  3.74  12: 11.57  13: 14.27  14:  1.85  15:  1.81
 IR intensities (amu)
   1:  0.33   2:  0.21   3:  0.30   4:  0.34   5:  0.14   6:  0.06   7:  0.29   8:  0.26
   9:  0.21  10:  0.12  11:  0.92  12:  0.11  13:  2.40  14:  0.07  15:  0.27
 Raman intensities (amu)
   1:  0.00   2:  0.00   3:  0.00   4:  0.00   5:  0.00   6:  0.00   7:  0.00   8:  0.00
   9:  0.00  10:  0.00  11:  0.00  12:  0.00  13:  0.00  14:  0.00  15:  0.00
 output can be read by thermo (or use thermo option).
 writing <g98.out> molden fake output.
 recommended (thermochemical) frequency scaling factor: 1.0
           -------------------------------------------------
          |             Thermodynamic Functions             |
           -------------------------------------------------

c2  symmetry found (for desy threshold:  0.10E+00) used in thermo

          ...................................................
          :                      SETUP                      :
          :.................................................:
          :  # frequencies                           9      :
          :  # imaginary freq.                       0      :
          :  linear?                             false      :
          :  only rotor calc.                    false      :
          :  symmetry                               c2      :
          :  rotational number                       2      :
          :  scaling factor                  1.0000000      :
          :  rotor cutoff                   50.0000000 cm⁻¹ :
          :  imag. cutoff                  -20.0000000 cm⁻¹ :
          :.................................................:

    mode    ω/cm⁻¹     T·S(HO)/kcal·mol⁻¹    T·S(FR)/kcal·mol⁻¹   T·S(vib)
   ------------------------------------------------------------------------
   ------------------------------------------------------------------------

   temp. (K)  partition function   enthalpy   heat capacity  entropy
                                   cal/mol     cal/K/mol   cal/K/mol   J/K/mol
 298.15  VIB   1.32                  426.478      4.242      1.978
         ROT  0.199E+04              888.752      2.981     18.077
         INT  0.262E+04             1315.230      7.223     20.055
         TR   0.264E+27             1481.254      4.968     37.118
         TOT                        2796.4843    12.1914    57.1734   239.2134

   temp. (K)  partition function   enthalpy   heat capacity  entropy
                                   cal/mol     cal/K/mol   cal/K/mol   J/K/mol
 120.00  VIB   1.01                   11.640      0.534      0.115
         ROT   508.                  357.707      2.981     15.364
         INT   513.                  369.347      3.515     15.479
         TR   0.673E+26              596.178      4.968     32.599
         TOT                         965.5248     8.4828    48.0778   201.1576

   temp. (K)  partition function   enthalpy   heat capacity  entropy
                                   cal/mol     cal/K/mol   cal/K/mol   J/K/mol
 100.00  VIB   1.00                    3.898      0.255      0.045
         ROT   387.                  298.089      2.981     14.821
         INT   388.                  301.987      3.236     14.866
         TR   0.512E+26              496.815      4.968     31.693
         TOT                         798.8020     8.2038    46.5591   194.8034

   temp. (K)  partition function   enthalpy   heat capacity  entropy
                                   cal/mol     cal/K/mol   cal/K/mol   J/K/mol
  80.00  VIB   1.00                    0.764      0.078      0.011
         ROT   277.                  238.471      2.981     14.156
         INT   277.                  239.235      3.059     14.166
         TR   0.367E+26              397.452      4.968     30.585
         TOT                         636.6871     8.0267    44.7516   187.2406

   temp. (K)  partition function   enthalpy   heat capacity  entropy
                                   cal/mol     cal/K/mol   cal/K/mol   J/K/mol
  60.00  VIB   1.00                    0.051      0.009      0.001
         ROT   180.                  178.853      2.981     13.298
         INT   180.                  178.904      2.990     13.299
         TR   0.238E+26              298.089      4.968     29.157
         TOT                         476.9932     7.9582    42.4556   177.6342

   temp. (K)  partition function   enthalpy   heat capacity  entropy
                                   cal/mol     cal/K/mol   cal/K/mol   J/K/mol
  40.00  VIB   1.00                    0.000      0.000     -0.000
         ROT   97.9                  119.236      2.981     12.089
         INT   97.9                  119.236      2.981     12.089
         TR   0.130E+26              198.726      4.968     27.143
         TOT                         317.9618     7.9491    39.2325   164.1487

   temp. (K)  partition function   enthalpy   heat capacity  entropy
                                   cal/mol     cal/K/mol   cal/K/mol   J/K/mol
  20.00  VIB   1.00                    0.000      0.000     -0.000
         ROT   34.6                   59.618      2.981     10.023
         INT   34.6                   59.618      2.981     10.023
         TR   0.458E+25               99.363      4.968     23.701
         TOT                         158.9808     7.9490    33.7241   141.1015

   temp. (K)  partition function   enthalpy   heat capacity  entropy
                                   cal/mol     cal/K/mol   cal/K/mol   J/K/mol
  10.00  VIB   1.00                    0.000      0.000     -0.001
         ROT   12.2                   29.809      2.981      7.957
         INT   12.2                   29.809      2.981      7.956
         TR   0.162E+25               49.681      4.968     20.259
         TOT                          79.4904     7.9490    28.2157   118.0544

       T/K    H(0)-H(T)+PV         H(T)/Eh          T*S/Eh         G(T)/Eh
   ------------------------------------------------------------------------
    298.15    0.445648E-02    0.339481E-01    0.271649E-01    0.678316E-02
    120.00    0.153866E-02    0.310303E-01    0.919403E-02    0.218362E-01
    100.00    0.127297E-02    0.307646E-01    0.741967E-02    0.233449E-01
     80.00    0.101463E-02    0.305062E-01    0.570530E-02    0.248009E-01
     60.00    0.760137E-03    0.302517E-01    0.405944E-02    0.261923E-01
     40.00    0.506704E-03    0.299983E-01    0.250084E-02    0.274975E-01
     20.00    0.253352E-03    0.297450E-01    0.107485E-02    0.286701E-01
     10.00    0.126676E-03    0.296183E-01    0.449645E-03    0.291686E-01 (used)
   ------------------------------------------------------------------------

         :::::::::::::::::::::::::::::::::::::::::::::::::::::
         ::                  THERMODYNAMIC                  ::
         :::::::::::::::::::::::::::::::::::::::::::::::::::::
         :: total free energy          -9.137324091049 Eh   ::
         ::.................................................::
         :: total energy               -9.166492723782 Eh   ::
         :: zero point energy           0.029491602056 Eh   ::
         :: G(RRHO) w/o ZPVE           -0.000322969323 Eh   ::
         :: G(RRHO) contrib.            0.029168632733 Eh   ::
         :::::::::::::::::::::::::::::::::::::::::::::::::::::

optimized geometry written to: xtbopt.xyz


           -------------------------------------------------
          | TOTAL ENERGY               -9.166492723782 Eh   |
          | TOTAL ENTHALPY             -9.136874445710 Eh   |
          | TOTAL FREE ENERGY          -9.137324091049 Eh   |
          | GRADIENT NORM               0.000669593965 Eh/α |
          | HOMO-LUMO GAP               3.672779272269 eV   |
           -------------------------------------------------

------------------------------------------------------------------------
 * finished run on 2020/05/12 at 11:45:15.110     
------------------------------------------------------------------------
 total:
 * wall-time:     0 d,  0 h,  0 min,  0.126 sec
 *  cpu-time:     0 d,  0 h,  0 min,  0.124 sec
 * ratio c/w:     0.988 speedup
 SCF:
 * wall-time:     0 d,  0 h,  0 min,  0.003 sec
 *  cpu-time:     0 d,  0 h,  0 min,  0.003 sec
 * ratio c/w:     1.000 speedup
 ANC optimizer:
 * wall-time:     0 d,  0 h,  0 min,  0.044 sec
 *  cpu-time:     0 d,  0 h,  0 min,  0.044 sec
 * ratio c/w:     0.999 speedup
 numerical hessian:
 * wall-time:     0 d,  0 h,  0 min,  0.060 sec
 *  cpu-time:     0 d,  0 h,  0 min,  0.060 sec
 * ratio c/w:     0.999 speedup

