5
 energy: -9.584861356289 gnorm: 0.000567689671 xtb: 6.2.2 (9d81278992624c895f80dd42a50cac0aa55982e2)
C         0.49072437010798    0.16171517200325    0.17377892653961
C        -0.64934356782712   -0.14740202447192    0.89077535122523
C        -0.98700320446137   -0.62509110687871   -0.42727313704385
N        -0.40757819757313    0.52698885316718   -0.79603266803633
H         1.55320159975363    0.08378910617497    0.15875152731186
