$hessian                                                                        
        0.8874542320   0.0086121265   0.0023744172  -0.3016871846  -0.0573514923
        0.1879490246  -0.0733618418  -0.0582414844  -0.0439306316  -0.1778048667
        0.0780350033  -0.1581754497  -0.3346003389   0.0289458469   0.0117826396
        0.0086121265   0.1288811150  -0.0668542596  -0.0296577825  -0.0278456320
        0.0409937155  -0.0580415606  -0.0033963284  -0.0480941928   0.0587103238
       -0.0722504681   0.0747316997   0.0203768928  -0.0253886866  -0.0007769627
        0.0023744172  -0.0668542596   0.2661603737   0.1161860083   0.0169823820
       -0.1198744501  -0.0442996270  -0.0640778704   0.0494667068  -0.0781231905
        0.1154106008  -0.1683279691   0.0038623920  -0.0014608527  -0.0274246614
       -0.3016871846  -0.0296577825   0.1161860083   0.2906939414   0.0693510069
       -0.1382290603  -0.0277596427  -0.0339691558  -0.0167417654   0.0520504485
        0.0066395807   0.0248401514  -0.0132975626  -0.0123636493   0.0139446660
       -0.0573514923  -0.0278456320   0.0169823820   0.0693510069   0.0831548371
        0.0071796859  -0.0071746953  -0.0656202756  -0.0820164714  -0.0052113373
        0.0157326092   0.0588524331   0.0003865180  -0.0054215388  -0.0009980295
        0.1879490246   0.0409937155  -0.1198744501  -0.1382290603   0.0071796859
        0.3970933230  -0.0681557863  -0.1208200607  -0.2020199143   0.0213528956
        0.0730106869  -0.0791884605  -0.0029170735  -0.0003640276   0.0039895019
       -0.0733618418  -0.0580415606  -0.0442996270  -0.0277596427  -0.0071746953
       -0.0681557863   0.1749871053   0.1816430813   0.0550037985  -0.0738996677
       -0.1162006943   0.0565460292   0.0000340469  -0.0002261311   0.0009055855
       -0.0582414844  -0.0033963284  -0.0640778704  -0.0339691558  -0.0656202756
       -0.1208200607   0.1816430813   0.3563435128   0.0605735122  -0.0923291733
       -0.3012458344   0.1144229109   0.0028967320   0.0139189255   0.0099015080
       -0.0439306316  -0.0480941928   0.0494667068  -0.0167417654  -0.0820164714
       -0.2020199143   0.0550037985   0.0605735122   0.2356946835   0.0036256680
        0.0585541752  -0.0804277889   0.0020429304   0.0109829769  -0.0027136871
       -0.1778048667   0.0587103238  -0.0781231905   0.0520504485  -0.0052113373
        0.0213528956  -0.0738996677  -0.0923291733   0.0036256680   0.2136665007
        0.0318450433   0.0775362951  -0.0140124148   0.0069851434  -0.0243916683
        0.0780350033  -0.0722504681   0.1154106008   0.0066395807   0.0157326092
        0.0730106869  -0.1162006943  -0.3012458344   0.0585541752   0.0318450433
        0.3602172843  -0.2427066986  -0.0003189330  -0.0024535911  -0.0042687642
       -0.1581754497   0.0747316997  -0.1683279691   0.0248401514   0.0588524331
       -0.0791884605   0.0565460292   0.1144229109  -0.0804277889   0.0775362951
       -0.2427066986   0.3309525281  -0.0007470260  -0.0053003451  -0.0030083096
       -0.3346003389   0.0203768928   0.0038623920  -0.0132975626   0.0003865180
       -0.0029170735   0.0000340469   0.0028967320   0.0020429304  -0.0140124148
       -0.0003189330  -0.0007470260   0.3618762693  -0.0233412099  -0.0022412229
        0.0289458469  -0.0253886866  -0.0014608527  -0.0123636493  -0.0054215388
       -0.0003640276  -0.0002261311   0.0139189255   0.0109829769   0.0069851434
       -0.0024535911  -0.0053003451  -0.0233412099   0.0193448909  -0.0038577515
        0.0117826396  -0.0007769627  -0.0274246614   0.0139446660  -0.0009980295
        0.0039895019   0.0009055855   0.0099015080  -0.0027136871  -0.0243916683
       -0.0042687642  -0.0030083096  -0.0022412229  -0.0038577515   0.0291571563
