5
 energy: -9.443513483375 gnorm: 0.130905406576 xtb: 6.2.2 (9d81278992624c895f80dd42a50cac0aa55982e2)
C         0.53666100000000   -0.28831400000000   -0.19223300000000
C        -0.52113200000000    0.08913000000000    0.76347900000000
C        -0.86130600000000   -0.71898600000000   -0.36694700000000
N        -0.49680300000000    0.70568000000000   -0.58697100000000
H         1.34258100000000    0.21249000000000    0.38267200000000
5
 energy: -9.467345246806 gnorm: 0.137715686191 xtb: 6.2.2 (9d81278992624c895f80dd42a50cac0aa55982e2)
C         0.55173357864883   -0.22073218650326   -0.16824361465761
C        -0.60461650685766    0.07572388948424    0.77184158289403
C        -0.86660113963225   -0.72042589914959   -0.35884397594629
N        -0.49574002045419    0.68691621542694   -0.59526669596679
H         1.41522508829526    0.17851798074167    0.35051270367666
5
 energy: -9.520353243253 gnorm: 0.156167163583 xtb: 6.2.2 (9d81278992624c895f80dd42a50cac0aa55982e2)
C         0.59381815154964   -0.01339029079055   -0.08402286687295
C        -0.77196381083696   -0.01936317355498    0.81219257449824
C        -0.94575379247557   -0.68784500248654   -0.33859849476226
N        -0.45393749764947    0.60232059899630   -0.65973162452023
H         1.57783794941237    0.11827786783576    0.27016041165719
5
 energy: -9.538246522176 gnorm: 0.128832395583 xtb: 6.2.2 (9d81278992624c895f80dd42a50cac0aa55982e2)
C         0.58845246213390    0.06377418635676   -0.01796466793552
C        -0.81957936794313   -0.07435804582158    0.85452017473670
C        -0.99654536270955   -0.67235145480377   -0.35777284676407
N        -0.39972777430111    0.56075907549273   -0.69252993576456
H         1.62740104281989    0.12217623877586    0.21374727572744
5
 energy: -9.555424102067 gnorm: 0.117681152074 xtb: 6.2.2 (9d81278992624c895f80dd42a50cac0aa55982e2)
C         0.57033163805815    0.11071123448981    0.04855529442134
C        -0.79695623540390   -0.11372167338052    0.88623724448340
C        -1.02610839715262   -0.65921736782876   -0.38472433607543
N        -0.37539143709562    0.53942860195845   -0.73108604979234
H         1.62812543159398    0.12279920476102    0.18101784696304
5
 energy: -9.579733988957 gnorm: 0.078687525760 xtb: 6.2.2 (9d81278992624c895f80dd42a50cac0aa55982e2)
C         0.51293805795528    0.16006633734504    0.14734342906014
C        -0.67152282489001   -0.15575768396063    0.91081356992364
C        -1.04453447350927   -0.64086121103256   -0.43095887701029
N        -0.37730474405283    0.52236995979840   -0.79629939595765
H         1.58042498449683    0.11418259784975    0.16910127398416
5
 energy: -9.582462737946 gnorm: 0.050657773595 xtb: 6.2.2 (9d81278992624c895f80dd42a50cac0aa55982e2)
C         0.48663474169959    0.15040002905266    0.16248529993072
C        -0.60324936335399   -0.14852279003507    0.90114298116427
C        -1.02374007899145   -0.63281126635746   -0.44317705856063
N        -0.40388975941143    0.52470535483809   -0.80639161379988
H         1.54424546005728    0.10622867250177    0.18594039126552
5
 energy: -9.584224609451 gnorm: 0.022317521345 xtb: 6.2.2 (9d81278992624c895f80dd42a50cac0aa55982e2)
C         0.49629946851663    0.15599280578878    0.15472868459906
C        -0.63258824216636   -0.14538262082034    0.89580281226363
C        -1.01520952498725   -0.62818397596775   -0.43360566357287
N        -0.41661829550792    0.52192548551645   -0.80318904148462
H         1.56811759414490    0.09564830548287    0.18626320819480
5
 energy: -9.584608671581 gnorm: 0.012284895400 xtb: 6.2.2 (9d81278992624c895f80dd42a50cac0aa55982e2)
C         0.49819050887021    0.14348449613998    0.15698133760399
C        -0.63993127847115   -0.14791673035719    0.89205693770009
C        -1.00876218498627   -0.62096195543862   -0.43042336415882
N        -0.40971361953906    0.52275644935536   -0.79581487917417
H         1.56021757412628    0.10263774030048    0.17719996802891
5
 energy: -9.584737642438 gnorm: 0.006129979380 xtb: 6.2.2 (9d81278992624c895f80dd42a50cac0aa55982e2)
C         0.49427476491058    0.14397296573691    0.16754357854366
C        -0.64361537173473   -0.15224810000025    0.88954144784341
C        -1.00369787299392   -0.61701793868590   -0.43019233455782
N        -0.40895871239030    0.52325448439461   -0.79617004729510
H         1.56199819220837    0.10203858855463    0.16927735546585
5
 energy: -9.584780612812 gnorm: 0.003643446939 xtb: 6.2.2 (9d81278992624c895f80dd42a50cac0aa55982e2)
C         0.49370006251306    0.14584433875576    0.16939846457272
C        -0.64456130757763   -0.15324011465893    0.88954126408499
C        -1.00209503671451   -0.61814935959263   -0.42909283884846
N        -0.40632738226873    0.52468155531540   -0.79624340038794
H         1.55928466404781    0.10086358018040    0.16639651057869
5
 energy: -9.584826639012 gnorm: 0.003364791383 xtb: 6.2.2 (9d81278992624c895f80dd42a50cac0aa55982e2)
C         0.49259826606217    0.15257814034409    0.17096855477382
C        -0.64583094550061   -0.15245218774575    0.88932768622716
C        -0.99691424304558   -0.62136489309552   -0.42683274887547
N        -0.40564839009152    0.52684195449556   -0.79703510134548
H         1.55579631257554    0.09439698600163    0.16357160921997
5
 energy: -9.584847575207 gnorm: 0.003099878340 xtb: 6.2.2 (9d81278992624c895f80dd42a50cac0aa55982e2)
C         0.49170652952521    0.15804450330411    0.17179375579941
C        -0.64718741560817   -0.15058552898807    0.88946790490782
C        -0.99226553141219   -0.62376351583568   -0.42586082471428
N        -0.40644104173200    0.52766239103725   -0.79722446987463
H         1.55418845922716    0.08864215048239    0.16182363388168
5
 energy: -9.584858474474 gnorm: 0.001584397584 xtb: 6.2.2 (9d81278992624c895f80dd42a50cac0aa55982e2)
C         0.49101815688247    0.16140278334124    0.17269360289563
C        -0.64848654385284   -0.14859165659284    0.89000627065718
C        -0.98860113922805   -0.62510184809955   -0.42608874457200
N        -0.40728919712999    0.52758280843176   -0.79679106178297
H         1.55335972332841    0.08470791291939    0.16017993280217
5
 energy: -9.584861356670 gnorm: 0.000567781700 xtb: 6.2.2 (9d81278992624c895f80dd42a50cac0aa55982e2)
C         0.49072291675672    0.16171743812314    0.17378092173723
C        -0.64934590541162   -0.14740697911697    0.89077282731349
C        -0.98699844000784   -0.62509552906757   -0.42727767331912
N        -0.40757817819404    0.52698810842629   -0.79603317099086
H         1.55320060685678    0.08379696163510    0.15875709525926
