$hessian                                                                        
        0.6902615718   0.0777120520   0.1035580351  -0.0854893639   0.1093496068
       -0.0447249427  -0.2021116861  -0.0210205870   0.0890210778  -0.1227212344
       -0.1629615714  -0.0444894392  -0.2799392875  -0.0030795004  -0.1033647310
        0.0777120520   0.2556730371  -0.0047535522   0.0349505642  -0.1249607633
        0.0311134737  -0.0448432669   0.1083549089   0.0110025459  -0.0588527183
       -0.2139422304  -0.0363598838  -0.0089666310  -0.0251249522  -0.0010025836
        0.1035580351  -0.0047535522   0.1140795524  -0.0356086330  -0.0006755463
       -0.0209937828   0.0382068832   0.0210659566  -0.0029724874  -0.0156728977
       -0.0109494285  -0.0294374387  -0.0904833876  -0.0046874295  -0.0606758434
       -0.0854893639   0.0349505642  -0.0356086330   0.1227778199  -0.0035899145
       -0.0112021480  -0.0506486811  -0.0699430284   0.0350334529   0.0257678701
        0.0232538107   0.0083174710  -0.0124076450   0.0153285680   0.0034598571
        0.1093496068  -0.1249607633  -0.0006755463  -0.0035899145   0.4228260907
       -0.1242899846  -0.1522051538  -0.2076138149   0.1290369835   0.0464388001
       -0.0878445182  -0.0060914133   0.0000066614  -0.0024069943   0.0020199607
       -0.0447249427   0.0311134737  -0.0209937828  -0.0112021480  -0.1242899846
        0.0858212911   0.0573898311   0.1034602244  -0.0932778428   0.0006208337
       -0.0140560018   0.0336634177  -0.0020835740   0.0037722883  -0.0052130831
       -0.2021116861  -0.0448432669   0.0382068832  -0.0506486811  -0.1522051538
        0.0573898311   0.2913882975   0.0343879804  -0.1456632060  -0.0391748112
        0.1656754265   0.0487759848   0.0005468810  -0.0030149861   0.0012905069
       -0.0210205870   0.1083549089   0.0210659566  -0.0699430284  -0.2076138149
        0.1034602244   0.0343879804   0.3575836081  -0.0468734326   0.0567264053
       -0.2525400604  -0.0720406951  -0.0001507703  -0.0057846417  -0.0056120533
        0.0890210778   0.0110025459  -0.0029724874   0.0350334529   0.1290369835
       -0.0932778428  -0.1456632060  -0.0468734326   0.1560801071   0.0287067618
       -0.0941312286  -0.0754765144  -0.0070980865   0.0009651319   0.0156467376
       -0.1227212344  -0.0588527183  -0.0156728977   0.0257678701   0.0464388001
        0.0006208337  -0.0391748112   0.0567264053   0.0287067618   0.1521709849
       -0.0220058739  -0.0100267939  -0.0160428094  -0.0223066132  -0.0036279038
       -0.1629615714  -0.2139422304  -0.0109494285   0.0232538107  -0.0878445182
       -0.0140560018   0.1656754265  -0.2525400604  -0.0941312286  -0.0220058739
        0.5528944459   0.1194508192  -0.0039617918   0.0014323630  -0.0003141603
       -0.0444894392  -0.0363598838  -0.0294374387   0.0083174710  -0.0060914133
        0.0336634177   0.0487759848  -0.0720406951  -0.0754765144  -0.0100267939
        0.1194508192   0.0748554411  -0.0025772227  -0.0049588271  -0.0036049056
       -0.2799392875  -0.0089666310  -0.0904833876  -0.0124076450   0.0000066614
       -0.0020835740   0.0005468810  -0.0001507703  -0.0070980865  -0.0160428094
       -0.0039617918  -0.0025772227   0.3078428609   0.0130725317   0.1022422708
       -0.0030795004  -0.0251249522  -0.0046874295   0.0153285680  -0.0024069943
        0.0037722883  -0.0030149861  -0.0057846417   0.0009651319  -0.0223066132
        0.0014323630  -0.0049588271   0.0130725317   0.0318842253   0.0049088364
       -0.1033647310  -0.0010025836  -0.0606758434   0.0034598571   0.0020199607
       -0.0052130831   0.0012905069  -0.0056120533   0.0156467376  -0.0036279038
       -0.0003141603  -0.0036049056   0.1022422708   0.0049088364   0.0538470945
