      -----------------------------------------------------------      
     |                   =====================                   |     
     |                           x T B                           |     
     |                   =====================                   |     
     |                         S. Grimme                         |     
     |          Mulliken Center for Theoretical Chemistry        |     
     |                    University of Bonn                     |     
      -----------------------------------------------------------      

   * xtb version 6.2.2 (9d81278992624c895f80dd42a50cac0aa55982e2) compiled by '@Darwin' on 04/03/2020

   xtb is free software: you can redistribute it and/or modify it under
   the terms of the GNU Lesser General Public License as published by
   the Free Software Foundation, either version 3 of the License, or
   (at your option) any later version.
   
   xtb is distributed in the hope that it will be useful,
   but WITHOUT ANY WARRANTY; without even the implied warranty of
   MERCHANTABILITY or FITNESS FOR A PARTICULAR PURPOSE.  See the
   GNU Lesser General Public License for more details.
   
   Cite this work as:
   * S. Grimme, C. Bannwarth, P. Shushkov, J. Chem. Theory Comput., 2017,
     13, 1989-2009. DOI: 10.1021/acs.jctc.7b00118
   * C. Bannwarth, S. Ehlert and S. Grimme., J. Chem. Theory Comput., 2019,
     15, 1652-1671. DOI: 10.1021/acs.jctc.8b01176
   * P. Pracht, E. Caldeweyher, S. Ehlert, S. Grimme, ChemRxiv, 2019, preprint.
     DOI: 10.26434/chemrxiv.8326202.v1
   
   for DFT-D4:
   * E. Caldeweyher, C. Bannwarth and S. Grimme, J. Chem. Phys., 2017,
     147, 034112. DOI: 10.1063/1.4993215
   * E. Caldeweyher, S. Ehlert, A. Hansen, H. Neugebauer, S. Spicher,
     C. Bannwarth and S. Grimme, J. Chem. Phys., 2019, 150, 154122.
     DOI: 10.1063/1.5090222
   
   for sTDA-xTB:
   * S. Grimme and C. Bannwarth, J. Chem. Phys., 2016, 145, 054103.
     DOI: 10.1063/1.4959605
   
   in the mass-spec context:
   * V. Asgeirsson, C. Bauer and S. Grimme, Chem. Sci., 2017, 8, 4879.
     DOI: 10.1039/c7sc00601b
   
   for metadynamics refer to:
   * S. Grimme, J. Chem. Theory Comput., 2019, 155, 2847-2862
     DOI: 10.1021/acs.jctc.9b00143
   
   with help from (in alphabetical order)
   C. Bannwarth, F. Bohle, G. Brandenburg, E. Caldeweyher, M. Checinski,
   S. Dohm, S. Ehlert, S. Ehrlich, F. März, H. Neugebauer, J. Pisarek,
   P. Pracht, P. Shushkov, and S. Spicher.
   
 * started run on 2020/05/12 at 11:44:12.039     

           -------------------------------------------------
          |                Calculation Setup                |
           -------------------------------------------------

          program call               : xtb --input C4N1_31_S_3.input C4N1_31_S_3.xyz --ohess --molden --namespace C4N1_31_S_3 output.out
          calculation namespace      : C4N1_31_S_3
          coordinate file            : C4N1_31_S_3.xyz
          number of atoms            :                     5
          number of electrons        :                    21
          charge                     :                     0
          spin                       :                   1.5
          first test random number   :      0.32048941808609

   ID    Z sym.   atoms
    1    6 C      1, 3-5
    2    7 N      2

           -------------------------------------------------
          |                 G F N 2 - x T B                 |
           -------------------------------------------------

        Reference                      10.1021/acs.jctc.8b01176
      * Hamiltonian:
        H0-scaling (s, p, d)           1.850000    2.230000    2.230000
        zeta-weighting                 0.500000
      * Dispersion:
        s8                             2.700000
        a1                             0.520000
        a2                             5.000000
        s9                             5.000000
      * Repulsion:
        kExp                           1.500000    1.000000
        rExp                           1.000000
      * Coulomb:
        alpha                          2.000000
        third order                    shell-resolved
        anisotropic                    true
        a3                             3.000000
        a5                             4.000000
        cn-shift                       1.200000
        cn-exp                         4.000000
        max-rad                        5.000000


          ...................................................
          :                      SETUP                      :
          :.................................................:
          :  # basis functions                  20          :
          :  # atomic orbitals                  20          :
          :  # shells                           10          :
          :  # electrons                        21          :
          :  max. iterations                   250          :
          :  Hamiltonian                  GFN2-xTB          :
          :  restarted?                      false          :
          :  GBSA solvation                  false          :
          :  PC potential                    false          :
          :  electronic temp.          300.0000000     K    :
          :  accuracy                    1.0000000          :
          :  -> integral cutoff          0.2500000E+02      :
          :  -> integral neglect         0.1000000E-07      :
          :  -> SCF convergence          0.1000000E-05 Eh   :
          :  -> wf. convergence          0.1000000E-03 e    :
          :  Broyden damping             0.4000000          :
          ...................................................

 iter      E             dE          RMSdq      gap      omega  full diag
   1    -10.9947980 -0.109948E+02  0.854E+00    1.15       0.0  T
   2    -10.8741987  0.120599E+00  0.662E+00    0.64       1.0  T
   3    -10.6014991  0.272700E+00  0.671E+00    1.85       1.0  T
   4    -10.9447824 -0.343283E+00  0.350E+00    0.39       1.0  T
   5    -11.0332627 -0.884803E-01  0.138E+00    0.98       1.0  T
   6    -11.0408906 -0.762795E-02  0.957E-01    1.02       1.0  T
   7    -11.0408098  0.808451E-04  0.102E+00    1.02       1.0  T
   8    -11.0415385 -0.728670E-03  0.299E-01    0.93       1.0  T
   9    -11.0422557 -0.717194E-03  0.114E-01    0.98       1.0  T
  10    -11.0422769 -0.212405E-04  0.372E-02    0.97       1.2  T
  11    -11.0422794 -0.248486E-05  0.608E-03    0.97       7.4  T
  12    -11.0422795 -0.813435E-07  0.442E-03    0.97      10.1  T
  13    -11.0422795 -0.133476E-07  0.410E-04    0.97     109.2  T
  14    -11.0422795 -0.405274E-09  0.337E-04    0.97     132.7  T

   *** convergence criteria satisfied after 14 iterations ***

         #    Occupation            Energy/Eh            Energy/eV
      -------------------------------------------------------------
         1        2.0000           -0.7623188             -20.7438
       ...           ...                  ...                  ...
         6        2.0000           -0.5583594             -15.1937
         7        2.0000           -0.5205265             -14.1642
         8        2.0000           -0.4931327             -13.4188
         9        2.0000           -0.4752402             -12.9319
        10        1.0000           -0.4308384             -11.7237
        11        1.0000           -0.4143648             -11.2754
        12        1.0000           -0.4077138             -11.0945 (HOMO)
        13                         -0.3720285             -10.1234 (LUMO)
        14                         -0.3161092              -8.6018
        15                         -0.1459774              -3.9722
        16                         -0.0347009              -0.9443
        17                          0.0012912               0.0351
       ...                                ...                  ...
        20                          0.2507630               6.8236
      -------------------------------------------------------------
                  HL-Gap            0.0356853 Eh            0.9710 eV
             Fermi-level           -0.4214550 Eh          -11.4684 eV

 SCC (total)                   0 d,  0 h,  0 min,  0.004 sec
 SCC setup                      ...        0 min,  0.000 sec (  1.749%)
 Dispersion                     ...        0 min,  0.000 sec (  0.390%)
 integral evaluation            ...        0 min,  0.001 sec ( 32.233%)
 zeroth order Hamiltonian       ...        0 min,  0.000 sec (  0.428%)
 iterations                     ...        0 min,  0.001 sec ( 32.471%)
 molecular gradient             ...        0 min,  0.001 sec ( 31.605%)
 printout                       ...        0 min,  0.000 sec (  0.980%)

         :::::::::::::::::::::::::::::::::::::::::::::::::::::
         ::                     SUMMARY                     ::
         :::::::::::::::::::::::::::::::::::::::::::::::::::::
         :: total energy             -10.958948944296 Eh    ::
         :: gradient norm              0.134619028757 Eh/a0 ::
         :: HOMO-LUMO gap              0.971045308573 eV    ::
         ::.................................................::
         :: SCC energy               -11.042279485522 Eh    ::
         :: -> isotropic ES           -0.012424529188 Eh    ::
         :: -> anisotropic ES          0.002043114040 Eh    ::
         :: -> anisotropic XC          0.006310050174 Eh    ::
         :: -> dispersion             -0.002898054676 Eh    ::
         :: repulsion energy           0.083330499240 Eh    ::
         :: add. restraining           0.000000000000 Eh    ::
         :::::::::::::::::::::::::::::::::::::::::::::::::::::

      ----------------------------------------------------------- 
     |                   =====================                   |
     |                        A N C O P T                        |
     |                   =====================                   |
     |               Approximate Normal Coordinate               |
     |                Rational Function Optimizer                |
      ----------------------------------------------------------- 

          ...................................................
          :                      SETUP                      :
          :.................................................:
          :   optimization level            normal          :
          :   max. optcycles                   200          :
          :   ANC micro-cycles                  20          :
          :   degrees of freedom                 9          :
          :.................................................:
          :   RF solver                   davidson          :
          :   write xtbopt.log                true          :
          :   linear?                        false          :
          :   energy convergence         0.5000000E-05 Eh   :
          :   grad. convergence          0.1000000E-02 Eh/α :
          :   maximium RF displ.         1.0000000          :
          :   Hlow (freq-cutoff)         0.1000000E-01      :
          :   Hmax (freq-cutoff)         5.0000000          :
          :   S6 in model hess.         20.0000000          :
          ...................................................

generating ANC from model Hessian ...
Using Lindh-Hessian (1995)
 Shifting diagonal of input Hessian by    0.0000000000000000     
 Lowest  eigenvalues of input Hessian
   -0.000000   -0.000000   -0.000000    0.000000    0.000000    0.000000
    0.063999    0.134304    0.303830    0.755170    0.786097    0.912208
    1.006069    1.126956    1.472135
 Highest eigenvalues
    0.755170    0.786097    0.912208    1.006069    1.126956    1.472135


........................................................................
.............................. CYCLE    1 ..............................
........................................................................
   1    -11.0422795 -0.110423E+02  0.542E-05    0.97       0.0  T
   2    -11.0422795  0.184581E-10  0.773E-05    0.97     578.7  T
   3    -11.0422795 -0.265228E-10  0.278E-05    0.97    1609.0  T
     SCC iter.                  ...        0 min,  0.001 sec
     gradient                   ...        0 min,  0.001 sec
 * total energy  :   -10.9589489 Eh     change       -0.1644015E-08 Eh
   gradient norm :     0.1346194 Eh/α   predicted     0.0000000E+00 (-100.00%)
   displ. norm   :     0.2004021 α      lambda       -0.2220288E-01
   maximum displ.:     0.1218617 α      in ANC's #2, #6, #5, ...

........................................................................
.............................. CYCLE    2 ..............................
........................................................................
   1    -11.0841063 -0.110841E+02  0.112E+00    1.15       0.0  T
   2    -11.0833997  0.706640E-03  0.798E-01    1.13       1.0  T
   3    -11.0826949  0.704797E-03  0.690E-01    1.15       1.0  T
   4    -11.0847190 -0.202408E-02  0.140E-01    1.10       1.0  T
   5    -11.0847424 -0.234495E-04  0.121E-01    1.16       1.0  T
   6    -11.0848590 -0.116566E-03  0.474E-02    1.12       1.0  T
   7    -11.0848649 -0.592074E-05  0.117E-02    1.13       3.8  T
   8    -11.0848653 -0.422207E-06  0.902E-03    1.13       5.0  T
   9    -11.0848657 -0.413310E-06  0.225E-03    1.13      19.8  T
  10    -11.0848657 -0.115285E-07  0.252E-04    1.13     177.2  T
  11    -11.0848657 -0.159455E-09  0.364E-05    1.13    1229.6  T
     SCC iter.                  ...        0 min,  0.001 sec
     gradient                   ...        0 min,  0.002 sec
 * total energy  :   -10.9769096 Eh     change       -0.1796070E-01 Eh
   gradient norm :     0.0812171 Eh/α   predicted    -0.1154729E-01 ( -35.71%)
   displ. norm   :     0.4493734 α      lambda       -0.2894469E-01
   maximum displ.:     0.3293016 α      in ANC's #2, #6, #5, ...

........................................................................
.............................. CYCLE    3 ..............................
........................................................................
   1    -11.1449823 -0.111450E+02  0.241E+00    1.77       0.0  T
   2    -11.1430871  0.189519E-02  0.148E+00    1.93       1.0  T
   3    -11.1007522  0.423350E-01  0.216E+00    1.34       1.0  T
   4    -11.1440801 -0.433280E-01  0.509E-01    1.88       1.0  T
   5    -11.1460132 -0.193302E-02  0.909E-02    1.81       1.0  T
   6    -11.1460002  0.129995E-04  0.579E-02    1.81       1.0  T
   7    -11.1460070 -0.683474E-05  0.333E-02    1.81       1.3  T
   8    -11.1460145 -0.749228E-05  0.113E-02    1.81       4.0  T
   9    -11.1460150 -0.501424E-06  0.481E-03    1.81       9.3  T
  10    -11.1460150 -0.295328E-07  0.331E-04    1.81     134.9  T
  11    -11.1460150 -0.640146E-10  0.145E-04    1.81     308.6  T
     SCC iter.                  ...        0 min,  0.001 sec
     gradient                   ...        0 min,  0.001 sec
 * total energy  :   -10.9912819 Eh     change       -0.1437228E-01 Eh
   gradient norm :     0.0968328 Eh/α   predicted    -0.1739484E-01 (  21.03%)
   displ. norm   :     0.1450647 α      lambda       -0.8830892E-02
   maximum displ.:     0.0839867 α      in ANC's #5, #2, #4, ...

........................................................................
.............................. CYCLE    4 ..............................
........................................................................
   1    -11.1497603 -0.111498E+02  0.105E+00    2.23       0.0  T
   2    -11.1494580  0.302297E-03  0.641E-01    2.30       1.0  T
   3    -11.1463806  0.307738E-02  0.721E-01    2.14       1.0  T
   4    -11.1487470 -0.236644E-02  0.376E-01    2.33       1.0  T
   5    -11.1501435 -0.139641E-02  0.542E-02    2.25       1.0  T
   6    -11.1501575 -0.140430E-04  0.303E-02    2.26       1.5  T
   7    -11.1501602 -0.265110E-05  0.160E-02    2.26       2.8  T
   8    -11.1501614 -0.127270E-05  0.286E-03    2.26      15.7  T
   9    -11.1501614 -0.757502E-08  0.165E-03    2.26      27.0  T
  10    -11.1501614 -0.427472E-08  0.161E-04    2.26     277.3  T
  11    -11.1501614 -0.285727E-10  0.189E-05    2.26    2371.0  T
     SCC iter.                  ...        0 min,  0.001 sec
     gradient                   ...        0 min,  0.001 sec
 * total energy  :   -10.9983676 Eh     change       -0.7085621E-02 Eh
   gradient norm :     0.0573451 Eh/α   predicted    -0.4508360E-02 ( -36.37%)
   displ. norm   :     0.3129759 α      lambda       -0.1210895E-01
   maximum displ.:     0.2216285 α      in ANC's #5, #2, #4, ...

........................................................................
.............................. CYCLE    5 ..............................
........................................................................
   1    -11.1553662 -0.111554E+02  0.223E+00    2.53       0.0  T
   2    -11.1528605  0.250577E-02  0.140E+00    2.57       1.0  T
   3    -11.1274790  0.253815E-01  0.185E+00    2.39       1.0  T
   4    -11.1542020 -0.267230E-01  0.624E-01    2.64       1.0  T
   5    -11.1569109 -0.270896E-02  0.127E-01    2.53       1.0  T
   6    -11.1570172 -0.106249E-03  0.623E-02    2.56       1.0  T
   7    -11.1570267 -0.948914E-05  0.325E-02    2.55       1.4  T
   8    -11.1570271 -0.484405E-06  0.163E-02    2.55       2.7  T
   9    -11.1570289 -0.172820E-05  0.323E-03    2.55      13.8  T
  10    -11.1570289 -0.993484E-08  0.406E-04    2.55     110.1  T
  11    -11.1570289 -0.745169E-09  0.155E-04    2.55     287.8  T
     SCC iter.                  ...        0 min,  0.001 sec
     gradient                   ...        0 min,  0.001 sec
 * total energy  :   -11.0060317 Eh     change       -0.7664170E-02 Eh
   gradient norm :     0.0295439 Eh/α   predicted    -0.6647538E-02 ( -13.26%)
   displ. norm   :     0.1924745 α      lambda       -0.3810255E-02
   maximum displ.:     0.1459970 α      in ANC's #5, #1, #4, ...

........................................................................
.............................. CYCLE    6 ..............................
........................................................................
   1    -11.1679181 -0.111679E+02  0.147E+00    2.17       0.0  T
   2    -11.1641027  0.381542E-02  0.112E+00    2.16       1.0  T
   3    -11.1587890  0.531372E-02  0.118E+00    2.09       1.0  T
   4    -11.1673762 -0.858718E-02  0.508E-01    2.27       1.0  T
   5    -11.1693133 -0.193712E-02  0.623E-02    2.16       1.0  T
   6    -11.1693204 -0.709277E-05  0.410E-02    2.17       1.1  T
   7    -11.1693224 -0.205471E-05  0.262E-02    2.17       1.7  T
   8    -11.1693250 -0.252328E-05  0.693E-03    2.16       6.5  T
   9    -11.1693251 -0.172225E-06  0.211E-03    2.16      21.2  T
  10    -11.1693251 -0.386584E-08  0.281E-04    2.16     159.0  T
  11    -11.1693251 -0.412514E-09  0.947E-05    2.16     472.3  T
     SCC iter.                  ...        0 min,  0.001 sec
     gradient                   ...        0 min,  0.001 sec
 * total energy  :   -11.0089689 Eh     change       -0.2937135E-02 Eh
   gradient norm :     0.0421406 Eh/α   predicted    -0.1975710E-02 ( -32.73%)
   displ. norm   :     0.3955774 α      lambda       -0.6853795E-02
   maximum displ.:     0.3081161 α      in ANC's #5, #3, #4, ...

........................................................................
.............................. CYCLE    7 ..............................
........................................................................
   1    -11.1733292 -0.111733E+02  0.249E+00    1.68       0.0  T
   2    -11.1012444  0.720848E-01  0.332E+00    1.61       1.0  T
   3    -11.1604377 -0.591933E-01  0.188E+00    1.68       1.0  T
   4    -11.1762663 -0.158286E-01  0.858E-01    1.68       1.0  T
   5    -11.1781440 -0.187768E-02  0.694E-01    1.70       1.0  T
   6    -11.1779255  0.218543E-03  0.759E-01    1.71       1.0  T
   7    -11.1782944 -0.368937E-03  0.605E-01    1.71       1.0  T
   8    -11.1794169 -0.112254E-02  0.194E-01    1.68       1.0  T
   9    -11.1794700 -0.531056E-04  0.139E-01    1.69       1.0  T
  10    -11.1794863 -0.162227E-04  0.118E-01    1.69       1.0  T
  11    -11.1795221 -0.358278E-04  0.171E-02    1.69       2.6  T
  12    -11.1795228 -0.749517E-06  0.258E-03    1.69      17.4  T
  13    -11.1795229 -0.163185E-07  0.519E-04    1.69      86.2  T
  14    -11.1795229 -0.312708E-09  0.293E-04    1.69     152.4  T
     SCC iter.                  ...        0 min,  0.001 sec
     gradient                   ...        0 min,  0.001 sec
 * total energy  :   -11.0150672 Eh     change       -0.6098314E-02 Eh
   gradient norm :     0.0463324 Eh/α   predicted    -0.3963136E-02 ( -35.01%)
   displ. norm   :     0.8550049 α      lambda       -0.1670919E-01
   maximum displ.:     0.6720490 α      in ANC's #5, #3, #4, ...

........................................................................
.............................. CYCLE    8 ..............................
........................................................................
   1    -11.1254547 -0.111255E+02  0.520E+00    2.22       0.0  T
   2    -11.0233540  0.102101E+00  0.504E+00    1.85       1.0  T
   3    -11.1207004 -0.973464E-01  0.324E+00    2.26       1.0  T
   4    -11.1531281 -0.324277E-01  0.134E+00    1.91       1.0  T
   5    -11.1642341 -0.111060E-01  0.445E-01    2.07       1.0  T
   6    -11.1650594 -0.825339E-03  0.242E-01    2.02       1.0  T
   7    -11.1649149  0.144509E-03  0.189E-01    2.04       1.0  T
   8    -11.1651470 -0.232104E-03  0.775E-02    2.02       1.0  T
   9    -11.1651906 -0.436091E-04  0.106E-02    2.02       4.2  T
  10    -11.1651908 -0.211157E-06  0.364E-03    2.02      12.3  T
  11    -11.1651909 -0.653393E-07  0.465E-04    2.02      96.1  T
  12    -11.1651909 -0.225379E-09  0.704E-05    2.02     635.5  T
     SCC iter.                  ...        0 min,  0.001 sec
     gradient                   ...        0 min,  0.001 sec
 * total energy  :   -11.0216922 Eh     change       -0.6624994E-02 Eh
   gradient norm :     0.1245423 Eh/α   predicted    -0.1446207E-01 ( 118.30%)
   displ. norm   :     0.3509264 α      lambda       -0.3582096E-01
   maximum displ.:     0.2693770 α      in ANC's #1, #2, #4, ...

........................................................................
.............................. CYCLE    9 ..............................
........................................................................
   1    -11.1785030 -0.111785E+02  0.212E+00    2.51       0.0  T
   2    -11.1261177  0.523853E-01  0.317E+00    2.16       1.0  T
   3    -11.2010732 -0.749556E-01  0.957E-01    2.38       1.0  T
   4    -11.1971918  0.388138E-02  0.976E-01    2.39       1.0  T
   5    -11.2010185 -0.382669E-02  0.348E-01    2.42       1.0  T
   6    -11.2015731 -0.554613E-03  0.221E-01    2.37       1.0  T
   7    -11.2019246 -0.351451E-03  0.714E-02    2.40       1.0  T
   8    -11.2019420 -0.173928E-04  0.326E-02    2.40       1.4  T
   9    -11.2019449 -0.293424E-05  0.618E-03    2.40       7.2  T
  10    -11.2019450 -0.121943E-06  0.260E-03    2.40      17.2  T
  11    -11.2019451 -0.288218E-07  0.268E-04    2.40     166.8  T
  12    -11.2019451 -0.294612E-09  0.359E-05    2.40    1247.3  T
     SCC iter.                  ...        0 min,  0.001 sec
     gradient                   ...        0 min,  0.001 sec
 * total energy  :   -11.0344175 Eh     change       -0.1272536E-01 Eh
   gradient norm :     0.0778889 Eh/α   predicted    -0.2011613E-01 (  58.08%)
   displ. norm   :     0.1580239 α      lambda       -0.5886633E-02
   maximum displ.:     0.0895636 α      in ANC's #5, #2, #3, ...

........................................................................
.............................. CYCLE   10 ..............................
........................................................................
   1    -11.1988820 -0.111989E+02  0.967E-01    2.00       0.0  T
   2    -11.1901483  0.873370E-02  0.139E+00    1.95       1.0  T
   3    -11.2021371 -0.119888E-01  0.426E-01    1.98       1.0  T
   4    -11.2006287  0.150841E-02  0.549E-01    1.97       1.0  T
   5    -11.2020417 -0.141298E-02  0.297E-01    2.00       1.0  T
   6    -11.2025177 -0.476050E-03  0.710E-02    1.97       1.0  T
   7    -11.2025540 -0.362895E-04  0.299E-02    1.99       1.5  T
   8    -11.2025576 -0.358393E-05  0.101E-02    1.98       4.4  T
   9    -11.2025580 -0.346257E-06  0.961E-04    1.98      46.6  T
  10    -11.2025580 -0.780906E-09  0.234E-04    1.98     191.3  T
     SCC iter.                  ...        0 min,  0.001 sec
     gradient                   ...        0 min,  0.001 sec
 * total energy  :   -11.0363107 Eh     change       -0.1893171E-02 Eh
   gradient norm :     0.0323919 Eh/α   predicted    -0.3016814E-02 (  59.35%)
   displ. norm   :     0.3658047 α      lambda       -0.7679439E-02
   maximum displ.:     0.2586474 α      in ANC's #5, #4, #3, ...

........................................................................
.............................. CYCLE   11 ..............................
........................................................................
   1    -11.1834146 -0.111834E+02  0.189E+00    3.03       0.0  T
   2    -11.1813805  0.203414E-02  0.125E+00    2.93       1.0  T
   3    -11.1729513  0.842924E-02  0.133E+00    3.07       1.0  T
   4    -11.1846826 -0.117313E-01  0.442E-01    2.96       1.0  T
   5    -11.1857317 -0.104908E-02  0.125E-01    2.98       1.0  T
   6    -11.1858054 -0.737110E-04  0.630E-02    2.98       1.0  T
   7    -11.1858182 -0.127943E-04  0.891E-03    2.98       5.0  T
   8    -11.1858181  0.167242E-07  0.719E-03    2.98       6.2  T
   9    -11.1858184 -0.299424E-06  0.219E-03    2.98      20.4  T
  10    -11.1858185 -0.468195E-08  0.190E-04    2.98     235.4  T
  11    -11.1858185  0.182609E-11  0.654E-05    2.98     683.5  T
     SCC iter.                  ...        0 min,  0.001 sec
     gradient                   ...        0 min,  0.001 sec
 * total energy  :   -11.0321743 Eh     change        0.4136372E-02 Eh
   gradient norm :     0.0707627 Eh/α   predicted    -0.4353522E-02 (-205.25%)
   displ. norm   :     0.2263872 α      lambda       -0.1167218E-01
   maximum displ.:     0.1712335 α      in ANC's #5, #4, #6, ...

........................................................................
.............................. CYCLE   12 ..............................
........................................................................
   1    -11.2044217 -0.112044E+02  0.118E+00    2.50       0.0  T
   2    -11.2029820  0.143973E-02  0.806E-01    2.49       1.0  T
   3    -11.1972522  0.572977E-02  0.994E-01    2.47       1.0  T
   4    -11.2048096 -0.755743E-02  0.285E-01    2.52       1.0  T
   5    -11.2051904 -0.380745E-03  0.120E-01    2.48       1.0  T
   6    -11.2053005 -0.110121E-03  0.429E-02    2.50       1.0  T
   7    -11.2053043 -0.380411E-05  0.207E-02    2.50       2.2  T
   8    -11.2053067 -0.239576E-05  0.522E-03    2.50       8.6  T
   9    -11.2053068 -0.137930E-06  0.107E-03    2.50      41.9  T
  10    -11.2053068 -0.425951E-09  0.122E-04    2.50     366.0  T
  11    -11.2053068 -0.465690E-10  0.486E-05    2.50     920.9  T
     SCC iter.                  ...        0 min,  0.001 sec
     gradient                   ...        0 min,  0.001 sec
 * total energy  :   -11.0383219 Eh     change       -0.6147571E-02 Eh
   gradient norm :     0.0115838 Eh/α   predicted    -0.6135195E-02 (  -0.20%)
   displ. norm   :     0.0312577 α      lambda       -0.2951257E-03
   maximum displ.:     0.0233786 α      in ANC's #5, #1, #8, ...

........................................................................
.............................. CYCLE   13 ..............................
........................................................................
   1    -11.2055976 -0.112056E+02  0.174E-01    2.52       0.0  T
   2    -11.2055690  0.286327E-04  0.122E-01    2.49       1.0  T
   3    -11.2055397  0.292795E-04  0.116E-01    2.52       1.0  T
   4    -11.2055837 -0.439596E-04  0.711E-02    2.51       1.0  T
   5    -11.2056223 -0.386603E-04  0.140E-02    2.51       3.2  T
   6    -11.2056233 -0.100262E-05  0.474E-03    2.51       9.4  T
   7    -11.2056231  0.210758E-06  0.556E-03    2.51       8.0  T
   8    -11.2056234 -0.241097E-06  0.409E-04    2.51     109.4  T
   9    -11.2056234 -0.244928E-09  0.148E-04    2.51     301.5  T
     SCC iter.                  ...        0 min,  0.001 sec
     gradient                   ...        0 min,  0.001 sec
 * total energy  :   -11.0385634 Eh     change       -0.2415111E-03 Eh
   gradient norm :     0.0089947 Eh/α   predicted    -0.1477083E-03 ( -38.84%)
   displ. norm   :     0.0804341 α      lambda       -0.5817760E-03
   maximum displ.:     0.0558713 α      in ANC's #5, #1, #3, ...

........................................................................
.............................. CYCLE   14 ..............................
........................................................................
   1    -11.2061486 -0.112061E+02  0.431E-01    2.64       0.0  T
   2    -11.2055827  0.565957E-03  0.363E-01    2.60       1.0  T
   3    -11.2054687  0.113966E-03  0.348E-01    2.65       1.0  T
   4    -11.2062120 -0.743255E-03  0.140E-01    2.64       1.0  T
   5    -11.2063285 -0.116520E-03  0.327E-02    2.63       1.4  T
   6    -11.2063322 -0.375711E-05  0.131E-02    2.63       3.4  T
   7    -11.2063314  0.849851E-06  0.137E-02    2.63       3.3  T
   8    -11.2063327 -0.131962E-05  0.117E-03    2.63      38.1  T
   9    -11.2063327 -0.827875E-09  0.734E-04    2.63      60.9  T
  10    -11.2063327 -0.105062E-08  0.807E-05    2.63     553.9  T
     SCC iter.                  ...        0 min,  0.001 sec
     gradient                   ...        0 min,  0.001 sec
 * total energy  :   -11.0388630 Eh     change       -0.2995792E-03 Eh
   gradient norm :     0.0054245 Eh/α   predicted    -0.2927698E-03 (  -2.27%)
   displ. norm   :     0.0228391 α      lambda       -0.7365975E-04
   maximum displ.:     0.0161277 α      in ANC's #1, #2, #4, ...

........................................................................
.............................. CYCLE   15 ..............................
........................................................................
   1    -11.2043312 -0.112043E+02  0.944E-02    2.67       0.0  T
   2    -11.2043240  0.718377E-05  0.678E-02    2.67       1.0  T
   3    -11.2042831  0.408627E-04  0.794E-02    2.67       1.0  T
   4    -11.2043266 -0.434063E-04  0.327E-02    2.67       1.4  T
   5    -11.2043341 -0.754052E-05  0.427E-03    2.67      10.5  T
   6    -11.2043341  0.148594E-07  0.363E-03    2.67      12.3  T
   7    -11.2043341 -0.721225E-07  0.106E-03    2.67      42.3  T
   8    -11.2043342 -0.471854E-08  0.116E-04    2.67     384.9  T
   9    -11.2043342 -0.227409E-10  0.539E-05    2.67     829.0  T
     SCC iter.                  ...        0 min,  0.001 sec
     gradient                   ...        0 min,  0.001 sec
 * total energy  :   -11.0388989 Eh     change       -0.3593870E-04 Eh
   gradient norm :     0.0054008 Eh/α   predicted    -0.3684973E-04 (   2.53%)
   displ. norm   :     0.0080294 α      lambda       -0.2984250E-04
   maximum displ.:     0.0064453 α      in ANC's #3, #8, #6, ...

........................................................................
.............................. CYCLE   16 ..............................
........................................................................
   1    -11.2044883 -0.112045E+02  0.584E-02    2.70       0.0  T
   2    -11.2044776  0.107174E-04  0.511E-02    2.70       1.0  T
   3    -11.2044863 -0.868428E-05  0.352E-02    2.70       1.3  T
   4    -11.2044890 -0.270803E-05  0.228E-02    2.70       2.0  T
   5    -11.2044933 -0.436622E-05  0.387E-03    2.70      11.6  T
   6    -11.2044934 -0.696794E-07  0.204E-03    2.70      21.9  T
   7    -11.2044934 -0.144570E-07  0.835E-04    2.70      53.6  T
   8    -11.2044934 -0.181188E-08  0.103E-04    2.70     433.2  T
     SCC iter.                  ...        0 min,  0.001 sec
     gradient                   ...        0 min,  0.001 sec
 * total energy  :   -11.0389205 Eh     change       -0.2153313E-04 Eh
   gradient norm :     0.0029534 Eh/α   predicted    -0.1492265E-04 ( -30.70%)
   displ. norm   :     0.0122886 α      lambda       -0.2246923E-04
   maximum displ.:     0.0068235 α      in ANC's #3, #5, #2, ...

........................................................................
.............................. CYCLE   17 ..............................
........................................................................
   1    -11.2047973 -0.112048E+02  0.896E-02    2.72       0.0  T
   2    -11.2047806  0.167275E-04  0.679E-02    2.73       1.0  T
   3    -11.2047857 -0.512109E-05  0.620E-02    2.72       1.0  T
   4    -11.2048047 -0.189758E-04  0.121E-02    2.72       3.7  T
   5    -11.2048056 -0.878908E-06  0.425E-03    2.73      10.5  T
   6    -11.2048056 -0.154672E-08  0.340E-03    2.73      13.2  T
   7    -11.2048056 -0.896461E-07  0.707E-04    2.73      63.3  T
   8    -11.2048056 -0.251286E-08  0.164E-04    2.73     273.3  T
     SCC iter.                  ...        0 min,  0.001 sec
     gradient                   ...        0 min,  0.001 sec
 * total energy  :   -11.0389354 Eh     change       -0.1497995E-04 Eh
   gradient norm :     0.0021005 Eh/α   predicted    -0.1123551E-04 ( -25.00%)
   displ. norm   :     0.0100530 α      lambda       -0.9090723E-05
   maximum displ.:     0.0056229 α      in ANC's #5, #2, #3, ...

........................................................................
.............................. CYCLE   18 ..............................
........................................................................
   1    -11.2050286 -0.112050E+02  0.691E-02    2.74       0.0  T
   2    -11.2050199  0.869889E-05  0.497E-02    2.74       1.0  T
   3    -11.2050155  0.444280E-05  0.553E-02    2.73       1.0  T
   4    -11.2050286 -0.131682E-04  0.197E-02    2.74       2.3  T
   5    -11.2050322 -0.359845E-05  0.300E-03    2.74      14.9  T
   6    -11.2050322 -0.429003E-08  0.234E-03    2.74      19.1  T
   7    -11.2050323 -0.301068E-07  0.281E-04    2.74     159.4  T
   8    -11.2050323 -0.226763E-09  0.127E-04    2.74     350.8  T
     SCC iter.                  ...        0 min,  0.001 sec
     gradient                   ...        0 min,  0.001 sec
 * total energy  :   -11.0389413 Eh     change       -0.5905169E-05 Eh
   gradient norm :     0.0015557 Eh/α   predicted    -0.4546731E-05 ( -23.00%)
   displ. norm   :     0.0074108 α      lambda       -0.2775910E-05
   maximum displ.:     0.0044284 α      in ANC's #5, #2, #4, ...

........................................................................
.............................. CYCLE   19 ..............................
........................................................................
   1    -11.2051608 -0.112052E+02  0.459E-02    2.74       0.0  T
   2    -11.2051573  0.346364E-05  0.329E-02    2.75       1.4  T
   3    -11.2051524  0.485358E-05  0.400E-02    2.74       1.1  T
   4    -11.2051602 -0.772404E-05  0.138E-02    2.74       3.2  T
   5    -11.2051619 -0.178525E-05  0.211E-03    2.74      21.2  T
   6    -11.2051620 -0.107393E-07  0.102E-03    2.74      43.9  T
   7    -11.2051620  0.129169E-08  0.613E-04    2.74      72.9  T
   8    -11.2051620 -0.264925E-08  0.925E-05    2.74     483.4  T
     SCC iter.                  ...        0 min,  0.001 sec
     gradient                   ...        0 min,  0.001 sec
 * total energy  :   -11.0389434 Eh     change       -0.2054908E-05 Eh
   gradient norm :     0.0007756 Eh/α   predicted    -0.1387881E-05 ( -32.46%)
   displ. norm   :     0.0018871 α      lambda       -0.7844421E-06
   maximum displ.:     0.0012383 α      in ANC's #1, #8, #5, ...

   *** GEOMETRY OPTIMIZATION CONVERGED AFTER 19 ITERATIONS ***

------------------------------------------------------------------------
 total energy gain   :        -0.0799944 Eh      -50.1973 kcal/mol
 total RMSD          :         0.9243758 a0        0.4892 Å
 total power (kW/mol):       -11.0539683 (step)-2924.2517 (real)
------------------------------------------------------------------------

 ANCopt (total)                0 d,  0 h,  0 min,  0.072 sec
 optimizer setup                ...        0 min,  0.000 sec (  0.110%)
 model hessian                  ...        0 min,  0.000 sec (  0.166%)
 ANC generation                 ...        0 min,  0.000 sec (  0.071%)
 coordinate transformation      ...        0 min,  0.000 sec (  0.050%)
 single point calculation       ...        0 min,  0.070 sec ( 97.645%)
 optimization log               ...        0 min,  0.000 sec (  0.622%)
 hessian update                 ...        0 min,  0.000 sec (  0.052%)
 rational function              ...        0 min,  0.000 sec (  0.550%)

================
 final structure:
================
5
 xtb: 6.2.2 (9d81278992624c895f80dd42a50cac0aa55982e2)
C        -0.63006189615434    0.57515759925930   -0.01323416066502
N         0.51359109976915    1.20693796466702    0.02492206627111
C         0.13975681719604   -1.10171454813150   -0.00702393029228
C         1.11212268871565    0.02141738508517    0.02920103912905
C        -1.13540870952650   -0.70179840088000   -0.03386501444286

 Bond Distances (Angstroems)
 ---------------------------
C1-N2=1.3071         C1-C3=1.8451         C1-C4=1.8286         C1-C5=1.3735         N2-C1=1.3071         N2-C4=1.3281         
C3-C1=1.8451         C3-C4=1.4860         C3-C5=1.3367         C4-C1=1.8286         C4-N2=1.3281         C4-C3=1.4860         
C5-C1=1.3735         C5-C3=1.3367         
 C  C  Rav=1.5740 sigma=0.2203  Rmin=1.3367  Rmax=1.8451     5
 N  C  Rav=1.3176 sigma=0.0105  Rmin=1.3071  Rmax=1.3281     2

 selected bond angles (degree)
 --------------------
C3-C1-N2= 94.25                C4-C1-N2= 46.53                C4-C1-C3= 47.72                C5-C1-N2=140.51                
C5-C1-C3= 46.26                C5-C1-C4= 93.98                C4-N2-C1= 87.88                C4-C3-C1= 65.56                
C5-C3-C1= 47.93                C5-C3-C4=113.49                N2-C4-C1= 45.59                C3-C4-C1= 66.73                
C3-C4-N2=112.32                C3-C5-C1= 85.81                

 selected dihedral angles (degree)
 ---------------------------------
C4-N2-C1-C3=  0.07            C4-N2-C1-C5=  0.43            C4-C3-C1-N2=359.93            C4-C3-C1-C5=180.25            
C5-C3-C1-N2=179.68            C5-C3-C1-C4=179.75            N2-C4-C1-C3=180.10            N2-C4-C1-C5=180.27            
C3-C4-C1-N2=179.90            C3-C4-C1-C5=  0.18            C3-C4-N2-C1=359.90            C1-C4-C3-C5=359.80            
N2-C4-C3-C1=  0.07            N2-C4-C3-C5=359.87            C3-C5-C1-N2=359.50            C3-C5-C1-C4=359.82            
C1-C5-C3-C4=  0.24            
           -------------------------------------------------
          |                Final Singlepoint                |
           -------------------------------------------------

          ...................................................
          :                      SETUP                      :
          :.................................................:
          :  # basis functions                  20          :
          :  # atomic orbitals                  20          :
          :  # shells                           10          :
          :  # electrons                        21          :
          :  max. iterations                   250          :
          :  Hamiltonian                  GFN2-xTB          :
          :  restarted?                      false          :
          :  GBSA solvation                  false          :
          :  PC potential                    false          :
          :  electronic temp.          300.0000000     K    :
          :  accuracy                    1.0000000          :
          :  -> integral cutoff          0.2500000E+02      :
          :  -> integral neglect         0.1000000E-07      :
          :  -> SCF convergence          0.1000000E-05 Eh   :
          :  -> wf. convergence          0.1000000E-03 e    :
          :  Broyden damping             0.4000000          :
          ...................................................

 iter      E             dE          RMSdq      gap      omega  full diag
   1    -11.2051620 -0.112052E+02  0.194E-05    2.74       0.0  T
   2    -11.2051620  0.346745E-11  0.277E-05    2.74    1615.7  T
   3    -11.2051620 -0.415668E-11  0.115E-05    2.74    3889.5  T

   *** convergence criteria satisfied after 3 iterations ***

         #    Occupation            Energy/Eh            Energy/eV
      -------------------------------------------------------------
         1        2.0000           -0.7452324             -20.2788
       ...           ...                  ...                  ...
         6        2.0000           -0.5754881             -15.6598
         7        2.0000           -0.5042326             -13.7209
         8        2.0000           -0.4642357             -12.6325
         9        2.0000           -0.4502217             -12.2512
        10        1.0000           -0.4156314             -11.3099
        11        1.0000           -0.4148943             -11.2898
        12        1.0000           -0.3953610             -10.7583 (HOMO)
        13                         -0.2945005              -8.0138 (LUMO)
        14                         -0.2505335              -6.8174
        15                         -0.2157217              -5.8701
        16                          0.1149932               3.1291
        17                          0.1462889               3.9807
       ...                                ...                  ...
        20                          0.6200829              16.8733
      -------------------------------------------------------------
                  HL-Gap            0.1008605 Eh            2.7446 eV
             Fermi-level           -0.3890186 Eh          -10.5857 eV

 SCC (total)                   0 d,  0 h,  0 min,  0.003 sec
 SCC setup                      ...        0 min,  0.000 sec (  1.397%)
 Dispersion                     ...        0 min,  0.000 sec (  0.347%)
 integral evaluation            ...        0 min,  0.001 sec ( 39.625%)
 zeroth order Hamiltonian       ...        0 min,  0.000 sec (  0.445%)
 iterations                     ...        0 min,  0.000 sec (  9.468%)
 molecular gradient             ...        0 min,  0.001 sec ( 45.470%)
 printout                       ...        0 min,  0.000 sec (  2.922%)

         :::::::::::::::::::::::::::::::::::::::::::::::::::::
         ::                     SUMMARY                     ::
         :::::::::::::::::::::::::::::::::::::::::::::::::::::
         :: total energy             -11.038943393205 Eh    ::
         :: gradient norm              0.000792291408 Eh/a0 ::
         :: HOMO-LUMO gap              2.744553516859 eV    ::
         ::.................................................::
         :: SCC energy               -11.205161954966 Eh    ::
         :: -> isotropic ES            0.003580511275 Eh    ::
         :: -> anisotropic ES          0.002599020422 Eh    ::
         :: -> anisotropic XC          0.008412886831 Eh    ::
         :: -> dispersion             -0.002740240984 Eh    ::
         :: repulsion energy           0.166218532793 Eh    ::
         :: add. restraining           0.000000000000 Eh    ::
         :::::::::::::::::::::::::::::::::::::::::::::::::::::

           ------------------------------------------------- 
          |                Numerical Hessian                |
           ------------------------------------------------- 
step length          :   0.00500
SCC accuracy         :   0.30000
Hessian scale factor :   1.00000
frozen atoms in %    :   0.00000    0
RMS gradient         :   0.00079
estimated CPU  time      0.00 min
estimated wall time      0.00 min

writing file <hessian>.

 projected vibrational frequencies (cm-1)
eigval :       -0.00    -0.00     0.00     0.00     0.00     0.00
eigval :      299.50   360.71   546.14   566.62   922.28   947.07
eigval :     1096.93  1440.75  1617.32
           -------------------------------------------------
          |                Property Printout                |
           -------------------------------------------------

    * Orbital Energies and Occupations

         #    Occupation            Energy/Eh            Energy/eV
      -------------------------------------------------------------
         1        2.0000           -0.7452324             -20.2788
         2        2.0000           -0.6876602             -18.7122
         3        2.0000           -0.6438704             -17.5206
         4        2.0000           -0.5944505             -16.1758
         5        2.0000           -0.5799450             -15.7811
         6        2.0000           -0.5754880             -15.6598
         7        2.0000           -0.5042326             -13.7209
         8        2.0000           -0.4642357             -12.6325
         9        2.0000           -0.4502217             -12.2512
        10        1.0000           -0.4156314             -11.3099
        11        1.0000           -0.4148943             -11.2898
        12        1.0000           -0.3953611             -10.7583 (HOMO)
        13                         -0.2945005              -8.0138 (LUMO)
        14                         -0.2505335              -6.8174
        15                         -0.2157218              -5.8701
        16                          0.1149932               3.1291
        17                          0.1462888               3.9807
        18                          0.2816232               7.6634
        19                          0.4067980              11.0695
        20                          0.6200829              16.8733
      -------------------------------------------------------------
                  HL-Gap            0.1008607 Eh            2.7446 eV
             Fermi-level           -0.3890186 Eh          -10.5857 eV

     #   Z        covCN         q      C6AA      α(0)
     1   6 C      3.472     0.149    20.009     6.705
     2   7 N      1.836    -0.146    24.936     7.400
     3   6 C      2.752     0.004    27.925     8.653
     4   6 C      2.718     0.043    27.007     8.507
     5   6 C      1.989    -0.051    32.411     9.194

 Mol. C6AA /au·bohr⁶  :        656.409488
 Mol. C8AA /au·bohr⁸  :      18060.673621
 Mol. α(0) /au        :         40.459140


Wiberg/Mayer (AO) data.
largest (>0.10) Wiberg bond orders for each atom
          total WBO             WBO to atom ...
     1  C   3.296        N    2 1.355    C    5 1.263    C    3 0.365    C    4 0.313
     2  N   2.930        C    1 1.355    C    4 1.329    C    5 0.148
     3  C   2.954        C    5 1.564    C    4 0.926    C    1 0.365
     4  C   2.638        N    2 1.329    C    3 0.926    C    1 0.313
     5  C   3.046        C    3 1.564    C    1 1.263    N    2 0.148

MOs/occ written to file <molden.input>


molecular dipole:
                 x           y           z       tot (Debye)
 q only:       -0.119      -0.108      -0.005
   full:       -0.305      -0.161      -0.011       0.877
molecular quadrupole (traceless):
                xx          xy          yy          xz          yz          zz
 q only:        0.360      -0.987      -0.671      -0.006      -0.036       0.310
  q+dip:        0.316      -1.771      -1.530      -0.039      -0.074       1.214
   full:       -0.459      -2.441      -2.333      -0.102      -0.113       2.792

           -------------------------------------------------
          |                Geometry Summary                 |
           -------------------------------------------------

      molecular mass/u    :       62.0496468
   center of mass at/Å    :        0.0165210       0.0388238       0.0008015
  moments of inertia/u·Å² :        0.2927688E+02   0.5456027E+02   0.8383694E+02
rotational constants/cm⁻¹ :        0.5758002E+00   0.3089726E+00   0.2010764E+00

 * 4 selected distances

     #   Z        #   Z                                     value/Å
     1   6 C      2   7 N                                 1.3071130 (min)
     2   7 N      4   6 C                                 1.3280502
     1   6 C      5   6 C                                 1.3734692 (max)
     3   6 C      5   6 C                                 1.3366752

 * 2 distinct bonds (by element types)

   Z      Z             #   av. dist./Å        max./Å        min./Å
   6 C    6 C           2     1.3550722     1.3734692     1.3366752
   6 C    7 N           2     1.3175816     1.3280502     1.3071130

           -------------------------------------------------
          |               Frequency Printout                |
           -------------------------------------------------
 projected vibrational frequencies (cm-1)
eigval :       -0.00    -0.00     0.00     0.00     0.00     0.00
eigval :      299.50   360.71   546.14   566.62   922.28   947.07
eigval :     1096.93  1440.75  1617.32
 reduced masses (amu)
   1: 12.64   2: 12.78   3: 13.00   4: 12.08   5: 12.30   6: 12.04   7: 12.13   8: 12.14
Molecule has the following symmetry elements: (sigma) 
It seems to be the Cs point group
   9: 12.55  10: 12.37  11: 12.97  12: 12.06  13: 12.28  14: 12.51  15: 12.31
 IR intensities (amu)
   1:  0.06   2:  0.03   3:  0.05   4:  0.04   5:  0.07   6:  0.08   7:  0.24   8:  0.32
   9:  0.27  10:  0.37  11:  0.86  12:  0.32  13:  0.39  14:  0.52  15:  1.33
 Raman intensities (amu)
   1:  0.00   2:  0.00   3:  0.00   4:  0.00   5:  0.00   6:  0.00   7:  0.00   8:  0.00
   9:  0.00  10:  0.00  11:  0.00  12:  0.00  13:  0.00  14:  0.00  15:  0.00
 output can be read by thermo (or use thermo option).
 writing <g98.out> molden fake output.
 recommended (thermochemical) frequency scaling factor: 1.0
           -------------------------------------------------
          |             Thermodynamic Functions             |
           -------------------------------------------------

cs  symmetry found (for desy threshold:  0.10E+00) used in thermo

          ...................................................
          :                      SETUP                      :
          :.................................................:
          :  # frequencies                           9      :
          :  # imaginary freq.                       0      :
          :  linear?                             false      :
          :  only rotor calc.                    false      :
          :  symmetry                               cs      :
          :  rotational number                       1      :
          :  scaling factor                  1.0000000      :
          :  rotor cutoff                   50.0000000 cm⁻¹ :
          :  imag. cutoff                  -20.0000000 cm⁻¹ :
          :.................................................:

    mode    ω/cm⁻¹     T·S(HO)/kcal·mol⁻¹    T·S(FR)/kcal·mol⁻¹   T·S(vib)
   ------------------------------------------------------------------------
       1    299.50    -0.00000 ( 99.92%)     0.01609 (  0.08%)     0.00001
   ------------------------------------------------------------------------

   temp. (K)  partition function   enthalpy   heat capacity  entropy
                                   cal/mol     cal/K/mol   cal/K/mol   J/K/mol
 298.15  VIB   1.88                  797.670      6.813      3.931
         ROT  0.280E+05              888.752      2.981     23.327
         INT  0.526E+05             1686.423      9.794     27.258
         TR   0.473E+27             1481.254      4.968     38.278
         TOT                        3167.6766    14.7619    65.5365   274.2049

   temp. (K)  partition function   enthalpy   heat capacity  entropy
                                   cal/mol     cal/K/mol   cal/K/mol   J/K/mol
 120.00  VIB   1.04                   42.253      1.485      0.440
         ROT  0.714E+04              357.707      2.981     20.614
         INT  0.746E+04              399.960      4.466     21.054
         TR   0.121E+27              596.178      4.968     33.759
         TOT                         996.1382     9.4345    54.8130   229.3375

   temp. (K)  partition function   enthalpy   heat capacity  entropy
                                   cal/mol     cal/K/mol   cal/K/mol   J/K/mol
 100.00  VIB   1.02                   18.530      0.898      0.225
         ROT  0.543E+04              298.089      2.981     20.071
         INT  0.554E+04              316.619      3.879     20.296
         TR   0.919E+26              496.815      4.968     32.853
         TOT                         813.4343     8.8471    53.1494   222.3770

   temp. (K)  partition function   enthalpy   heat capacity  entropy
                                   cal/mol     cal/K/mol   cal/K/mol   J/K/mol
  80.00  VIB   1.01                    5.657      0.412      0.083
         ROT  0.389E+04              238.471      2.981     19.406
         INT  0.391E+04              244.129      3.393     19.489
         TR   0.657E+26              397.452      4.968     31.745
         TOT                         641.5807     8.3614    51.2343   214.3645

   temp. (K)  partition function   enthalpy   heat capacity  entropy
                                   cal/mol     cal/K/mol   cal/K/mol   J/K/mol
  60.00  VIB   1.00                    0.838      0.105      0.016
         ROT  0.252E+04              178.853      2.981     18.548
         INT  0.253E+04              179.691      3.086     18.564
         TR   0.427E+26              298.089      4.968     30.317
         TOT                         477.7799     8.0543    48.8807   204.5168

   temp. (K)  partition function   enthalpy   heat capacity  entropy
                                   cal/mol     cal/K/mol   cal/K/mol   J/K/mol
  40.00  VIB   1.00                    0.020      0.006      0.000
         ROT  0.137E+04              119.236      2.981     17.339
         INT  0.137E+04              119.256      2.987     17.339
         TR   0.232E+26              198.726      4.968     28.303
         TOT                         317.9820     7.9547    45.6428   190.9696

   temp. (K)  partition function   enthalpy   heat capacity  entropy
                                   cal/mol     cal/K/mol   cal/K/mol   J/K/mol
  20.00  VIB   1.00                    0.000      0.000     -0.001
         ROT   486.                   59.618      2.981     15.273
         INT   486.                   59.618      2.981     15.272
         TR   0.822E+25               99.363      4.968     24.861
         TOT                         158.9808     7.9490    40.1332   167.9173

   temp. (K)  partition function   enthalpy   heat capacity  entropy
                                   cal/mol     cal/K/mol   cal/K/mol   J/K/mol
  10.00  VIB   1.00                    0.000      0.000     -0.002
         ROT   172.                   29.809      2.981     13.207
         INT   172.                   29.809      2.981     13.205
         TR   0.290E+25               49.681      4.968     21.419
         TOT                          79.4904     7.9490    34.6241   144.8674

       T/K    H(0)-H(T)+PV         H(T)/Eh          T*S/Eh         G(T)/Eh
   ------------------------------------------------------------------------
    298.15    0.504801E-02    0.228116E-01    0.311385E-01   -0.832693E-02
    120.00    0.158745E-02    0.193510E-01    0.104820E-01    0.886902E-02
    100.00    0.129629E-02    0.190599E-01    0.846989E-02    0.105900E-01
     80.00    0.102242E-02    0.187860E-01    0.653177E-02    0.122542E-01
     60.00    0.761391E-03    0.185250E-01    0.467378E-02    0.138512E-01
     40.00    0.506736E-03    0.182703E-01    0.290946E-02    0.153609E-01
     20.00    0.253352E-03    0.180169E-01    0.127913E-02    0.167378E-01
     10.00    0.126676E-03    0.178903E-01    0.551771E-03    0.173385E-01 (used)
   ------------------------------------------------------------------------

         :::::::::::::::::::::::::::::::::::::::::::::::::::::
         ::                  THERMODYNAMIC                  ::
         :::::::::::::::::::::::::::::::::::::::::::::::::::::
         :: total free energy         -11.021604907527 Eh   ::
         ::.................................................::
         :: total energy              -11.038943393025 Eh   ::
         :: zero point energy           0.017763580272 Eh   ::
         :: G(RRHO) w/o ZPVE           -0.000425094773 Eh   ::
         :: G(RRHO) contrib.            0.017338485498 Eh   ::
         :::::::::::::::::::::::::::::::::::::::::::::::::::::

optimized geometry written to: xtbopt.xyz


           -------------------------------------------------
          | TOTAL ENERGY              -11.038943393025 Eh   |
          | TOTAL ENTHALPY            -11.021053136738 Eh   |
          | TOTAL FREE ENERGY         -11.021604907527 Eh   |
          | GRADIENT NORM               0.000792522874 Eh/α |
          | HOMO-LUMO GAP               2.744558789246 eV   |
           -------------------------------------------------

------------------------------------------------------------------------
 * finished run on 2020/05/12 at 11:44:12.238     
------------------------------------------------------------------------
 total:
 * wall-time:     0 d,  0 h,  0 min,  0.198 sec
 *  cpu-time:     0 d,  0 h,  0 min,  0.197 sec
 * ratio c/w:     0.996 speedup
 SCF:
 * wall-time:     0 d,  0 h,  0 min,  0.005 sec
 *  cpu-time:     0 d,  0 h,  0 min,  0.005 sec
 * ratio c/w:     1.000 speedup
 ANC optimizer:
 * wall-time:     0 d,  0 h,  0 min,  0.076 sec
 *  cpu-time:     0 d,  0 h,  0 min,  0.076 sec
 * ratio c/w:     0.993 speedup
 numerical hessian:
 * wall-time:     0 d,  0 h,  0 min,  0.101 sec
 *  cpu-time:     0 d,  0 h,  0 min,  0.101 sec
 * ratio c/w:     0.999 speedup

