 Entering Gaussian System
 *********************************************
 Gaussian 98:
 frequency output generated by the xtb code
 *********************************************
                         Standard orientation:
 --------------------------------------------------------------------
  Center     Atomic     Atomic              Coordinates (Angstroms)
  Number     Number      Type              X           Y           Z
 --------------------------------------------------------------------
    1          6             0       -0.630059    0.575161   -0.013233
    2          7             0        0.513598    1.206935    0.024918
    3          6             0        0.139751   -1.101715   -0.007022
    4          6             0        1.112123    0.021412    0.029197
    5          6             0       -1.135413   -0.701793   -0.033860
 --------------------------------------------------------------------
     1 basis functions        1 primitive gaussians
     1 alpha electrons        1 beta electrons

 Harmonic frequencies (cm**-1), IR intensities (KM/Mole),
 Raman scattering activities (A**4/amu), Raman depolarization ratios,
 reduced masses (AMU), force constants (mDyne/A) and normal coordinates:
                      1                      2                      3
                        a                      a                      a 
 Frequencies --   299.4966               360.7071               546.1383
 Red. masses --    12.1316                12.1422                12.5482
 Frc consts  --     0.0000                 0.0000                 0.0000
 IR Inten    --     0.2430                 0.3166                 0.2750
 Raman Activ --     0.0000                 0.0000                 0.0000
 Depolar     --     0.0000                 0.0000                 0.0000
 Atom AN      X      Y      Z        X      Y      Z        X      Y      Z
   1   6     0.05   0.32   0.00    -0.02  -0.00   0.63     0.02  -0.01  -0.34
   2   7    -0.00   0.25   0.00     0.01   0.00  -0.26    -0.01   0.00   0.52
   3   6     0.13  -0.60  -0.00    -0.01  -0.00   0.40    -0.02  -0.01   0.48
   4   6    -0.54  -0.10  -0.02     0.01   0.00  -0.17     0.01   0.01  -0.61
   5   6     0.37   0.11   0.01     0.01   0.00  -0.59    -0.01   0.00  -0.09
                      4                      5                      6
                        a                      a                      a 
 Frequencies --   566.6167               922.2788               947.0696
 Red. masses --    12.3696                12.9745                12.0564
 Frc consts  --     0.0000                 0.0000                 0.0000
 IR Inten    --     0.3689                 0.8640                 0.3162
 Raman Activ --     0.0000                 0.0000                 0.0000
 Depolar     --     0.0000                 0.0000                 0.0000
 Atom AN      X      Y      Z        X      Y      Z        X      Y      Z
   1   6     0.63  -0.52   0.02    -0.31  -0.16  -0.01     0.06   0.13   0.00
   2   7    -0.01   0.42  -0.01     0.69  -0.10   0.02     0.13   0.07   0.00
   3   6    -0.10  -0.04  -0.01     0.02  -0.05  -0.00     0.20   0.61   0.01
   4   6    -0.24   0.10   0.01    -0.33   0.49  -0.00    -0.46  -0.46  -0.02
   5   6    -0.28   0.00  -0.01    -0.12  -0.17  -0.00     0.06  -0.36  -0.00
                      7                      8                      9
                        a                      a                      a 
 Frequencies --  1096.9290              1440.7523              1617.3221
 Red. masses --    12.2802                12.5108                12.3054
 Frc consts  --     0.0000                 0.0000                 0.0000
 IR Inten    --     0.3872                 0.5218                 1.3296
 Raman Activ --     0.0000                 0.0000                 0.0000
 Depolar     --     0.0000                 0.0000                 0.0000
 Atom AN      X      Y      Z        X      Y      Z        X      Y      Z
   1   6    -0.08  -0.39  -0.00     0.37   0.06   0.01    -0.35  -0.43  -0.01
   2   7    -0.12  -0.35  -0.01    -0.15  -0.48  -0.01     0.14   0.36   0.01
   3   6     0.42   0.15   0.01    -0.44   0.19  -0.01    -0.42   0.12  -0.01
   4   6    -0.28  -0.04  -0.01    -0.22   0.34  -0.00     0.08  -0.22   0.00
   5   6     0.06   0.65   0.01     0.45  -0.07   0.01     0.53   0.14   0.01
