$hessian                                                                        
        0.3745000820   0.1888656321   0.0107356055  -0.2008786918  -0.2664295156
       -0.0072825842  -0.0080223572   0.0256790115   0.0001726334  -0.0946840153
        0.1515815627  -0.0017372928  -0.0709150176  -0.0996966906  -0.0018883620
        0.1888656321   0.3606883271   0.0070991871  -0.0980944954  -0.1645449315
       -0.0038688129   0.1178718994  -0.0513849612   0.0025652052   0.0114997054
        0.0755045838   0.0006849577  -0.2201427414  -0.2202630182  -0.0064805371
        0.0107356055   0.0070991871   0.0398202311  -0.0056314948  -0.0084607377
       -0.0365466899   0.0008841199   0.0002404294  -0.0074430666  -0.0030862375
        0.0046415164   0.0219588269  -0.0029019931  -0.0035203952  -0.0177893016
       -0.2008786918  -0.0980944954  -0.0056314948   0.2824292375   0.1466341561
        0.0077510355  -0.0200496266   0.0042648598  -0.0013270129  -0.0527931745
        0.0243549889   0.0001542096  -0.0087077445  -0.0771595093  -0.0009467374
       -0.2664295156  -0.1645449315  -0.0084607377   0.1466341561   0.5457866020
        0.0089202894  -0.0657884935  -0.0568785165  -0.0024936749   0.1812261090
       -0.2879974127   0.0024609601   0.0043577440  -0.0363657413  -0.0004268369
       -0.0072825842  -0.0038688129  -0.0365466899   0.0077510355   0.0089202894
        0.0474336568  -0.0018596743  -0.0006213457   0.0301866549   0.0016556242
       -0.0020137763  -0.0435510970  -0.0002644013  -0.0024163544   0.0024774752
       -0.0080223572   0.1178718994   0.0008841199  -0.0200496266  -0.0657884935
       -0.0018596743   0.5131187887  -0.0560304749   0.0112333432  -0.0527855359
       -0.0763187747  -0.0011595946  -0.4322612689   0.0802658437  -0.0090981942
        0.0256790115  -0.0513849612   0.0002404294   0.0042648598  -0.0568785165
       -0.0006213457  -0.0560304749   0.2287933325   0.0006048177  -0.1432471140
       -0.0944348994  -0.0042821192   0.1693337177  -0.0260949555   0.0040582179
        0.0001726334   0.0025652052  -0.0074430666  -0.0013270129  -0.0024936749
        0.0301866549   0.0112333432   0.0006048177   0.0414575725  -0.0015249110
       -0.0026087400  -0.0439374710  -0.0085540527   0.0019323920  -0.0202636898
       -0.0946840153   0.0114997054  -0.0030862375  -0.0527931745   0.1812261090
        0.0016556242  -0.0527855359  -0.1432471140  -0.0015249110   0.2446832991
       -0.0647822300   0.0043293017  -0.0444205734   0.0153035296  -0.0013737775
        0.1515815627   0.0755045838   0.0046415164   0.0243549889  -0.2879974127
       -0.0020137763  -0.0763187747  -0.0944348994  -0.0026087400  -0.0647822300
        0.3474448136   0.0012132080  -0.0348355468  -0.0405170853  -0.0012322080
       -0.0017372928   0.0006849577   0.0219588269   0.0001542096   0.0024609601
       -0.0435510970  -0.0011595946  -0.0042821192  -0.0439374710   0.0043293017
        0.0012132080   0.0520400189  -0.0015866239  -0.0000770066   0.0134897221
       -0.0709150176  -0.2201427414  -0.0029019931  -0.0087077445   0.0043577440
       -0.0002644013  -0.4322612689   0.1693337177  -0.0085540527  -0.0444205734
       -0.0348355468  -0.0015866239   0.5563046045   0.0812868266   0.0133070710
       -0.0996966906  -0.2202630182  -0.0035203952  -0.0771595093  -0.0363657413
       -0.0024163544   0.0802658437  -0.0260949555   0.0019323920   0.0153035296
       -0.0405170853  -0.0000770066   0.0812868266   0.3232408003   0.0040813642
       -0.0018883620  -0.0064805371  -0.0177893016  -0.0009467374  -0.0004268369
        0.0024774752  -0.0090981942   0.0040582179  -0.0202636898  -0.0013737775
       -0.0012322080   0.0134897221   0.0133070710   0.0040813642   0.0220857941
