$hessian                                                                        
        0.3419407161   0.2410727385  -0.0011274674  -0.1269077481  -0.0752485000
       -0.1020630683  -0.1244064470  -0.0748427187   0.1026416097  -0.0214833930
       -0.0328655103   0.0001164230  -0.0691431280  -0.0581160094   0.0004325031
        0.2410727385   0.2812511764  -0.0015593249  -0.0755572009  -0.1064511001
       -0.0897423644  -0.0744132840  -0.1070105542   0.0907866777  -0.0641388751
       -0.0576945544   0.0003431504  -0.0269633786  -0.0100949677   0.0001718612
       -0.0011274674  -0.0015593249   0.1392708349  -0.0620369663  -0.0544753952
       -0.0743082678   0.0625993392   0.0554714904  -0.0762727561   0.0000327452
        0.0001598749   0.0056590540   0.0005323492   0.0004033548   0.0056511350
       -0.1269077481  -0.0755572009  -0.0620369663   0.1890870536   0.1419202476
       -0.0199824553   0.0951648046  -0.0489660681  -0.0255869155  -0.0125568652
       -0.0304813259   0.0964769017  -0.1447872449   0.0130843472   0.0111294354
       -0.0752485000  -0.1064511001  -0.0544753952   0.1419202476   0.1535970496
       -0.0209918251  -0.0496066504   0.1074414886  -0.0195808271  -0.0032914202
       -0.1435750380  -0.0017458347  -0.0137736769  -0.0110124001   0.0967938820
       -0.1020630683  -0.0897423644  -0.0743082678  -0.0199824553  -0.0209918251
        0.4030477775   0.0210502345   0.0215110014  -0.1837378395  -0.0040295107
        0.1059662866  -0.0724194779   0.1050247998  -0.0167430986  -0.0725821922
       -0.1244064470  -0.0744132840   0.0625993392   0.0951648046  -0.0496066504
        0.0210502345   0.1897258550   0.1421596366   0.0238317353  -0.0139511920
       -0.0315695344  -0.0976271889  -0.1465330206   0.0134298322  -0.0098541201
       -0.0748427187  -0.1070105542   0.0554714904  -0.0489660681   0.1074414886
        0.0215110014   0.1421596366   0.1534164051   0.0177078444  -0.0033225195
       -0.1431516761   0.0015170903  -0.0150283304  -0.0106956634  -0.0962074266
        0.1026416097   0.0907866777  -0.0762727561  -0.0255869155  -0.0195808271
       -0.1837378395   0.0238317353   0.0177078444   0.4025868315   0.0032205484
       -0.1057482791  -0.0713647435  -0.1041069779   0.0168345840  -0.0712114923
       -0.0214833930  -0.0641388751   0.0000327452  -0.0125568652  -0.0032914202
       -0.0040295107  -0.0139511920  -0.0033225195   0.0032205484   0.1023272876
        0.0003292669  -0.0007829059  -0.0543358374   0.0704235478   0.0015591230
       -0.0328655103  -0.0576945544   0.0001598749  -0.0304813259  -0.1435750380
        0.1059662866  -0.0315695344  -0.1431516761  -0.1057482791   0.0003292669
        0.4197651923   0.0008526952   0.0945871037  -0.0753439238  -0.0012305776
        0.0001164230   0.0003431504   0.0056590540   0.0964769017  -0.0017458347
       -0.0724194779  -0.0976271889   0.0015170903  -0.0713647435  -0.0007829059
        0.0008526952  -0.0006921313   0.0018167702  -0.0009671012   0.1388172986
       -0.0691431280  -0.0269633786   0.0005323492  -0.1447872449  -0.0137736769
        0.1050247998  -0.1465330206  -0.0150283304  -0.1041069779  -0.0543358374
        0.0945871037   0.0018167702   0.4147992310  -0.0388217178  -0.0032669414
       -0.0581160094  -0.0100949677   0.0004033548   0.0130843472  -0.0110124001
       -0.0167430986   0.0134298322  -0.0106956634   0.0168345840   0.0704235478
       -0.0753439238  -0.0009671012  -0.0388217178   0.1071469550   0.0004722610
        0.0004325031   0.0001718612   0.0056511350   0.0111294354   0.0967938820
       -0.0725821922  -0.0098541201  -0.0962074266  -0.0712114923   0.0015591230
       -0.0012305776   0.1388172986  -0.0032669414   0.0004722610  -0.0006747491
