      -----------------------------------------------------------      
     |                   =====================                   |     
     |                           x T B                           |     
     |                   =====================                   |     
     |                         S. Grimme                         |     
     |          Mulliken Center for Theoretical Chemistry        |     
     |                    University of Bonn                     |     
      -----------------------------------------------------------      

   * xtb version 6.2.2 (9d81278992624c895f80dd42a50cac0aa55982e2) compiled by '@Darwin' on 04/03/2020

   xtb is free software: you can redistribute it and/or modify it under
   the terms of the GNU Lesser General Public License as published by
   the Free Software Foundation, either version 3 of the License, or
   (at your option) any later version.
   
   xtb is distributed in the hope that it will be useful,
   but WITHOUT ANY WARRANTY; without even the implied warranty of
   MERCHANTABILITY or FITNESS FOR A PARTICULAR PURPOSE.  See the
   GNU Lesser General Public License for more details.
   
   Cite this work as:
   * S. Grimme, C. Bannwarth, P. Shushkov, J. Chem. Theory Comput., 2017,
     13, 1989-2009. DOI: 10.1021/acs.jctc.7b00118
   * C. Bannwarth, S. Ehlert and S. Grimme., J. Chem. Theory Comput., 2019,
     15, 1652-1671. DOI: 10.1021/acs.jctc.8b01176
   * P. Pracht, E. Caldeweyher, S. Ehlert, S. Grimme, ChemRxiv, 2019, preprint.
     DOI: 10.26434/chemrxiv.8326202.v1
   
   for DFT-D4:
   * E. Caldeweyher, C. Bannwarth and S. Grimme, J. Chem. Phys., 2017,
     147, 034112. DOI: 10.1063/1.4993215
   * E. Caldeweyher, S. Ehlert, A. Hansen, H. Neugebauer, S. Spicher,
     C. Bannwarth and S. Grimme, J. Chem. Phys., 2019, 150, 154122.
     DOI: 10.1063/1.5090222
   
   for sTDA-xTB:
   * S. Grimme and C. Bannwarth, J. Chem. Phys., 2016, 145, 054103.
     DOI: 10.1063/1.4959605
   
   in the mass-spec context:
   * V. Asgeirsson, C. Bauer and S. Grimme, Chem. Sci., 2017, 8, 4879.
     DOI: 10.1039/c7sc00601b
   
   for metadynamics refer to:
   * S. Grimme, J. Chem. Theory Comput., 2019, 155, 2847-2862
     DOI: 10.1021/acs.jctc.9b00143
   
   with help from (in alphabetical order)
   C. Bannwarth, F. Bohle, G. Brandenburg, E. Caldeweyher, M. Checinski,
   S. Dohm, S. Ehlert, S. Ehrlich, F. März, H. Neugebauer, J. Pisarek,
   P. Pracht, P. Shushkov, and S. Spicher.
   
 * started run on 2020/05/12 at 11:44:18.785     

           -------------------------------------------------
          |                Calculation Setup                |
           -------------------------------------------------

          program call               : xtb --input C4N1_45_S_3.input C4N1_45_S_3.xyz --ohess --molden --namespace C4N1_45_S_3 output.out
          calculation namespace      : C4N1_45_S_3
          coordinate file            : C4N1_45_S_3.xyz
          number of atoms            :                     5
          number of electrons        :                    21
          charge                     :                     0
          spin                       :                   1.5
          first test random number   :      0.23555202999651

   ID    Z sym.   atoms
    1    7 N      1
    2    6 C      2-5

           -------------------------------------------------
          |                 G F N 2 - x T B                 |
           -------------------------------------------------

        Reference                      10.1021/acs.jctc.8b01176
      * Hamiltonian:
        H0-scaling (s, p, d)           1.850000    2.230000    2.230000
        zeta-weighting                 0.500000
      * Dispersion:
        s8                             2.700000
        a1                             0.520000
        a2                             5.000000
        s9                             5.000000
      * Repulsion:
        kExp                           1.500000    1.000000
        rExp                           1.000000
      * Coulomb:
        alpha                          2.000000
        third order                    shell-resolved
        anisotropic                    true
        a3                             3.000000
        a5                             4.000000
        cn-shift                       1.200000
        cn-exp                         4.000000
        max-rad                        5.000000


          ...................................................
          :                      SETUP                      :
          :.................................................:
          :  # basis functions                  20          :
          :  # atomic orbitals                  20          :
          :  # shells                           10          :
          :  # electrons                        21          :
          :  max. iterations                   250          :
          :  Hamiltonian                  GFN2-xTB          :
          :  restarted?                      false          :
          :  GBSA solvation                  false          :
          :  PC potential                    false          :
          :  electronic temp.          300.0000000     K    :
          :  accuracy                    1.0000000          :
          :  -> integral cutoff          0.2500000E+02      :
          :  -> integral neglect         0.1000000E-07      :
          :  -> SCF convergence          0.1000000E-05 Eh   :
          :  -> wf. convergence          0.1000000E-03 e    :
          :  Broyden damping             0.4000000          :
          ...................................................

 iter      E             dE          RMSdq      gap      omega  full diag
   1    -10.9445143 -0.109445E+02  0.934E+00    0.63       0.0  T
   2    -10.8563056  0.882087E-01  0.655E+00    0.95       1.0  T
   3    -10.2519012  0.604404E+00  0.976E+00    0.75       1.0  T
   4    -10.9591486 -0.707247E+00  0.274E+00    0.86       1.0  T
   5    -10.9730422 -0.138936E-01  0.156E+00    0.83       1.0  T
   6    -10.9780753 -0.503309E-02  0.109E+00    0.82       1.0  T
   7    -10.9802008 -0.212553E-02  0.636E-01    0.80       1.0  T
   8    -10.9811295 -0.928634E-03  0.157E-01    0.79       1.0  T
   9    -10.9812821 -0.152630E-03  0.419E-02    0.79       1.1  T
  10    -10.9812871 -0.499511E-05  0.191E-02    0.79       2.3  T
  11    -10.9812882 -0.115274E-05  0.816E-03    0.79       5.5  T
  12    -10.9812884 -0.157330E-06  0.423E-03    0.79      10.6  T
  13    -10.9812884 -0.455213E-07  0.161E-03    0.79      27.8  T
  14    -10.9812884 -0.549696E-08  0.825E-04    0.79      54.2  T
  15    -10.9812884 -0.196093E-08  0.143E-04    0.79     313.7  T

   *** convergence criteria satisfied after 15 iterations ***

         #    Occupation            Energy/Eh            Energy/eV
      -------------------------------------------------------------
         1        2.0000           -0.7943669             -21.6158
       ...           ...                  ...                  ...
         6        2.0000           -0.5383546             -14.6494
         7        2.0000           -0.5178250             -14.0907
         8        2.0000           -0.5105289             -13.8922
         9        2.0000           -0.5098679             -13.8742
        10        1.0000           -0.4844192             -13.1817
        11        1.0000           -0.4314160             -11.7394
        12        1.0000           -0.4116280             -11.2010 (HOMO)
        13        0.0000           -0.3826148             -10.4115 (LUMO)
        14                         -0.3195990              -8.6967
        15                         -0.0980018              -2.6668
        16                         -0.0904595              -2.4615
        17                         -0.0181773              -0.4946
       ...                                ...                  ...
        20                          0.4138179              11.2606
      -------------------------------------------------------------
                  HL-Gap            0.0290132 Eh            0.7895 eV
             Fermi-level           -0.4470364 Eh          -12.1645 eV

 SCC (total)                   0 d,  0 h,  0 min,  0.005 sec
 SCC setup                      ...        0 min,  0.000 sec (  1.537%)
 Dispersion                     ...        0 min,  0.000 sec (  0.339%)
 integral evaluation            ...        0 min,  0.001 sec ( 26.644%)
 zeroth order Hamiltonian       ...        0 min,  0.000 sec (  0.444%)
 iterations                     ...        0 min,  0.002 sec ( 39.973%)
 molecular gradient             ...        0 min,  0.001 sec ( 28.987%)
 printout                       ...        0 min,  0.000 sec (  1.880%)

         :::::::::::::::::::::::::::::::::::::::::::::::::::::
         ::                     SUMMARY                     ::
         :::::::::::::::::::::::::::::::::::::::::::::::::::::
         :: total energy             -10.864989498379 Eh    ::
         :: gradient norm              0.249374854604 Eh/a0 ::
         :: HOMO-LUMO gap              0.789488888480 eV    ::
         ::.................................................::
         :: SCC energy               -10.981288447907 Eh    ::
         :: -> isotropic ES           -0.005492840143 Eh    ::
         :: -> anisotropic ES          0.003065252516 Eh    ::
         :: -> anisotropic XC          0.006665050497 Eh    ::
         :: -> dispersion             -0.002617918102 Eh    ::
         :: repulsion energy           0.116298896570 Eh    ::
         :: add. restraining           0.000000000000 Eh    ::
         :::::::::::::::::::::::::::::::::::::::::::::::::::::

      ----------------------------------------------------------- 
     |                   =====================                   |
     |                        A N C O P T                        |
     |                   =====================                   |
     |               Approximate Normal Coordinate               |
     |                Rational Function Optimizer                |
      ----------------------------------------------------------- 

          ...................................................
          :                      SETUP                      :
          :.................................................:
          :   optimization level            normal          :
          :   max. optcycles                   200          :
          :   ANC micro-cycles                  20          :
          :   degrees of freedom                 9          :
          :.................................................:
          :   RF solver                   davidson          :
          :   write xtbopt.log                true          :
          :   linear?                        false          :
          :   energy convergence         0.5000000E-05 Eh   :
          :   grad. convergence          0.1000000E-02 Eh/α :
          :   maximium RF displ.         1.0000000          :
          :   Hlow (freq-cutoff)         0.1000000E-01      :
          :   Hmax (freq-cutoff)         5.0000000          :
          :   S6 in model hess.         20.0000000          :
          ...................................................

generating ANC from model Hessian ...
Using Lindh-Hessian (1995)
 Shifting diagonal of input Hessian by    0.0000000000000000     
 Lowest  eigenvalues of input Hessian
   -0.000000   -0.000000   -0.000000   -0.000000    0.000000    0.000000
    0.125975    0.141128    0.612896    0.651242    0.817606    0.937113
    1.139698    1.278761    1.854362
 Highest eigenvalues
    0.651242    0.817606    0.937113    1.139698    1.278761    1.854362


........................................................................
.............................. CYCLE    1 ..............................
........................................................................
   1    -10.9812884 -0.109813E+02  0.733E-05    0.79       0.0  T
   2    -10.9812884  0.966693E-11  0.670E-05    0.79     667.2  T
   3    -10.9812884 -0.229345E-10  0.300E-05    0.79    1488.9  T
     SCC iter.                  ...        0 min,  0.001 sec
     gradient                   ...        0 min,  0.001 sec
 * total energy  :   -10.8649895 Eh     change       -0.9411263E-09 Eh
   gradient norm :     0.2493749 Eh/α   predicted     0.0000000E+00 (-100.00%)
   displ. norm   :     0.2779763 α      lambda       -0.5800468E-01
   maximum displ.:     0.2207226 α      in ANC's #4, #1, #9, ...

........................................................................
.............................. CYCLE    2 ..............................
........................................................................
   1    -11.0117493 -0.110117E+02  0.214E+00    1.30       0.0  T
   2    -11.0088626  0.288669E-02  0.146E+00    1.32       1.0  T
   3    -11.0018372  0.702544E-02  0.135E+00    1.24       1.0  T
   4    -11.0122269 -0.103897E-01  0.434E-01    1.32       1.0  T
   5    -11.0128636 -0.636771E-03  0.236E-01    1.29       1.0  T
   6    -11.0130020 -0.138361E-03  0.156E-01    1.30       1.0  T
   7    -11.0130744 -0.724150E-04  0.155E-02    1.30       2.9  T
   8    -11.0130734  0.959590E-06  0.169E-02    1.30       2.6  T
   9    -11.0130753 -0.182555E-05  0.343E-03    1.30      13.1  T
  10    -11.0130753 -0.151721E-07  0.505E-04    1.30      88.5  T
  11    -11.0130753 -0.348019E-09  0.102E-04    1.30     438.6  T
     SCC iter.                  ...        0 min,  0.001 sec
     gradient                   ...        0 min,  0.001 sec
 * total energy  :   -10.9082864 Eh     change       -0.4329688E-01 Eh
   gradient norm :     0.1182796 Eh/α   predicted    -0.3124337E-01 ( -27.84%)
   displ. norm   :     0.4233046 α      lambda       -0.3957116E-01
   maximum displ.:     0.3155439 α      in ANC's #1, #4, #9, ...

........................................................................
.............................. CYCLE    3 ..............................
........................................................................
   1    -11.0284514 -0.110285E+02  0.313E+00    1.95       0.0  T
   2    -10.9222191  0.106232E+00  0.430E+00    2.30       1.0  T
   3    -11.0236554 -0.101436E+00  0.226E+00    2.10       1.0  T
   4    -11.0420994 -0.184440E-01  0.111E+00    1.96       1.0  T
   5    -11.0501645 -0.806503E-02  0.213E-01    2.03       1.0  T
   6    -11.0501615  0.299913E-05  0.183E-01    2.06       1.0  T
   7    -11.0502512 -0.897510E-04  0.753E-02    2.05       1.0  T
   8    -11.0502761 -0.248639E-04  0.160E-02    2.06       2.8  T
   9    -11.0502767 -0.613115E-06  0.271E-03    2.06      16.5  T
  10    -11.0502767  0.111092E-07  0.234E-03    2.06      19.1  T
  11    -11.0502767 -0.331801E-07  0.199E-03    2.06      22.5  T
  12    -11.0502767 -0.857817E-08  0.478E-04    2.06      93.6  T
  13    -11.0502767 -0.413726E-09  0.336E-04    2.06     133.0  T
     SCC iter.                  ...        0 min,  0.001 sec
     gradient                   ...        0 min,  0.001 sec
 * total energy  :   -10.9401132 Eh     change       -0.3182687E-01 Eh
   gradient norm :     0.0640811 Eh/α   predicted    -0.2333088E-01 ( -26.69%)
   displ. norm   :     0.6042121 α      lambda       -0.3330039E-01
   maximum displ.:     0.5079908 α      in ANC's #1, #4, #9, ...

........................................................................
.............................. CYCLE    4 ..............................
........................................................................
   1    -11.0651592 -0.110652E+02  0.379E+00    0.57       0.0  T
   2    -11.0553449  0.981429E-02  0.251E+00    0.96       1.0  T
   3    -11.0442297  0.111152E-01  0.229E+00    0.57       1.0  T
   4    -11.0647698 -0.205401E-01  0.131E+00    0.67       1.0  T
   5    -11.0742152 -0.944545E-02  0.316E-01    0.76       1.0  T
   6    -11.0743002 -0.849676E-04  0.285E-01    0.77       1.0  T
   7    -11.0744153 -0.115094E-03  0.461E-02    0.79       1.0  T
   8    -11.0744257 -0.104551E-04  0.876E-03    0.79       5.1  T
   9    -11.0744259 -0.149040E-06  0.123E-03    0.79      36.5  T
  10    -11.0744259  0.345679E-08  0.110E-03    0.79      40.5  T
  11    -11.0744259 -0.695480E-08  0.299E-04    0.79     149.8  T
  12    -11.0744259 -0.312941E-09  0.170E-04    0.79     262.7  T
     SCC iter.                  ...        0 min,  0.001 sec
     gradient                   ...        0 min,  0.001 sec
 * total energy  :   -10.9569430 Eh     change       -0.1682978E-01 Eh
   gradient norm :     0.0263357 Eh/α   predicted    -0.2272871E-01 (  35.05%)
   displ. norm   :     0.1790847 α      lambda       -0.4213148E-02
   maximum displ.:     0.1677385 α      in ANC's #1, #4, #9, ...

........................................................................
.............................. CYCLE    5 ..............................
........................................................................
   1    -11.0735033 -0.110735E+02  0.112E+00    1.18       0.0  T
   2    -11.0736310 -0.127749E-03  0.686E-01    1.10       1.0  T
   3    -11.0732995  0.331547E-03  0.442E-01    1.19       1.0  T
   4    -11.0738974 -0.597919E-03  0.687E-02    1.14       1.0  T
   5    -11.0739314 -0.340435E-04  0.361E-02    1.14       1.2  T
   6    -11.0739375 -0.610201E-05  0.531E-03    1.14       8.4  T
   7    -11.0739376 -0.662200E-08  0.293E-03    1.14      15.3  T
   8    -11.0739376 -0.583387E-08  0.606E-04    1.14      73.8  T
   9    -11.0739376 -0.221491E-08  0.276E-04    1.14     161.7  T
     SCC iter.                  ...        0 min,  0.001 sec
     gradient                   ...        0 min,  0.001 sec
 * total energy  :   -10.9574958 Eh     change       -0.5528121E-03 Eh
   gradient norm :     0.0194349 Eh/α   predicted    -0.2174134E-02 ( 293.29%)
   displ. norm   :     0.0676140 α      lambda       -0.1105955E-02
   maximum displ.:     0.0566750 α      in ANC's #1, #4, #9, ...

........................................................................
.............................. CYCLE    6 ..............................
........................................................................
   1    -11.0753766 -0.110754E+02  0.450E-01    0.95       0.0  T
   2    -11.0753687  0.790168E-05  0.268E-01    0.98       1.0  T
   3    -11.0750815  0.287128E-03  0.234E-01    0.94       1.0  T
   4    -11.0753288 -0.247276E-03  0.117E-01    0.96       1.0  T
   5    -11.0754368 -0.107995E-03  0.146E-02    0.97       3.1  T
   6    -11.0754366  0.243760E-06  0.818E-03    0.97       5.5  T
   7    -11.0754369 -0.339448E-06  0.211E-03    0.97      21.2  T
   8    -11.0754369 -0.474689E-08  0.172E-03    0.97      26.0  T
   9    -11.0754369 -0.158264E-07  0.422E-04    0.97     105.9  T
  10    -11.0754369 -0.114061E-08  0.136E-04    0.97     329.0  T
     SCC iter.                  ...        0 min,  0.001 sec
     gradient                   ...        0 min,  0.001 sec
 * total energy  :   -10.9581815 Eh     change       -0.6857022E-03 Eh
   gradient norm :     0.0074813 Eh/α   predicted    -0.5555042E-03 ( -18.99%)
   displ. norm   :     0.0170265 α      lambda       -0.8165802E-04
   maximum displ.:     0.0135195 α      in ANC's #1, #4, #9, ...

........................................................................
.............................. CYCLE    7 ..............................
........................................................................
   1    -11.0750464 -0.110750E+02  0.118E-01    0.92       0.0  T
   2    -11.0750423  0.400960E-05  0.732E-02    0.92       1.0  T
   3    -11.0749978  0.445789E-04  0.794E-02    0.92       1.0  T
   4    -11.0750475 -0.497658E-04  0.224E-02    0.92       2.0  T
   5    -11.0750506 -0.306881E-05  0.418E-03    0.92      10.7  T
   6    -11.0750506 -0.292516E-07  0.122E-03    0.92      36.5  T
   7    -11.0750506 -0.559471E-08  0.378E-04    0.92     118.2  T
   8    -11.0750506  0.512676E-09  0.316E-04    0.92     141.5  T
     SCC iter.                  ...        0 min,  0.001 sec
     gradient                   ...        0 min,  0.001 sec
 * total energy  :   -10.9582236 Eh     change       -0.4202803E-04 Eh
   gradient norm :     0.0029779 Eh/α   predicted    -0.4084094E-04 (  -2.82%)
   displ. norm   :     0.0033407 α      lambda       -0.8008174E-05
   maximum displ.:     0.0025904 α      in ANC's #1, #9, #8, ...

........................................................................
.............................. CYCLE    8 ..............................
........................................................................
   1    -11.0747186 -0.110747E+02  0.197E-02    0.92       0.0  T
   2    -11.0747175  0.104214E-05  0.196E-02    0.92       2.3  T
   3    -11.0747189 -0.139385E-05  0.973E-03    0.92       4.6  T
   4    -11.0747190 -0.233965E-07  0.649E-03    0.92       6.9  T
   5    -11.0747192 -0.279300E-06  0.443E-04    0.92     100.9  T
   6    -11.0747192 -0.410765E-10  0.991E-05    0.92     451.1  T
     SCC iter.                  ...        0 min,  0.001 sec
     gradient                   ...        0 min,  0.001 sec
 * total energy  :   -10.9582294 Eh     change       -0.5857054E-05 Eh
   gradient norm :     0.0015074 Eh/α   predicted    -0.4004568E-05 ( -31.63%)
   displ. norm   :     0.0046479 α      lambda       -0.3706213E-05
   maximum displ.:     0.0036202 α      in ANC's #1, #9, #8, ...

........................................................................
.............................. CYCLE    9 ..............................
........................................................................
   1    -11.0742081 -0.110742E+02  0.277E-02    0.91       0.0  T
   2    -11.0742068  0.127639E-05  0.237E-02    0.91       1.9  T
   3    -11.0742079 -0.106140E-05  0.152E-02    0.91       2.9  T
   4    -11.0742085 -0.649115E-06  0.899E-03    0.91       5.0  T
   5    -11.0742091 -0.551372E-06  0.622E-04    0.91      71.9  T
   6    -11.0742091  0.134386E-08  0.419E-04    0.91     106.8  T
     SCC iter.                  ...        0 min,  0.001 sec
     gradient                   ...        0 min,  0.001 sec
 * total energy  :   -10.9582311 Eh     change       -0.1663959E-05 Eh
   gradient norm :     0.0006879 Eh/α   predicted    -0.1853080E-05 (  11.37%)
   displ. norm   :     0.0014454 α      lambda       -0.5278802E-06
   maximum displ.:     0.0011675 α      in ANC's #1, #9, #8, ...

   *** GEOMETRY OPTIMIZATION CONVERGED AFTER 9 ITERATIONS ***

------------------------------------------------------------------------
 total energy gain   :        -0.0932416 Eh      -58.5100 kcal/mol
 total RMSD          :         0.5338769 a0        0.2825 Å
 total power (kW/mol):       -27.2006407 (step)-7209.4887 (real)
------------------------------------------------------------------------

 ANCopt (total)                0 d,  0 h,  0 min,  0.034 sec
 optimizer setup                ...        0 min,  0.000 sec (  0.180%)
 model hessian                  ...        0 min,  0.000 sec (  0.286%)
 ANC generation                 ...        0 min,  0.000 sec (  0.147%)
 coordinate transformation      ...        0 min,  0.000 sec (  0.062%)
 single point calculation       ...        0 min,  0.033 sec ( 97.051%)
 optimization log               ...        0 min,  0.000 sec (  0.536%)
 hessian update                 ...        0 min,  0.000 sec (  0.100%)
 rational function              ...        0 min,  0.000 sec (  0.585%)

================
 final structure:
================
5
 xtb: 6.2.2 (9d81278992624c895f80dd42a50cac0aa55982e2)
N        -0.93579520168091   -0.82547412175169    0.00549418169672
C        -0.10859184666503   -0.10331052895260    0.85418444150809
C        -0.12168861567063   -0.09982180606326   -0.85283396269974
C         0.05355671188733    1.11458314276926    0.00179850263846
C         1.11251795212924   -0.08597668600170   -0.00864216314352

 Bond Distances (Angstroems)
 ---------------------------
N1-C2=1.3878         N1-C3=1.3878         C2-N1=1.3878         C2-C3=1.7071         C2-C4=1.4954         C2-C5=1.4953         
C3-N1=1.3878         C3-C2=1.7071         C3-C4=1.4953         C3-C5=1.4954         C4-C2=1.4954         C4-C3=1.4953         
C4-C5=1.6009         C5-C2=1.4953         C5-C3=1.4954         C5-C4=1.6009         
 C  C  Rav=1.5482 sigma=0.0808  Rmin=1.4953  Rmax=1.7071     6
 N  C  Rav=1.3878 sigma=0.0000  Rmin=1.3878  Rmax=1.3878     2

 selected bond angles (degree)
 --------------------
C3-N1-C2= 75.91                C3-C2-N1= 52.05                C4-C2-N1= 98.04                C4-C2-C3= 55.19                
C5-C2-N1= 98.04                C5-C2-C3= 55.20                C5-C2-C4= 64.73                C2-C3-N1= 52.05                
C4-C3-N1= 98.04                C4-C3-C2= 55.20                C5-C3-N1= 98.04                C5-C3-C2= 55.19                
C5-C3-C4= 64.73                C3-C4-C2= 69.61                C5-C4-C2= 57.63                C5-C4-C3= 57.64                
C3-C5-C2= 69.61                C4-C5-C2= 57.64                C4-C5-C3= 57.63                

 selected dihedral angles (degree)
 ---------------------------------
C4-C2-N1-C3= 32.72            C5-C2-N1-C3=327.27            C4-C3-N1-C2=327.27            C5-C3-N1-C2= 32.72            
N1-C3-C2-C4=220.69            N1-C3-C2-C5=139.31            C4-C3-C2-N1=139.31            C4-C3-C2-C5=278.62            
C5-C3-C2-N1=220.69            C5-C3-C2-C4= 81.38            C3-C4-C2-N1=328.72            C3-C4-C2-C5= 63.86            
C5-C4-C2-N1=264.86            C5-C4-C2-C3=296.14            C2-C4-C3-N1= 31.28            C2-C4-C3-C5=296.14            
C5-C4-C3-N1= 95.13            C5-C4-C3-C2= 63.86            C3-C5-C2-N1= 31.28            C3-C5-C2-C4=296.14            
C4-C5-C2-N1= 95.13            C4-C5-C2-C3= 63.86            C2-C5-C3-N1=328.72            C2-C5-C3-C4= 63.86            
C4-C5-C3-N1=264.86            C4-C5-C3-C2=296.14            C2-C5-C4-C3=274.97            C3-C5-C4-C2= 85.03            
           -------------------------------------------------
          |                Final Singlepoint                |
           -------------------------------------------------

          ...................................................
          :                      SETUP                      :
          :.................................................:
          :  # basis functions                  20          :
          :  # atomic orbitals                  20          :
          :  # shells                           10          :
          :  # electrons                        21          :
          :  max. iterations                   250          :
          :  Hamiltonian                  GFN2-xTB          :
          :  restarted?                      false          :
          :  GBSA solvation                  false          :
          :  PC potential                    false          :
          :  electronic temp.          300.0000000     K    :
          :  accuracy                    1.0000000          :
          :  -> integral cutoff          0.2500000E+02      :
          :  -> integral neglect         0.1000000E-07      :
          :  -> SCF convergence          0.1000000E-05 Eh   :
          :  -> wf. convergence          0.1000000E-03 e    :
          :  Broyden damping             0.4000000          :
          ...................................................

 iter      E             dE          RMSdq      gap      omega  full diag
   1    -11.0742091 -0.110742E+02  0.211E-04    0.91       0.0  T
   2    -11.0742091  0.843379E-10  0.116E-04    0.91     386.1  T
   3    -11.0742091  0.185828E-09  0.232E-04    0.91     192.9  T

   *** convergence criteria satisfied after 3 iterations ***

         #    Occupation            Energy/Eh            Energy/eV
      -------------------------------------------------------------
         1        2.0000           -0.7725236             -21.0214
       ...           ...                  ...                  ...
         6        2.0000           -0.5363922             -14.5960
         7        2.0000           -0.4950527             -13.4711
         8        2.0000           -0.4848847             -13.1944
         9        1.9999           -0.4783782             -13.0173
        10        1.0001           -0.4597707             -12.5110
        11        1.0000           -0.4402111             -11.9788
        12        1.0000           -0.3813175             -10.3762 (HOMO)
        13                         -0.3480256              -9.4703 (LUMO)
        14                         -0.1632111              -4.4412
        15                         -0.1161588              -3.1608
        16                          0.0659618               1.7949
        17                          0.0915852               2.4922
       ...                                ...                  ...
        20                          0.3302996               8.9879
      -------------------------------------------------------------
                  HL-Gap            0.0332919 Eh            0.9059 eV
             Fermi-level           -0.4168727 Eh          -11.3437 eV

 SCC (total)                   0 d,  0 h,  0 min,  0.003 sec
 SCC setup                      ...        0 min,  0.000 sec (  1.545%)
 Dispersion                     ...        0 min,  0.000 sec (  0.407%)
 integral evaluation            ...        0 min,  0.001 sec ( 38.139%)
 zeroth order Hamiltonian       ...        0 min,  0.000 sec (  0.436%)
 iterations                     ...        0 min,  0.000 sec ( 12.996%)
 molecular gradient             ...        0 min,  0.001 sec ( 44.060%)
 printout                       ...        0 min,  0.000 sec (  2.210%)

         :::::::::::::::::::::::::::::::::::::::::::::::::::::
         ::                     SUMMARY                     ::
         :::::::::::::::::::::::::::::::::::::::::::::::::::::
         :: total energy             -10.958231091610 Eh    ::
         :: gradient norm              0.000687872375 Eh/a0 ::
         :: HOMO-LUMO gap              0.905918077814 eV    ::
         ::.................................................::
         :: SCC energy               -11.074209054430 Eh    ::
         :: -> isotropic ES           -0.000042995597 Eh    ::
         :: -> anisotropic ES          0.001504140713 Eh    ::
         :: -> anisotropic XC          0.004271452262 Eh    ::
         :: -> dispersion             -0.002493299182 Eh    ::
         :: repulsion energy           0.115977941549 Eh    ::
         :: add. restraining           0.000000000000 Eh    ::
         :::::::::::::::::::::::::::::::::::::::::::::::::::::

           ------------------------------------------------- 
          |                Numerical Hessian                |
           ------------------------------------------------- 
step length          :   0.00500
SCC accuracy         :   0.30000
Hessian scale factor :   1.00000
frozen atoms in %    :   0.00000    0
RMS gradient         :   0.00069
estimated CPU  time      0.00 min
estimated wall time      0.00 min

writing file <hessian>.

 projected vibrational frequencies (cm-1)
eigval :       -0.00    -0.00    -0.00     0.00     0.00     0.00
eigval :     -759.58   581.53   669.92   811.26   824.35   983.86
eigval :      984.52  1275.90  1378.72
           -------------------------------------------------
          |                Property Printout                |
           -------------------------------------------------

    * Orbital Energies and Occupations

         #    Occupation            Energy/Eh            Energy/eV
      -------------------------------------------------------------
         1        2.0000           -0.7725237             -21.0214
         2        2.0000           -0.6835019             -18.5990
         3        2.0000           -0.6371648             -17.3381
         4        2.0000           -0.6326602             -17.2156
         5        2.0000           -0.5718125             -15.5598
         6        2.0000           -0.5363923             -14.5960
         7        2.0000           -0.4950529             -13.4711
         8        2.0000           -0.4848848             -13.1944
         9        1.9999           -0.4783783             -13.0173
        10        1.0001           -0.4597709             -12.5110
        11        1.0000           -0.4402112             -11.9788
        12        1.0000           -0.3813175             -10.3762 (HOMO)
        13                         -0.3480257              -9.4703 (LUMO)
        14                         -0.1632113              -4.4412
        15                         -0.1161590              -3.1608
        16                          0.0659617               1.7949
        17                          0.0915851               2.4922
        18                          0.1042990               2.8381
        19                          0.1304452               3.5496
        20                          0.3302995               8.9879
      -------------------------------------------------------------
                  HL-Gap            0.0332919 Eh            0.9059 eV
             Fermi-level           -0.4168729 Eh          -11.3437 eV

     #   Z        covCN         q      C6AA      α(0)
     1   7 N      2.008    -0.138    24.718     7.374
     2   6 C      3.786     0.085    19.192     6.240
     3   6 C      3.786     0.085    19.192     6.240
     4   6 C      3.013    -0.016    28.379     8.739
     5   6 C      3.013    -0.016    28.379     8.739

 Mol. C6AA /au·bohr⁶  :        593.322612
 Mol. C8AA /au·bohr⁸  :      16284.897622
 Mol. α(0) /au        :         37.330763


Wiberg/Mayer (AO) data.
largest (>0.10) Wiberg bond orders for each atom
          total WBO             WBO to atom ...
     1  N   2.389        C    2 1.082    C    3 1.082    C    4 0.113    C    5 0.113
     2  C   3.417        N    1 1.082    C    5 0.904    C    4 0.903    C    3 0.528
     3  C   3.417        N    1 1.082    C    4 0.904    C    5 0.903    C    2 0.528
     4  C   2.514        C    3 0.904    C    2 0.903    C    5 0.594    N    1 0.113
     5  C   2.514        C    2 0.904    C    3 0.903    C    4 0.594    N    1 0.113

MOs/occ written to file <molden.input>


molecular dipole:
                 x           y           z       tot (Debye)
 q only:        0.173       0.153      -0.001
   full:        0.007       0.006      -0.000       0.023
molecular quadrupole (traceless):
                xx          xy          yy          xz          yz          zz
 q only:       -0.513      -0.558      -0.373       0.010       0.002       0.886
  q+dip:       -0.584      -1.120      -0.303       0.008       0.007       0.887
   full:       -0.765      -1.280      -0.443       0.012       0.007       1.208

           -------------------------------------------------
          |                Geometry Summary                 |
           -------------------------------------------------

      molecular mass/u    :       62.0496468
   center of mass at/Å    :       -0.0301023      -0.0265531       0.0001771
  moments of inertia/u·Å² :        0.3289108E+02   0.5218753E+02   0.5429688E+02
rotational constants/cm⁻¹ :        0.5125289E+00   0.3230203E+00   0.3104715E+00

 * 2 selected distances

     #   Z        #   Z                                     value/Å
     1   7 N      2   6 C                                 1.3878259 (min)
     1   7 N      3   6 C                                 1.3878285 (max)

 * 1 distinct bonds (by element types)

   Z      Z             #   av. dist./Å        max./Å        min./Å
   6 C    7 N           2     1.3878272     1.3878285     1.3878259

           -------------------------------------------------
          |               Frequency Printout                |
           -------------------------------------------------
 projected vibrational frequencies (cm-1)
eigval :       -0.00    -0.00    -0.00     0.00     0.00     0.00
eigval :     -759.58   581.53   669.92   811.26   824.35   983.86
eigval :      984.52  1275.90  1378.72
 reduced masses (amu)
   1: 12.43   2: 12.62   3: 12.24   4: 12.64   5: 12.59   6: 12.43   7: 12.01   8: 12.77
   9: 12.05  10: 12.80  11: 12.50  12: 12.01  13: 12.02  14: 12.71  15: 12.32
 IR intensities (amu)
   1:  0.05   2:  0.02   3:  0.05   4:  0.03   5:  0.05   6:  0.05   7:  0.01   8:  0.22
   9:  0.18  10:  1.30  11:  0.23  12:  1.12  13:  1.23  14:  0.85  15:  0.08
 Raman intensities (amu)
   1:  0.00   2:  0.00   3:  0.00   4:  0.00   5:  0.00   6:  0.00   7:  0.00   8:  0.00
   9:  0.00  10:  0.00  11:  0.00  12:  0.00  13:  0.00  14:  0.00  15:  0.00
 output can be read by thermo (or use thermo option).
 writing <g98.out> molden fake output.
 recommended (thermochemical) frequency scaling factor: 1.0
           -------------------------------------------------
          |             Thermodynamic Functions             |
           -------------------------------------------------
Molecule has the following symmetry elements: (C2) 2*(sigma) 
It seems to be the C2v point group

c2v symmetry found (for desy threshold:  0.10E+00) used in thermo

          ...................................................
          :                      SETUP                      :
          :.................................................:
          :  # frequencies                           8      :
          :  # imaginary freq.                       1      :
          :  linear?                             false      :
          :  only rotor calc.                    false      :
          :  symmetry                              c2v      :
          :  rotational number                       2      :
          :  scaling factor                  1.0000000      :
          :  rotor cutoff                   50.0000000 cm⁻¹ :
          :  imag. cutoff                  -20.0000000 cm⁻¹ :
          :.................................................:

    mode    ω/cm⁻¹     T·S(HO)/kcal·mol⁻¹    T·S(FR)/kcal·mol⁻¹   T·S(vib)
   ------------------------------------------------------------------------
   ------------------------------------------------------------------------

   temp. (K)  partition function   enthalpy   heat capacity  entropy
                                   cal/mol     cal/K/mol   cal/K/mol   J/K/mol
 298.15  VIB   1.18                  339.753      4.267      1.462
         ROT  0.117E+05              888.752      2.981     21.590
         INT  0.137E+05             1228.506      7.248     23.052
         TR   0.473E+27             1481.254      4.968     38.278
         TOT                        2709.7596    12.2158    61.3300   256.6048

   temp. (K)  partition function   enthalpy   heat capacity  entropy
                                   cal/mol     cal/K/mol   cal/K/mol   J/K/mol
 120.00  VIB   1.00                    2.484      0.158      0.023
         ROT  0.298E+04              357.707      2.981     18.877
         INT  0.298E+04              360.191      3.139     18.900
         TR   0.121E+27              596.178      4.968     33.759
         TOT                         956.3692     8.1069    52.6588   220.3246

   temp. (K)  partition function   enthalpy   heat capacity  entropy
                                   cal/mol     cal/K/mol   cal/K/mol   J/K/mol
 100.00  VIB   1.00                    0.552      0.049      0.006
         ROT  0.227E+04              298.089      2.981     18.333
         INT  0.227E+04              298.641      3.030     18.339
         TR   0.919E+26              496.815      4.968     32.853
         TOT                         795.4559     7.9983    51.1927   214.1901

   temp. (K)  partition function   enthalpy   heat capacity  entropy
                                   cal/mol     cal/K/mol   cal/K/mol   J/K/mol
  80.00  VIB   1.00                    0.061      0.008      0.001
         ROT  0.162E+04              238.471      2.981     17.668
         INT  0.162E+04              238.532      2.989     17.669
         TR   0.657E+26              397.452      4.968     31.745
         TOT                         635.9842     7.9573    49.4141   206.7485

   temp. (K)  partition function   enthalpy   heat capacity  entropy
                                   cal/mol     cal/K/mol   cal/K/mol   J/K/mol
  60.00  VIB   1.00                    0.002      0.000     -0.000
         ROT  0.105E+04              178.853      2.981     16.810
         INT  0.105E+04              178.855      2.981     16.810
         TR   0.427E+26              298.089      4.968     30.317
         TOT                         476.9441     7.9494    47.1271   197.1800

   temp. (K)  partition function   enthalpy   heat capacity  entropy
                                   cal/mol     cal/K/mol   cal/K/mol   J/K/mol
  40.00  VIB   1.00                    0.000      0.000     -0.000
         ROT   573.                  119.236      2.981     15.602
         INT   573.                  119.236      2.981     15.602
         TR   0.232E+26              198.726      4.968     28.303
         TOT                         317.9616     7.9490    43.9050   183.6985

   temp. (K)  partition function   enthalpy   heat capacity  entropy
                                   cal/mol     cal/K/mol   cal/K/mol   J/K/mol
  20.00  VIB   1.00                    0.000      0.000     -0.000
         ROT   203.                   59.618      2.981     13.536
         INT   203.                   59.618      2.981     13.535
         TR   0.822E+25               99.363      4.968     24.861
         TOT                         158.9808     7.9490    38.3967   160.6519

   temp. (K)  partition function   enthalpy   heat capacity  entropy
                                   cal/mol     cal/K/mol   cal/K/mol   J/K/mol
  10.00  VIB   1.00                    0.000      0.000     -0.000
         ROT   71.6                   29.809      2.981     11.469
         INT   71.6                   29.809      2.981     11.469
         TR   0.290E+25               49.681      4.968     21.419
         TOT                          79.4904     7.9490    32.8885   137.6053

       T/K    H(0)-H(T)+PV         H(T)/Eh          T*S/Eh         G(T)/Eh
   ------------------------------------------------------------------------
    298.15    0.431828E-02    0.214274E-01    0.291399E-01   -0.771243E-02
    120.00    0.152407E-02    0.186332E-01    0.100701E-01    0.856317E-02
    100.00    0.126764E-02    0.183768E-01    0.815807E-02    0.102187E-01
     80.00    0.101351E-02    0.181227E-01    0.629971E-02    0.118230E-01
     60.00    0.760059E-03    0.178692E-01    0.450611E-02    0.133631E-01
     40.00    0.506704E-03    0.176159E-01    0.279868E-02    0.148172E-01
     20.00    0.253352E-03    0.173625E-01    0.122378E-02    0.161387E-01
     10.00    0.126676E-03    0.172358E-01    0.524111E-03    0.167117E-01 (used)
   ------------------------------------------------------------------------

         :::::::::::::::::::::::::::::::::::::::::::::::::::::
         ::                  THERMODYNAMIC                  ::
         :::::::::::::::::::::::::::::::::::::::::::::::::::::
         :: total free energy         -10.941519361993 Eh   ::
         ::.................................................::
         :: total energy              -10.958231091888 Eh   ::
         :: zero point energy           0.017109164928 Eh   ::
         :: G(RRHO) w/o ZPVE           -0.000397435033 Eh   ::
         :: G(RRHO) contrib.            0.016711729895 Eh   ::
         :::::::::::::::::::::::::::::::::::::::::::::::::::::
imag cut-off (cm-1) :    5.00
 found            1  significant imaginary frequency
 writing imag mode distorted coords to xtbhess.xyz
 for further optimization.

optimized geometry written to: xtbopt.xyz


           -------------------------------------------------
          | TOTAL ENERGY              -10.958231091888 Eh   |
          | TOTAL ENTHALPY            -10.940995250944 Eh   |
          | TOTAL FREE ENERGY         -10.941519361993 Eh   |
          | GRADIENT NORM               0.000688063050 Eh/α |
          | HOMO-LUMO GAP               0.905917849040 eV   |
           -------------------------------------------------

------------------------------------------------------------------------
 * finished run on 2020/05/12 at 11:44:18.948     
------------------------------------------------------------------------
 total:
 * wall-time:     0 d,  0 h,  0 min,  0.162 sec
 *  cpu-time:     0 d,  0 h,  0 min,  0.162 sec
 * ratio c/w:     0.999 speedup
 SCF:
 * wall-time:     0 d,  0 h,  0 min,  0.005 sec
 *  cpu-time:     0 d,  0 h,  0 min,  0.005 sec
 * ratio c/w:     0.987 speedup
 ANC optimizer:
 * wall-time:     0 d,  0 h,  0 min,  0.038 sec
 *  cpu-time:     0 d,  0 h,  0 min,  0.038 sec
 * ratio c/w:     0.999 speedup
 numerical hessian:
 * wall-time:     0 d,  0 h,  0 min,  0.105 sec
 *  cpu-time:     0 d,  0 h,  0 min,  0.105 sec
 * ratio c/w:     0.999 speedup

