5
 energy: -10.864989499320 gnorm: 0.249374925396 xtb: 6.2.2 (9d81278992624c895f80dd42a50cac0aa55982e2)
N        -1.00513600000000   -0.88664100000000    0.00589900000000
C        -0.01182500000000   -0.01631600000000    0.67348200000000
C        -0.02211700000000   -0.01362000000000   -0.67328500000000
C        -0.25612500000000    1.33766800000000    0.00463700000000
C         1.29520200000000   -0.42109100000000   -0.01073200000000
5
 energy: -10.908286374420 gnorm: 0.118279612810 xtb: 6.2.2 (9d81278992624c895f80dd42a50cac0aa55982e2)
N        -0.97088270976017   -0.85642460902343    0.00569755416179
C        -0.02960693916542   -0.03251191291222    0.73171796563838
C        -0.04078852959069   -0.02958230496861   -0.73130618161929
C        -0.20463161783808    1.28150704354889    0.00413067510814
C         1.24590879635436   -0.36298821664463   -0.01023901328902
5
 energy: -10.940113244660 gnorm: 0.064081109075 xtb: 6.2.2 (9d81278992624c895f80dd42a50cac0aa55982e2)
N        -0.94603714450634   -0.83450790991529    0.00555132685564
C        -0.06787973144448   -0.06676802094046    0.78821703161868
C        -0.07992282100512   -0.06360916966256   -0.78734866871110
C        -0.09089101314042    1.20553632735865    0.00310790733502
C         1.18472971009636   -0.24065122684033   -0.00952659709824
5
 energy: -10.956943026916 gnorm: 0.026335743858 xtb: 6.2.2 (9d81278992624c895f80dd42a50cac0aa55982e2)
N        -0.93906537851628   -0.82835734698226    0.00551134249309
C        -0.12363476394449   -0.11652951981291    0.85413518562621
C        -0.13668182369047   -0.11309898793249   -0.85260510948516
C         0.08771963104405    1.10942096639921    0.00154810185542
C         1.11166133510719   -0.05143511167155   -0.00858852048956
5
 energy: -10.957495839014 gnorm: 0.019434866965 xtb: 6.2.2 (9d81278992624c895f80dd42a50cac0aa55982e2)
N        -0.93421518065212   -0.82407886352210    0.00548341118527
C        -0.10354900084082   -0.09870658575691    0.84166956371325
C        -0.11641021707827   -0.09532239013118   -0.84037773011519
C         0.03084261045900    1.12833781032019    0.00201952370570
C         1.12333078811222   -0.11022997091001   -0.00879376848904
5
 energy: -10.958181541213 gnorm: 0.007481339519 xtb: 6.2.2 (9d81278992624c895f80dd42a50cac0aa55982e2)
N        -0.93485484442767   -0.82464279760006    0.00548741862597
C        -0.10881930230229   -0.10342855367669    0.84958667759306
C        -0.12180399794470   -0.10000806898966   -0.84823218068356
C         0.05083784377048    1.11706231255899    0.00184251186643
C         1.11463930090419   -0.08898289229258   -0.00868342740190
5
 energy: -10.958223569248 gnorm: 0.002977893910 xtb: 6.2.2 (9d81278992624c895f80dd42a50cac0aa55982e2)
N        -0.93588504888498   -0.82555212881493    0.00549387860642
C        -0.10960749991634   -0.10415545637512    0.85249400824968
C        -0.12264288920188   -0.10071545525684   -0.85113070043051
C         0.05559761652106    1.11434442372705    0.00179798330218
C         1.11253682148215   -0.08392138328017   -0.00865416972776
5
 energy: -10.958229426302 gnorm: 0.001507424397 xtb: 6.2.2 (9d81278992624c895f80dd42a50cac0aa55982e2)
N        -0.93595839711731   -0.82561551652184    0.00549498960817
C        -0.10911695596623   -0.10373786825956    0.85314238184918
C        -0.12217020115941   -0.10028604516627   -0.85178648784451
C         0.05475021253650    1.11440850412795    0.00180163900395
C         1.11249434170645   -0.08476907418027   -0.00865152261678
5
 energy: -10.958231090261 gnorm: 0.000687987276 xtb: 6.2.2 (9d81278992624c895f80dd42a50cac0aa55982e2)
N        -0.93579520168091   -0.82547412175169    0.00549418169672
C        -0.10859184666503   -0.10331052895260    0.85418444150809
C        -0.12168861567063   -0.09982180606326   -0.85283396269974
C         0.05355671188733    1.11458314276926    0.00179850263846
C         1.11251795212924   -0.08597668600170   -0.00864216314352
