      -----------------------------------------------------------      
     |                   =====================                   |     
     |                           x T B                           |     
     |                   =====================                   |     
     |                         S. Grimme                         |     
     |          Mulliken Center for Theoretical Chemistry        |     
     |                    University of Bonn                     |     
      -----------------------------------------------------------      

   * xtb version 6.2.2 (9d81278992624c895f80dd42a50cac0aa55982e2) compiled by '@Darwin' on 04/03/2020

   xtb is free software: you can redistribute it and/or modify it under
   the terms of the GNU Lesser General Public License as published by
   the Free Software Foundation, either version 3 of the License, or
   (at your option) any later version.
   
   xtb is distributed in the hope that it will be useful,
   but WITHOUT ANY WARRANTY; without even the implied warranty of
   MERCHANTABILITY or FITNESS FOR A PARTICULAR PURPOSE.  See the
   GNU Lesser General Public License for more details.
   
   Cite this work as:
   * S. Grimme, C. Bannwarth, P. Shushkov, J. Chem. Theory Comput., 2017,
     13, 1989-2009. DOI: 10.1021/acs.jctc.7b00118
   * C. Bannwarth, S. Ehlert and S. Grimme., J. Chem. Theory Comput., 2019,
     15, 1652-1671. DOI: 10.1021/acs.jctc.8b01176
   * P. Pracht, E. Caldeweyher, S. Ehlert, S. Grimme, ChemRxiv, 2019, preprint.
     DOI: 10.26434/chemrxiv.8326202.v1
   
   for DFT-D4:
   * E. Caldeweyher, C. Bannwarth and S. Grimme, J. Chem. Phys., 2017,
     147, 034112. DOI: 10.1063/1.4993215
   * E. Caldeweyher, S. Ehlert, A. Hansen, H. Neugebauer, S. Spicher,
     C. Bannwarth and S. Grimme, J. Chem. Phys., 2019, 150, 154122.
     DOI: 10.1063/1.5090222
   
   for sTDA-xTB:
   * S. Grimme and C. Bannwarth, J. Chem. Phys., 2016, 145, 054103.
     DOI: 10.1063/1.4959605
   
   in the mass-spec context:
   * V. Asgeirsson, C. Bauer and S. Grimme, Chem. Sci., 2017, 8, 4879.
     DOI: 10.1039/c7sc00601b
   
   for metadynamics refer to:
   * S. Grimme, J. Chem. Theory Comput., 2019, 155, 2847-2862
     DOI: 10.1021/acs.jctc.9b00143
   
   with help from (in alphabetical order)
   C. Bannwarth, F. Bohle, G. Brandenburg, E. Caldeweyher, M. Checinski,
   S. Dohm, S. Ehlert, S. Ehrlich, F. März, H. Neugebauer, J. Pisarek,
   P. Pracht, P. Shushkov, and S. Spicher.
   
 * started run on 2020/05/12 at 11:45:00.424     

           -------------------------------------------------
          |                Calculation Setup                |
           -------------------------------------------------

          program call               : xtb --input H1C3N1_26_S_0.input H1C3N1_26_S_0.xyz --ohess --molden --namespace H1C3N1_26_S_0 output.out
          calculation namespace      : H1C3N1_26_S_0
          coordinate file            : H1C3N1_26_S_0.xyz
          number of atoms            :                     5
          number of electrons        :                    18
          charge                     :                     0
          spin                       :                   0.0
          first test random number   :      0.96087164759340

   ID    Z sym.   atoms
    1    6 C      1-3
    2    7 N      4
    3    1 H      5

           -------------------------------------------------
          |                 G F N 2 - x T B                 |
           -------------------------------------------------

        Reference                      10.1021/acs.jctc.8b01176
      * Hamiltonian:
        H0-scaling (s, p, d)           1.850000    2.230000    2.230000
        zeta-weighting                 0.500000
      * Dispersion:
        s8                             2.700000
        a1                             0.520000
        a2                             5.000000
        s9                             5.000000
      * Repulsion:
        kExp                           1.500000    1.000000
        rExp                           1.000000
      * Coulomb:
        alpha                          2.000000
        third order                    shell-resolved
        anisotropic                    true
        a3                             3.000000
        a5                             4.000000
        cn-shift                       1.200000
        cn-exp                         4.000000
        max-rad                        5.000000


          ...................................................
          :                      SETUP                      :
          :.................................................:
          :  # basis functions                  17          :
          :  # atomic orbitals                  17          :
          :  # shells                            9          :
          :  # electrons                        18          :
          :  max. iterations                   250          :
          :  Hamiltonian                  GFN2-xTB          :
          :  restarted?                      false          :
          :  GBSA solvation                  false          :
          :  PC potential                    false          :
          :  electronic temp.          300.0000000     K    :
          :  accuracy                    1.0000000          :
          :  -> integral cutoff          0.2500000E+02      :
          :  -> integral neglect         0.1000000E-07      :
          :  -> SCF convergence          0.1000000E-05 Eh   :
          :  -> wf. convergence          0.1000000E-03 e    :
          :  Broyden damping             0.4000000          :
          ...................................................

 iter      E             dE          RMSdq      gap      omega  full diag
   1     -9.4710229 -0.947102E+01  0.847E+00    0.32       0.0  T
   2     -9.1097640  0.361259E+00  0.107E+01    1.63       1.0  T
   3     -9.4561593 -0.346395E+00  0.636E+00    0.53       1.0  T
   4     -9.4493003  0.685900E-02  0.511E+00    0.08       1.0  T
   5     -9.4956254 -0.463251E-01  0.452E+00    0.23       1.0  T
   6     -9.5660325 -0.704072E-01  0.122E+00    0.13       1.0  T
   7     -9.5639002  0.213236E-02  0.138E+00    0.15       1.0  T
   8     -9.5395855  0.243147E-01  0.272E+00    0.09       1.0  T
   9     -9.5652764 -0.256910E-01  0.698E-01    0.09       1.0  T
  10     -9.5648419  0.434503E-03  0.770E-01    0.11       1.0  T
  11     -9.5669164 -0.207443E-02  0.136E-01    0.10       1.0  T
  12     -9.5669505 -0.341056E-04  0.861E-02    0.11       1.0  T
  13     -9.5669332  0.172654E-04  0.108E-01    0.11       1.0  T
  14     -9.5669639 -0.306829E-04  0.557E-02    0.11       1.0  T
  15     -9.5669737 -0.976704E-05  0.182E-02    0.11       2.5  T
  16     -9.5669748 -0.113950E-05  0.281E-03    0.11      15.9  T
  17     -9.5669748 -0.257429E-07  0.590E-04    0.11      75.8  T
  18     -9.5669748 -0.115555E-08  0.181E-04    0.11     247.7  T

   *** convergence criteria satisfied after 18 iterations ***

         #    Occupation            Energy/Eh            Energy/eV
      -------------------------------------------------------------
         1        2.0000           -0.7433679             -20.2281
       ...           ...                  ...                  ...
         3        2.0000           -0.5961159             -16.2211
         4        2.0000           -0.5912410             -16.0885
         5        2.0000           -0.5217328             -14.1971
         6        2.0000           -0.5121150             -13.9354
         7        2.0000           -0.4853452             -13.2069
         8        2.0000           -0.4689978             -12.7621
         9        1.7733           -0.3975709             -10.8185 (HOMO)
        10        0.2267           -0.3936623             -10.7121 (LUMO)
        11                         -0.3338827              -9.0854
        12                         -0.2340423              -6.3686
        13                         -0.0214126              -0.5827
        14                          0.0051083               0.1390
       ...                                ...                  ...
        17                          0.2315977               6.3021
      -------------------------------------------------------------
                  HL-Gap            0.0039086 Eh            0.1064 eV
             Fermi-level           -0.3956166 Eh          -10.7653 eV

 SCC (total)                   0 d,  0 h,  0 min,  0.004 sec
 SCC setup                      ...        0 min,  0.000 sec (  2.120%)
 Dispersion                     ...        0 min,  0.000 sec (  0.422%)
 integral evaluation            ...        0 min,  0.001 sec ( 25.312%)
 zeroth order Hamiltonian       ...        0 min,  0.000 sec (  0.482%)
 iterations                     ...        0 min,  0.002 sec ( 43.106%)
 molecular gradient             ...        0 min,  0.001 sec ( 26.270%)
 printout                       ...        0 min,  0.000 sec (  2.018%)

         :::::::::::::::::::::::::::::::::::::::::::::::::::::
         ::                     SUMMARY                     ::
         :::::::::::::::::::::::::::::::::::::::::::::::::::::
         :: total energy              -9.481855889012 Eh    ::
         :: gradient norm              0.139543096162 Eh/a0 ::
         :: HOMO-LUMO gap              0.106358996318 eV    ::
         ::.................................................::
         :: SCC energy                -9.566974825600 Eh    ::
         :: -> isotropic ES           -0.006330148619 Eh    ::
         :: -> anisotropic ES          0.001714361773 Eh    ::
         :: -> anisotropic XC          0.011181372161 Eh    ::
         :: -> dispersion             -0.002122064771 Eh    ::
         :: repulsion energy           0.085118912006 Eh    ::
         :: add. restraining           0.000000000000 Eh    ::
         :::::::::::::::::::::::::::::::::::::::::::::::::::::

      ----------------------------------------------------------- 
     |                   =====================                   |
     |                        A N C O P T                        |
     |                   =====================                   |
     |               Approximate Normal Coordinate               |
     |                Rational Function Optimizer                |
      ----------------------------------------------------------- 

          ...................................................
          :                      SETUP                      :
          :.................................................:
          :   optimization level            normal          :
          :   max. optcycles                   200          :
          :   ANC micro-cycles                  20          :
          :   degrees of freedom                 9          :
          :.................................................:
          :   RF solver                   davidson          :
          :   write xtbopt.log                true          :
          :   linear?                        false          :
          :   energy convergence         0.5000000E-05 Eh   :
          :   grad. convergence          0.1000000E-02 Eh/α :
          :   maximium RF displ.         1.0000000          :
          :   Hlow (freq-cutoff)         0.1000000E-01      :
          :   Hmax (freq-cutoff)         5.0000000          :
          :   S6 in model hess.         20.0000000          :
          ...................................................

generating ANC from model Hessian ...
Using Lindh-Hessian (1995)
 Shifting diagonal of input Hessian by    0.0000000000000000     
 Lowest  eigenvalues of input Hessian
   -0.000000   -0.000000   -0.000000    0.000000    0.000000    0.000000
    0.048873    0.084228    0.168090    0.642187    0.759083    0.841646
    0.982359    1.418087    1.507339
 Highest eigenvalues
    0.642187    0.759083    0.841646    0.982359    1.418087    1.507339


........................................................................
.............................. CYCLE    1 ..............................
........................................................................
   1     -9.5669748 -0.956697E+01  0.842E-05    0.11       0.0  T
   2     -9.5669748  0.524732E-08  0.116E-03    0.11      38.5  T
   3     -9.5669748 -0.525809E-08  0.589E-05    0.11     759.4  T
   4     -9.5669748 -0.102247E-10  0.342E-05    0.11    1308.9  T
     SCC iter.                  ...        0 min,  0.000 sec
     gradient                   ...        0 min,  0.001 sec
 * total energy  :    -9.4818559 Eh     change        0.6956817E-09 Eh
   gradient norm :     0.1395420 Eh/α   predicted     0.0000000E+00 (-100.00%)
   displ. norm   :     0.2843675 α      lambda       -0.2866488E-01
   maximum displ.:     0.1603669 α      in ANC's #2, #4, #1, ...

........................................................................
.............................. CYCLE    2 ..............................
........................................................................
   1     -9.5903038 -0.959030E+01  0.296E+00    0.51       0.0  T
   2     -9.4303492  0.159955E+00  0.608E+00    0.78       1.0  T
   3     -9.5967992 -0.166450E+00  0.208E+00    0.51       1.0  T
   4     -9.6043526 -0.755334E-02  0.103E+00    0.37       1.0  T
   5     -9.6098388 -0.548621E-02  0.625E-01    0.41       1.0  T
   6     -9.6078671  0.197168E-02  0.104E+00    0.42       1.0  T
   7     -9.6104479 -0.258080E-02  0.110E-01    0.39       1.0  T
   8     -9.6104906 -0.427271E-04  0.303E-02    0.39       1.5  T
   9     -9.6104933 -0.264870E-05  0.953E-03    0.39       4.7  T
  10     -9.6104932  0.715098E-07  0.106E-02    0.39       4.2  T
  11     -9.6104935 -0.302649E-06  0.573E-04    0.39      78.0  T
  12     -9.6104935  0.607923E-10  0.543E-04    0.39      82.4  T
     SCC iter.                  ...        0 min,  0.001 sec
     gradient                   ...        0 min,  0.001 sec
 * total energy  :    -9.5080242 Eh     change       -0.2616827E-01 Eh
   gradient norm :     0.1242506 Eh/α   predicted    -0.1549143E-01 ( -40.80%)
   displ. norm   :     0.6845234 α      lambda       -0.7918204E-01
   maximum displ.:     0.5535121 α      in ANC's #4, #7, #3, ...

........................................................................
.............................. CYCLE    3 ..............................
........................................................................
   1     -9.7190124 -0.971901E+01  0.497E+00    2.82       0.0  T
   2     -9.7114988  0.751354E-02  0.330E+00    2.46       1.0  T
   3     -9.7181194 -0.662052E-02  0.262E+00    2.85       1.0  T
   4     -9.7384437 -0.203243E-01  0.469E-01    2.58       1.0  T
   5     -9.7397234 -0.127970E-02  0.191E-01    2.59       1.0  T
   6     -9.7398194 -0.959549E-04  0.804E-02    2.61       1.0  T
   7     -9.7398262 -0.684841E-05  0.147E-02    2.60       3.0  T
   8     -9.7398262  0.276135E-07  0.798E-03    2.60       5.6  T
   9     -9.7398263 -0.121101E-06  0.752E-04    2.60      59.5  T
  10     -9.7398263 -0.156906E-09  0.191E-04    2.60     234.7  T
     SCC iter.                  ...        0 min,  0.001 sec
     gradient                   ...        0 min,  0.001 sec
 * total energy  :    -9.5242980 Eh     change       -0.1627387E-01 Eh
   gradient norm :     0.3302542 Eh/α   predicted    -0.5814228E-01 ( 257.27%)
   displ. norm   :     0.2011639 α      lambda       -0.5505533E-01
   maximum displ.:     0.1190583 α      in ANC's #7, #4, #9, ...

........................................................................
.............................. CYCLE    4 ..............................
........................................................................
   1     -9.6924772 -0.969248E+01  0.179E+00    2.09       0.0  T
   2     -9.6936338 -0.115656E-02  0.107E+00    1.99       1.0  T
   3     -9.6936886 -0.548468E-04  0.662E-01    2.01       1.0  T
   4     -9.6948197 -0.113106E-02  0.281E-01    2.09       1.0  T
   5     -9.6952112 -0.391509E-03  0.625E-02    2.04       1.0  T
   6     -9.6951933  0.178357E-04  0.543E-02    2.05       1.0  T
   7     -9.6952131 -0.197297E-04  0.115E-02    2.05       3.9  T
   8     -9.6952135 -0.472210E-06  0.297E-03    2.05      15.1  T
   9     -9.6952135 -0.628450E-08  0.734E-04    2.05      60.9  T
  10     -9.6952135 -0.163097E-08  0.106E-04    2.05     420.2  T
     SCC iter.                  ...        0 min,  0.001 sec
     gradient                   ...        0 min,  0.001 sec
 * total energy  :    -9.5533328 Eh     change       -0.2903475E-01 Eh
   gradient norm :     0.0995470 Eh/α   predicted    -0.2864162E-01 (  -1.35%)
   displ. norm   :     0.2874131 α      lambda       -0.2093407E-01
   maximum displ.:     0.1719193 α      in ANC's #4, #2, #3, ...

........................................................................
.............................. CYCLE    5 ..............................
........................................................................
   1     -9.6971080 -0.969711E+01  0.150E+00    2.79       0.0  T
   2     -9.6966880  0.419988E-03  0.908E-01    2.82       1.0  T
   3     -9.6920316  0.465634E-02  0.991E-01    2.88       1.0  T
   4     -9.6976711 -0.563944E-02  0.120E-01    2.83       1.0  T
   5     -9.6977125 -0.413929E-04  0.455E-02    2.85       1.0  T
   6     -9.6977076  0.486398E-05  0.431E-02    2.85       1.0  T
   7     -9.6977162 -0.861485E-05  0.529E-03    2.85       8.5  T
   8     -9.6977163 -0.312879E-07  0.213E-03    2.85      21.0  T
   9     -9.6977163 -0.830074E-09  0.307E-04    2.85     145.5  T
  10     -9.6977163 -0.577103E-10  0.480E-05    2.85     931.1  T
     SCC iter.                  ...        0 min,  0.001 sec
     gradient                   ...        0 min,  0.001 sec
 * total energy  :    -9.5703756 Eh     change       -0.1704286E-01 Eh
   gradient norm :     0.0748860 Eh/α   predicted    -0.1133168E-01 ( -33.51%)
   displ. norm   :     0.4560847 α      lambda       -0.2538526E-01
   maximum displ.:     0.2841464 α      in ANC's #2, #4, #1, ...

........................................................................
.............................. CYCLE    6 ..............................
........................................................................
   1     -9.6925257 -0.969253E+01  0.252E+00    2.86       0.0  T
   2     -9.6918473  0.678399E-03  0.155E+00    2.61       1.0  T
   3     -9.6901215  0.172578E-02  0.130E+00    2.87       1.0  T
   4     -9.6968144 -0.669293E-02  0.313E-01    2.82       1.0  T
   5     -9.6971843 -0.369906E-03  0.108E-01    2.77       1.0  T
   6     -9.6972304 -0.460553E-04  0.837E-02    2.78       1.0  T
   7     -9.6972514 -0.209665E-04  0.113E-02    2.78       4.0  T
   8     -9.6972516 -0.250737E-06  0.491E-03    2.78       9.1  T
   9     -9.6972516 -0.999983E-08  0.644E-04    2.78      69.4  T
  10     -9.6972516 -0.771774E-10  0.110E-04    2.78     406.9  T
     SCC iter.                  ...        0 min,  0.001 sec
     gradient                   ...        0 min,  0.001 sec
 * total energy  :    -9.5812702 Eh     change       -0.1089462E-01 Eh
   gradient norm :     0.0631406 Eh/α   predicted    -0.1533289E-01 (  40.74%)
   displ. norm   :     0.1834439 α      lambda       -0.5250846E-02
   maximum displ.:     0.1623285 α      in ANC's #1, #3, #4, ...

........................................................................
.............................. CYCLE    7 ..............................
........................................................................
   1     -9.7019907 -0.970199E+01  0.114E+00    2.80       0.0  T
   2     -9.7017122  0.278510E-03  0.687E-01    2.78       1.0  T
   3     -9.7005675  0.114469E-02  0.676E-01    2.79       1.0  T
   4     -9.7028305 -0.226295E-02  0.150E-01    2.77       1.0  T
   5     -9.7028899 -0.593825E-04  0.442E-02    2.77       1.0  T
   6     -9.7028940 -0.411859E-05  0.294E-02    2.77       1.5  T
   7     -9.7028963 -0.232506E-05  0.312E-03    2.77      14.3  T
   8     -9.7028963 -0.381620E-09  0.201E-03    2.77      22.3  T
   9     -9.7028963 -0.493272E-08  0.140E-04    2.77     318.7  T
  10     -9.7028963 -0.716938E-11  0.242E-05    2.77    1849.0  T
     SCC iter.                  ...        0 min,  0.001 sec
     gradient                   ...        0 min,  0.001 sec
 * total energy  :    -9.5831644 Eh     change       -0.1894138E-02 Eh
   gradient norm :     0.0299009 Eh/α   predicted    -0.2713773E-02 (  43.27%)
   displ. norm   :     0.1153876 α      lambda       -0.1837393E-02
   maximum displ.:     0.0797403 α      in ANC's #1, #2, #9, ...

........................................................................
.............................. CYCLE    8 ..............................
........................................................................
   1     -9.7108231 -0.971082E+01  0.432E-01    2.98       0.0  T
   2     -9.7107498  0.732600E-04  0.285E-01    2.97       1.0  T
   3     -9.7106007  0.149106E-03  0.255E-01    2.98       1.0  T
   4     -9.7109218 -0.321055E-03  0.295E-02    2.98       1.5  T
   5     -9.7109229 -0.116746E-05  0.141E-02    2.98       3.2  T
   6     -9.7109225  0.484763E-06  0.955E-03    2.98       4.7  T
   7     -9.7109231 -0.628300E-06  0.149E-03    2.98      30.1  T
   8     -9.7109231 -0.290365E-08  0.423E-04    2.98     105.6  T
   9     -9.7109231 -0.169816E-09  0.165E-04    2.98     270.9  T
     SCC iter.                  ...        0 min,  0.001 sec
     gradient                   ...        0 min,  0.001 sec
 * total energy  :    -9.5840321 Eh     change       -0.8677194E-03 Eh
   gradient norm :     0.0178088 Eh/α   predicted    -0.9309283E-03 (   7.28%)
   displ. norm   :     0.0517173 α      lambda       -0.6868597E-03
   maximum displ.:     0.0416715 α      in ANC's #3, #4, #9, ...

........................................................................
.............................. CYCLE    9 ..............................
........................................................................
   1     -9.7106386 -0.971064E+01  0.311E-01    3.04       0.0  T
   2     -9.7106278  0.108160E-04  0.179E-01    3.05       1.0  T
   3     -9.7105677  0.601183E-04  0.166E-01    3.04       1.0  T
   4     -9.7106942 -0.126543E-03  0.245E-02    3.05       1.8  T
   5     -9.7106962 -0.203726E-05  0.116E-02    3.05       3.9  T
   6     -9.7106966 -0.401154E-06  0.728E-03    3.05       6.1  T
   7     -9.7106968 -0.142462E-06  0.700E-04    3.05      63.9  T
   8     -9.7106968 -0.205826E-09  0.295E-04    3.05     151.8  T
     SCC iter.                  ...        0 min,  0.001 sec
     gradient                   ...        0 min,  0.001 sec
 * total energy  :    -9.5843960 Eh     change       -0.3638569E-03 Eh
   gradient norm :     0.0113968 Eh/α   predicted    -0.3443487E-03 (  -5.36%)
   displ. norm   :     0.0302883 α      lambda       -0.2553161E-03
   maximum displ.:     0.0183508 α      in ANC's #6, #2, #1, ...

........................................................................
.............................. CYCLE   10 ..............................
........................................................................
   1     -9.7120343 -0.971203E+01  0.137E-01    3.08       0.0  T
   2     -9.7120313  0.306985E-05  0.906E-02    3.08       1.0  T
   3     -9.7120335 -0.227087E-05  0.700E-02    3.08       1.0  T
   4     -9.7120506 -0.170599E-04  0.211E-02    3.08       2.1  T
   5     -9.7120522 -0.163083E-05  0.782E-03    3.08       5.7  T
   6     -9.7120524 -0.188315E-06  0.364E-03    3.08      12.3  T
   7     -9.7120524 -0.244367E-07  0.522E-04    3.08      85.7  T
   8     -9.7120524 -0.177721E-09  0.136E-04    3.08     328.3  T
     SCC iter.                  ...        0 min,  0.001 sec
     gradient                   ...        0 min,  0.001 sec
 * total energy  :    -9.5845941 Eh     change       -0.1981322E-03 Eh
   gradient norm :     0.0090035 Eh/α   predicted    -0.1277773E-03 ( -35.51%)
   displ. norm   :     0.0609974 α      lambda       -0.3588323E-03
   maximum displ.:     0.0394841 α      in ANC's #6, #1, #3, ...

........................................................................
.............................. CYCLE   11 ..............................
........................................................................
   1     -9.7130903 -0.971309E+01  0.248E-01    3.16       0.0  T
   2     -9.7131064 -0.161539E-04  0.141E-01    3.15       1.0  T
   3     -9.7130769  0.294851E-04  0.104E-01    3.16       1.0  T
   4     -9.7131070 -0.300365E-04  0.455E-02    3.15       1.0  T
   5     -9.7131187 -0.117691E-04  0.883E-03    3.16       5.1  T
   6     -9.7131187  0.527895E-07  0.475E-03    3.16       9.4  T
   7     -9.7131188 -0.130143E-06  0.114E-03    3.16      39.3  T
   8     -9.7131188 -0.117778E-08  0.274E-04    3.16     163.4  T
   9     -9.7131188 -0.775238E-10  0.101E-04    3.16     442.5  T
     SCC iter.                  ...        0 min,  0.001 sec
     gradient                   ...        0 min,  0.001 sec
 * total energy  :    -9.5848068 Eh     change       -0.2127162E-03 Eh
   gradient norm :     0.0068330 Eh/α   predicted    -0.1800832E-03 ( -15.34%)
   displ. norm   :     0.0219567 α      lambda       -0.6113998E-04
   maximum displ.:     0.0149130 α      in ANC's #6, #1, #4, ...

........................................................................
.............................. CYCLE   12 ..............................
........................................................................
   1     -9.7129449 -0.971294E+01  0.627E-02    3.17       0.0  T
   2     -9.7129447  0.191215E-06  0.378E-02    3.17       1.2  T
   3     -9.7129405  0.419900E-05  0.338E-02    3.17       1.3  T
   4     -9.7129466 -0.611348E-05  0.490E-03    3.17       9.1  T
   5     -9.7129466 -0.420685E-07  0.274E-03    3.17      16.3  T
   6     -9.7129466 -0.536448E-08  0.186E-03    3.17      24.1  T
   7     -9.7129467 -0.158446E-07  0.258E-04    3.17     173.2  T
   8     -9.7129467 -0.331877E-10  0.358E-05    3.17    1247.8  T
     SCC iter.                  ...        0 min,  0.001 sec
     gradient                   ...        0 min,  0.001 sec
 * total energy  :    -9.5848476 Eh     change       -0.4076847E-04 Eh
   gradient norm :     0.0028613 Eh/α   predicted    -0.3058494E-04 ( -24.98%)
   displ. norm   :     0.0146143 α      lambda       -0.2088194E-04
   maximum displ.:     0.0101110 α      in ANC's #1, #6, #4, ...

........................................................................
.............................. CYCLE   13 ..............................
........................................................................
   1     -9.7128935 -0.971289E+01  0.425E-02    3.17       0.0  T
   2     -9.7128931  0.378975E-06  0.260E-02    3.17       1.7  T
   3     -9.7128927  0.441595E-06  0.227E-02    3.17       2.0  T
   4     -9.7128948 -0.212402E-05  0.315E-03    3.17      14.2  T
   5     -9.7128948 -0.263737E-07  0.190E-03    3.17      23.5  T
   6     -9.7128948 -0.104985E-07  0.372E-04    3.17     120.3  T
   7     -9.7128948 -0.373488E-09  0.137E-04    3.17     325.8  T
     SCC iter.                  ...        0 min,  0.001 sec
     gradient                   ...        0 min,  0.001 sec
 * total energy  :    -9.5848598 Eh     change       -0.1218187E-04 Eh
   gradient norm :     0.0010048 Eh/α   predicted    -0.1044278E-04 ( -14.28%)
   displ. norm   :     0.0048781 α      lambda       -0.1992980E-05
   maximum displ.:     0.0030533 α      in ANC's #4, #1, #7, ...

........................................................................
.............................. CYCLE   14 ..............................
........................................................................
   1     -9.7129342 -0.971293E+01  0.263E-02    3.16       0.0  T
   2     -9.7129342 -0.651833E-07  0.154E-02    3.16       2.9  T
   3     -9.7129338  0.448489E-06  0.997E-03    3.16       4.5  T
   4     -9.7129343 -0.531324E-06  0.287E-03    3.16      15.6  T
   5     -9.7129344 -0.445211E-07  0.845E-04    3.16      53.0  T
   6     -9.7129344  0.144139E-08  0.763E-04    3.16      58.6  T
     SCC iter.                  ...        0 min,  0.000 sec
     gradient                   ...        0 min,  0.001 sec
 * total energy  :    -9.5848611 Eh     change       -0.1358416E-05 Eh
   gradient norm :     0.0005977 Eh/α   predicted    -0.9957242E-06 ( -26.70%)
   displ. norm   :     0.0015878 α      lambda       -0.4036693E-06
   maximum displ.:     0.0010799 α      in ANC's #2, #1, #7, ...

   *** GEOMETRY OPTIMIZATION CONVERGED AFTER 14 ITERATIONS ***

------------------------------------------------------------------------
 total energy gain   :        -0.1030052 Eh      -64.6368 kcal/mol
 total RMSD          :         0.5471375 a0        0.2895 Å
 total power (kW/mol):       -19.3171572 (step)-6625.5172 (real)
------------------------------------------------------------------------

 ANCopt (total)                0 d,  0 h,  0 min,  0.041 sec
 optimizer setup                ...        0 min,  0.000 sec (  0.157%)
 model hessian                  ...        0 min,  0.000 sec (  0.242%)
 ANC generation                 ...        0 min,  0.000 sec (  0.124%)
 coordinate transformation      ...        0 min,  0.000 sec (  0.074%)
 single point calculation       ...        0 min,  0.039 sec ( 96.719%)
 optimization log               ...        0 min,  0.000 sec (  0.854%)
 hessian update                 ...        0 min,  0.000 sec (  0.072%)
 rational function              ...        0 min,  0.000 sec (  0.795%)

================
 final structure:
================
5
 xtb: 6.2.2 (9d81278992624c895f80dd42a50cac0aa55982e2)
C         0.54218134542746    0.04433481065655   -0.03208088413351
C        -0.44514506154628    0.97201975041563   -0.30582099045880
C        -1.18957723275077   -0.06829331041105    0.35873079109613
N        -0.42042873509231   -0.85833763951964   -0.40593493953870
H         1.51296968396189   -0.08972361114149    0.38510702303488

 Bond Distances (Angstroems)
 ---------------------------
C1-C2=1.3822         C1-C3=1.7789         C1-N4=1.3716         C1-H5=1.0651         C2-C1=1.3822         C2-C3=1.4415         
C2-N4=1.8333         C3-C1=1.7789         C3-C2=1.4415         C3-N4=1.3418         N4-C1=1.3716         N4-C2=1.8333         
N4-C3=1.3418         H5-C1=1.0651         
 C  H  Rav=1.0651 sigma=0.0000  Rmin=1.0651  Rmax=1.0651     1
 C  C  Rav=1.5342 sigma=0.1747  Rmin=1.3822  Rmax=1.7789     3
 N  C  Rav=1.5155 sigma=0.2250  Rmin=1.3418  Rmax=1.8333     3

 selected bond angles (degree)
 --------------------
C3-C1-C2= 52.45                N4-C1-C2= 83.48                N4-C1-C3= 48.32                H5-C1-C2=144.40                
H5-C1-C3=142.49                H5-C1-N4=131.58                C3-C2-C1= 78.07                N4-C2-C1= 48.01                
N4-C2-C3= 46.50                C2-C3-C1= 49.48                N4-C3-C1= 49.76                N4-C3-C2= 82.31                
C2-N4-C1= 48.51                C3-N4-C1= 81.92                C3-N4-C2= 51.19                

 selected dihedral angles (degree)
 ---------------------------------
C3-C2-C1-N4= 40.86            C3-C2-C1-H5=229.82            N4-C2-C1-C3=319.14            N4-C2-C1-H5=188.96            
C2-C3-C1-N4=240.49            C2-C3-C1-H5=133.08            N4-C3-C1-C2=119.51            N4-C3-C1-H5=252.59            
C1-C3-C2-N4= 42.10            N4-C3-C2-C1=317.90            C2-N4-C1-C3= 43.99            C2-N4-C1-H5=173.04            
C3-N4-C1-C2=316.01            C3-N4-C1-H5=129.05            C1-N4-C3-C2= 41.88            C2-N4-C3-C1=318.12            
           -------------------------------------------------
          |                Final Singlepoint                |
           -------------------------------------------------

          ...................................................
          :                      SETUP                      :
          :.................................................:
          :  # basis functions                  17          :
          :  # atomic orbitals                  17          :
          :  # shells                            9          :
          :  # electrons                        18          :
          :  max. iterations                   250          :
          :  Hamiltonian                  GFN2-xTB          :
          :  restarted?                      false          :
          :  GBSA solvation                  false          :
          :  PC potential                    false          :
          :  electronic temp.          300.0000000     K    :
          :  accuracy                    1.0000000          :
          :  -> integral cutoff          0.2500000E+02      :
          :  -> integral neglect         0.1000000E-07      :
          :  -> SCF convergence          0.1000000E-05 Eh   :
          :  -> wf. convergence          0.1000000E-03 e    :
          :  Broyden damping             0.4000000          :
          ...................................................

 iter      E             dE          RMSdq      gap      omega  full diag
   1     -9.7129344 -0.971293E+01  0.237E-04    3.16       0.0  T
   2     -9.7129344 -0.544986E-11  0.135E-04    3.16     331.5  T
   3     -9.7129344  0.152429E-10  0.609E-05    3.16     734.0  T

   *** convergence criteria satisfied after 3 iterations ***

         #    Occupation            Energy/Eh            Energy/eV
      -------------------------------------------------------------
         1        2.0000           -0.7491259             -20.3848
       ...           ...                  ...                  ...
         3        2.0000           -0.6347586             -17.2727
         4        2.0000           -0.5913959             -16.0927
         5        2.0000           -0.5429873             -14.7754
         6        2.0000           -0.5241291             -14.2623
         7        2.0000           -0.4848852             -13.1944
         8        2.0000           -0.4384510             -11.9309
         9        2.0000           -0.4317404             -11.7483 (HOMO)
        10                         -0.3154674              -8.5843 (LUMO)
        11                         -0.2811984              -7.6518
        12                         -0.2769406              -7.5359
        13                          0.0586178               1.5951
        14                          0.0752036               2.0464
       ...                                ...                  ...
        17                          0.5973693              16.2552
      -------------------------------------------------------------
                  HL-Gap            0.1162730 Eh            3.1639 eV
             Fermi-level           -0.3736039 Eh          -10.1663 eV

 SCC (total)                   0 d,  0 h,  0 min,  0.002 sec
 SCC setup                      ...        0 min,  0.000 sec (  2.565%)
 Dispersion                     ...        0 min,  0.000 sec (  0.474%)
 integral evaluation            ...        0 min,  0.001 sec ( 39.783%)
 zeroth order Hamiltonian       ...        0 min,  0.000 sec (  0.484%)
 iterations                     ...        0 min,  0.000 sec ( 12.661%)
 molecular gradient             ...        0 min,  0.001 sec ( 41.826%)
 printout                       ...        0 min,  0.000 sec (  1.781%)

         :::::::::::::::::::::::::::::::::::::::::::::::::::::
         ::                     SUMMARY                     ::
         :::::::::::::::::::::::::::::::::::::::::::::::::::::
         :: total energy              -9.584861120970 Eh    ::
         :: gradient norm              0.000629052020 Eh/a0 ::
         :: HOMO-LUMO gap              3.163948753387 eV    ::
         ::.................................................::
         :: SCC energy                -9.712934377469 Eh    ::
         :: -> isotropic ES           -0.003506149306 Eh    ::
         :: -> anisotropic ES          0.001900679622 Eh    ::
         :: -> anisotropic XC          0.010897239305 Eh    ::
         :: -> dispersion             -0.001955651496 Eh    ::
         :: repulsion energy           0.128073231218 Eh    ::
         :: add. restraining           0.000000000000 Eh    ::
         :::::::::::::::::::::::::::::::::::::::::::::::::::::

           ------------------------------------------------- 
          |                Numerical Hessian                |
           ------------------------------------------------- 
step length          :   0.00500
SCC accuracy         :   0.30000
Hessian scale factor :   1.00000
frozen atoms in %    :   0.00000    0
RMS gradient         :   0.00063
estimated CPU  time      0.00 min
estimated wall time      0.00 min

writing file <hessian>.

 projected vibrational frequencies (cm-1)
eigval :       -0.00    -0.00    -0.00    -0.00     0.00     0.00
eigval :      588.10   634.58   762.95   813.22   954.29  1183.77
eigval :     1333.19  1505.04  3215.26
           -------------------------------------------------
          |                Property Printout                |
           -------------------------------------------------

    * Orbital Energies and Occupations

         #    Occupation            Energy/Eh            Energy/eV
      -------------------------------------------------------------
         1        2.0000           -0.7491259             -20.3848
         2        2.0000           -0.6416349             -17.4598
         3        2.0000           -0.6347586             -17.2727
         4        2.0000           -0.5913959             -16.0927
         5        2.0000           -0.5429872             -14.7754
         6        2.0000           -0.5241290             -14.2623
         7        2.0000           -0.4848853             -13.1944
         8        2.0000           -0.4384505             -11.9308
         9        2.0000           -0.4317405             -11.7483 (HOMO)
        10                         -0.3154673              -8.5843 (LUMO)
        11                         -0.2811982              -7.6518
        12                         -0.2769404              -7.5359
        13                          0.0586178               1.5951
        14                          0.0752035               2.0464
        15                          0.1252956               3.4095
        16                          0.2675212               7.2796
        17                          0.5973691              16.2552
      -------------------------------------------------------------
                  HL-Gap            0.1162731 Eh            3.1640 eV
             Fermi-level           -0.3736039 Eh          -10.1663 eV

     #   Z        covCN         q      C6AA      α(0)
     1   6 C      3.680     0.123    18.773     6.206
     2   6 C      2.626    -0.067    29.651     8.907
     3   6 C      2.752    -0.017    28.418     8.729
     4   7 N      2.486    -0.117    23.601     7.215
     5   1 H      0.927     0.078     2.003     2.213

 Mol. C6AA /au·bohr⁶  :        456.070719
 Mol. C8AA /au·bohr⁸  :      11850.770055
 Mol. α(0) /au        :         33.269410


Wiberg/Mayer (AO) data.
largest (>0.10) Wiberg bond orders for each atom
          total WBO             WBO to atom ...
     1  C   3.907        C    2 1.322    N    4 1.132    H    5 0.956    C    3 0.498
     2  C   3.018        C    1 1.322    C    3 1.075    N    4 0.614
     3  C   2.919        N    4 1.319    C    2 1.075    C    1 0.498
     4  N   3.068        C    3 1.319    C    1 1.132    C    2 0.614
     5  H   0.994        C    1 0.956

MOs/occ written to file <molden.input>


molecular dipole:
                 x           y           z       tot (Debye)
 q only:        0.536       0.066       0.166
   full:        1.073      -0.101       0.304       2.846
molecular quadrupole (traceless):
                xx          xy          yy          xz          yz          zz
 q only:        0.849      -0.119      -0.779       0.115      -0.125      -0.071
  q+dip:        1.132      -0.259      -1.682       1.306      -0.262       0.550
   full:        0.714       0.122      -1.881       1.507       0.025       1.166

           -------------------------------------------------
          |                Geometry Summary                 |
           -------------------------------------------------

      molecular mass/u    :       51.0468517
   center of mass at/Å    :       -0.3425496      -0.0142207      -0.0988780
  moments of inertia/u·Å² :        0.2554558E+02   0.2677837E+02   0.4384562E+02
rotational constants/cm⁻¹ :        0.6599040E+00   0.6295242E+00   0.3844770E+00

 * 4 selected distances

     #   Z        #   Z                                     value/Å
     1   6 C      2   6 C                                 1.3821528 (max)
Molecule has no symmetry elements
It seems to be the C1 point group
     1   6 C      4   7 N                                 1.3715694
     3   6 C      4   7 N                                 1.3418171
     1   6 C      5   1 H                                 1.0651044 (min)

 * 3 distinct bonds (by element types)

   Z      Z             #   av. dist./Å        max./Å        min./Å
   1 H    6 C           1     1.0651044     1.0651044     1.0651044
   6 C    6 C           1     1.3821528     1.3821528     1.3821528
   6 C    7 N           2     1.3566932     1.3715694     1.3418171

           -------------------------------------------------
          |               Frequency Printout                |
           -------------------------------------------------
 projected vibrational frequencies (cm-1)
eigval :       -0.00    -0.00    -0.00    -0.00     0.00     0.00
eigval :      588.10   634.58   762.95   813.22   954.29  1183.77
eigval :     1333.19  1505.04  3215.26
 reduced masses (amu)
   1: 11.06   2: 11.95   3: 12.77   4: 12.60   5: 11.99   6: 11.52   7: 11.86   8:  7.61
   9:  9.24  10: 10.51  11:  3.64  12: 12.12  13: 12.20  14: 12.10  15:  1.97
 IR intensities (amu)
   1:  0.23   2:  0.08   3:  0.20   4:  0.03   5:  0.09   6:  0.12   7:  0.24   8:  0.26
   9:  0.21  10:  0.52  11:  0.05  12:  0.75  13:  1.13  14:  0.33  15:  0.09
 Raman intensities (amu)
   1:  0.00   2:  0.00   3:  0.00   4:  0.00   5:  0.00   6:  0.00   7:  0.00   8:  0.00
   9:  0.00  10:  0.00  11:  0.00  12:  0.00  13:  0.00  14:  0.00  15:  0.00
 output can be read by thermo (or use thermo option).
 writing <g98.out> molden fake output.
 recommended (thermochemical) frequency scaling factor: 1.0
           -------------------------------------------------
          |             Thermodynamic Functions             |
           -------------------------------------------------

c1  symmetry found (for desy threshold:  0.10E+00) used in thermo

          ...................................................
          :                      SETUP                      :
          :.................................................:
          :  # frequencies                           9      :
          :  # imaginary freq.                       0      :
          :  linear?                             false      :
          :  only rotor calc.                    false      :
          :  symmetry                               c1      :
          :  rotational number                       1      :
          :  scaling factor                  1.0000000      :
          :  rotor cutoff                   50.0000000 cm⁻¹ :
          :  imag. cutoff                  -20.0000000 cm⁻¹ :
          :.................................................:

    mode    ω/cm⁻¹     T·S(HO)/kcal·mol⁻¹    T·S(FR)/kcal·mol⁻¹   T·S(vib)
   ------------------------------------------------------------------------
   ------------------------------------------------------------------------

   temp. (K)  partition function   enthalpy   heat capacity  entropy
                                   cal/mol     cal/K/mol   cal/K/mol   J/K/mol
 298.15  VIB   1.18                  344.750      4.212      1.493
         ROT  0.132E+05              888.752      2.981     21.840
         INT  0.157E+05             1233.503      7.193     23.333
         TR   0.353E+27             1481.254      4.968     37.697
         TOT                        2714.7567    12.1607    61.0299   255.3492

   temp. (K)  partition function   enthalpy   heat capacity  entropy
                                   cal/mol     cal/K/mol   cal/K/mol   J/K/mol
 120.00  VIB   1.00                    2.759      0.175      0.026
         ROT  0.338E+04              357.707      2.981     19.128
         INT  0.338E+04              360.466      3.156     19.154
         TR   0.901E+26              596.178      4.968     33.177
         TOT                         956.6435     8.1238    52.3308   218.9520

   temp. (K)  partition function   enthalpy   heat capacity  entropy
                                   cal/mol     cal/K/mol   cal/K/mol   J/K/mol
 100.00  VIB   1.00                    0.612      0.055      0.007
         ROT  0.257E+04              298.089      2.981     18.584
         INT  0.257E+04              298.701      3.036     18.591
         TR   0.685E+26              496.815      4.968     32.272
         TOT                         795.5159     8.0039    50.8627   212.8094

   temp. (K)  partition function   enthalpy   heat capacity  entropy
                                   cal/mol     cal/K/mol   cal/K/mol   J/K/mol
  80.00  VIB   1.00                    0.066      0.009      0.001
         ROT  0.184E+04              238.471      2.981     17.919
         INT  0.184E+04              238.538      2.990     17.920
         TR   0.490E+26              397.452      4.968     31.164
         TOT                         635.9897     7.9582    49.0835   205.3654

   temp. (K)  partition function   enthalpy   heat capacity  entropy
                                   cal/mol     cal/K/mol   cal/K/mol   J/K/mol
  60.00  VIB   1.00                    0.002      0.000     -0.000
         ROT  0.119E+04              178.853      2.981     17.061
         INT  0.119E+04              178.855      2.981     17.061
         TR   0.319E+26              298.089      4.968     29.735
         TOT                         476.9441     7.9495    46.7965   195.7965

   temp. (K)  partition function   enthalpy   heat capacity  entropy
                                   cal/mol     cal/K/mol   cal/K/mol   J/K/mol
  40.00  VIB   1.00                    0.000      0.000     -0.000
         ROT   650.                  119.236      2.981     15.853
         INT   650.                  119.236      2.981     15.853
         TR   0.173E+26              198.726      4.968     27.722
         TOT                         317.9616     7.9490    43.5743   182.3150

   temp. (K)  partition function   enthalpy   heat capacity  entropy
                                   cal/mol     cal/K/mol   cal/K/mol   J/K/mol
  20.00  VIB   1.00                    0.000      0.000     -0.000
         ROT   230.                   59.618      2.981     13.786
         INT   230.                   59.618      2.981     13.786
         TR   0.613E+25               99.363      4.968     24.280
         TOT                         158.9808     7.9490    38.0661   159.2684

   temp. (K)  partition function   enthalpy   heat capacity  entropy
                                   cal/mol     cal/K/mol   cal/K/mol   J/K/mol
  10.00  VIB   1.00                    0.000      0.000     -0.000
         ROT   81.3                   29.809      2.981     11.720
         INT   81.3                   29.809      2.981     11.720
         TR   0.217E+25               49.681      4.968     20.838
         TOT                          79.4904     7.9490    32.5578   136.2218

       T/K    H(0)-H(T)+PV         H(T)/Eh          T*S/Eh         G(T)/Eh
   ------------------------------------------------------------------------
    298.15    0.432624E-02    0.293642E-01    0.289973E-01    0.366953E-03
    120.00    0.152451E-02    0.265625E-01    0.100073E-01    0.165552E-01
    100.00    0.126774E-02    0.263057E-01    0.810548E-02    0.182003E-01
     80.00    0.101351E-02    0.260515E-01    0.625756E-02    0.197939E-01
     60.00    0.760059E-03    0.257981E-01    0.447450E-02    0.213236E-01
     40.00    0.506704E-03    0.255447E-01    0.277760E-02    0.227671E-01
     20.00    0.253352E-03    0.252914E-01    0.121324E-02    0.240781E-01
     10.00    0.126676E-03    0.251647E-01    0.518842E-03    0.246458E-01 (used)
   ------------------------------------------------------------------------

         :::::::::::::::::::::::::::::::::::::::::::::::::::::
         ::                  THERMODYNAMIC                  ::
         :::::::::::::::::::::::::::::::::::::::::::::::::::::
         :: total free energy          -9.560215287347 Eh   ::
         ::.................................................::
         :: total energy               -9.584861120844 Eh   ::
         :: zero point energy           0.025037999064 Eh   ::
         :: G(RRHO) w/o ZPVE           -0.000392165567 Eh   ::
         :: G(RRHO) contrib.            0.024645833497 Eh   ::
         :::::::::::::::::::::::::::::::::::::::::::::::::::::

optimized geometry written to: xtbopt.xyz


           -------------------------------------------------
          | TOTAL ENERGY               -9.584861120844 Eh   |
          | TOTAL ENTHALPY             -9.559696445764 Eh   |
          | TOTAL FREE ENERGY          -9.560215287347 Eh   |
          | GRADIENT NORM               0.000629022925 Eh/α |
          | HOMO-LUMO GAP               3.163953014073 eV   |
           -------------------------------------------------

------------------------------------------------------------------------
 * finished run on 2020/05/12 at 11:45:00.570     
------------------------------------------------------------------------
 total:
 * wall-time:     0 d,  0 h,  0 min,  0.145 sec
 *  cpu-time:     0 d,  0 h,  0 min,  0.144 sec
 * ratio c/w:     0.996 speedup
 SCF:
 * wall-time:     0 d,  0 h,  0 min,  0.004 sec
 *  cpu-time:     0 d,  0 h,  0 min,  0.004 sec
 * ratio c/w:     1.000 speedup
 ANC optimizer:
 * wall-time:     0 d,  0 h,  0 min,  0.044 sec
 *  cpu-time:     0 d,  0 h,  0 min,  0.044 sec
 * ratio c/w:     0.999 speedup
 numerical hessian:
 * wall-time:     0 d,  0 h,  0 min,  0.080 sec
 *  cpu-time:     0 d,  0 h,  0 min,  0.080 sec
 * ratio c/w:     0.999 speedup

