$hessian                                                                        
        0.7982337159  -0.0808869772   0.2332504435  -0.2255443964   0.2038067739
       -0.0745303175  -0.1170273471  -0.0052747260   0.0440184593  -0.1736441985
       -0.1576453847  -0.0841661252  -0.2820177739   0.0400003141  -0.1185724601
       -0.0808869772   0.3031486617  -0.0142157153   0.1234270641  -0.1739122376
        0.0612892618  -0.0105456849   0.0815450945   0.0245105393  -0.0668189309
       -0.1786845165  -0.0900235195   0.0348245289  -0.0320970021   0.0184394337
        0.2332504435  -0.0142157153   0.1805108469  -0.0812834864   0.0643000403
       -0.0489614026   0.0418300559   0.0100901714   0.0083439701  -0.0855235983
       -0.0780868539  -0.0658513189  -0.1082734146   0.0179123575  -0.0740420955
       -0.2255443964   0.1234270641  -0.0812834864   0.2580665442  -0.0976926578
        0.0123250113  -0.0806797791  -0.0490288247   0.0776491851   0.0607813960
        0.0044768381  -0.0128849769  -0.0126237647   0.0188175803   0.0041942669
        0.2038067739  -0.1739122376   0.0643000403  -0.0976926578   0.4010804759
       -0.1364173584  -0.1151517534  -0.1162497032   0.1033914383   0.0087676552
       -0.1121064603  -0.0275654997   0.0002699821   0.0011879253  -0.0037086204
       -0.0745303175   0.0612892618  -0.0489614026   0.0123250113  -0.1364173584
        0.1117144941   0.0636825820   0.0869284122  -0.0994997249   0.0008433416
       -0.0160951534   0.0400605956  -0.0023206175   0.0042948377  -0.0033139621
       -0.1170273471  -0.0105456849   0.0418300559  -0.0806797791  -0.1151517534
        0.0636825820   0.3134063280  -0.0039792990  -0.2123677848  -0.1192594988
        0.1290151329   0.1127481298   0.0035602970   0.0006616044  -0.0058929828
       -0.0052747260   0.0815450945   0.0100901714  -0.0490288247  -0.1162497032
        0.0869284122  -0.0039792990   0.2124552633   0.0124604778   0.0569770603
       -0.1701979943  -0.1059249257   0.0013057894  -0.0075526603  -0.0035541358
        0.0440184593   0.0245105393   0.0083439701   0.0776491851   0.1033914383
       -0.0994997249  -0.2123677848   0.0124604778   0.2407324987   0.0996515945
       -0.1381604678  -0.1647961718  -0.0089514542  -0.0022019877   0.0152194280
       -0.1736441985  -0.0668189309  -0.0855235983   0.0607813960   0.0087676552
        0.0008433416  -0.1192594988   0.0569770603   0.0996515945   0.2489690354
        0.0239870358  -0.0127169871  -0.0168467341  -0.0229128204  -0.0022543507
       -0.1576453847  -0.1786845165  -0.0780868539   0.0044768381  -0.1121064603
       -0.0160951534   0.1290151329  -0.1701979943  -0.1381604678   0.0239870358
        0.4577421190   0.2277894428   0.0001663779   0.0032468522   0.0045530322
       -0.0841661252  -0.0900235195  -0.0658513189  -0.0128849769  -0.0275654997
        0.0400605956   0.1127481298  -0.1059249257  -0.1647961718  -0.0127169871
        0.2277894428   0.1964160950  -0.0029800406  -0.0042754979  -0.0058291999
       -0.2820177739   0.0348245289  -0.1082734146  -0.0126237647   0.0002699821
       -0.0023206175   0.0035602970   0.0013057894  -0.0089514542  -0.0168467341
        0.0001663779  -0.0029800406   0.3079279757  -0.0365666784   0.1225255268
        0.0400003141  -0.0320970021   0.0179123575   0.0188175803   0.0011879253
        0.0042948377   0.0006616044  -0.0075526603  -0.0022019877  -0.0229128204
        0.0032468522  -0.0042754979  -0.0365666784   0.0352148849  -0.0157297097
       -0.1185724601   0.0184394337  -0.0740420955   0.0041942669  -0.0037086204
       -0.0033139621  -0.0058929828  -0.0035541358   0.0152194280  -0.0022543507
        0.0045530322  -0.0058291999   0.1225255268  -0.0157297097   0.0679658295
