[Molden Format]
[Title]
[Atoms] AU
C      1     6  0.10245743847143E+01  0.83775171687972E-01 -0.60627801886334E-01
C      2     6 -0.84119457359016E+00  0.18368543414397E+01 -0.57791813106554E+00
C      3     6 -0.22479732747771E+01 -0.12904268732446E+00  0.67791095689863E+00
N      4     7 -0.79450626111198E+00 -0.16220200895057E+01 -0.76710018469176E+00
H      5     1  0.28590997247716E+01 -0.16956673629427E+00  0.72773705047096E+00
[GTO]
           1 0
 s           4   1.0000000000000000     
   51.049363095579913      -0.16312063210127389     
   8.7911227406887544      -0.19911024581000730     
  0.70640422258929825       0.31882047753655751     
  0.26922813413411617       0.12706504184240380     
 p           4   1.0000000000000000     
   5.8263656140800002       0.73716451545209605     
   1.5106896018720002       0.68216371614850257     
  0.53256483288000001       0.35783053929253711     
  0.21202323690600003        5.3983030275847881E-002

           2 0
 s           4   1.0000000000000000     
   51.049363095579913      -0.16312063210127389     
   8.7911227406887544      -0.19911024581000730     
  0.70640422258929825       0.31882047753655751     
  0.26922813413411617       0.12706504184240380     
 p           4   1.0000000000000000     
   5.8263656140800002       0.73716451545209605     
   1.5106896018720002       0.68216371614850257     
  0.53256483288000001       0.35783053929253711     
  0.21202323690600003        5.3983030275847881E-002

           3 0
 s           4   1.0000000000000000     
   51.049363095579913      -0.16312063210127389     
   8.7911227406887544      -0.19911024581000730     
  0.70640422258929825       0.31882047753655751     
  0.26922813413411617       0.12706504184240380     
 p           4   1.0000000000000000     
   5.8263656140800002       0.73716451545209605     
   1.5106896018720002       0.68216371614850257     
  0.53256483288000001       0.35783053929253711     
  0.21202323690600003        5.3983030275847881E-002

           4 0
 s           4   1.0000000000000000     
   63.594024466941008      -0.19234388414721629     
   10.951417231523665      -0.23478107924953728     
  0.87999310257376984       0.37593753901700888     
  0.33538715296521110       0.14982889271862770     
 p           4   1.0000000000000000     
   7.2965040481495080       0.97658666315667420     
   1.8918745450712575       0.90372226730345739     
  0.66694432110824120       0.47404958461536373     
  0.26552202674130870        7.1516067715011844E-002

           5 0
 s           3   1.0000000000000000     
   3.3702276975336001       0.27359110588908298     
  0.61389118221497996       0.26460540653860526     
  0.16614291148415999        8.2465947534082318E-002

[MO]
Sym=     1a
Ene=  -0.74912588587032014     
Spin= Alpha
Occup=     2.00000000
           1 -0.31440106177542937     
           2  0.17494246955831094     
           3   1.5946376239027050E-002
           4   2.5194017414050106E-002
           5 -0.26645556077719995     
           6  -2.0390067441027063E-002
           7  0.12929177744610285     
           8  -2.9655129352952482E-002
           9 -0.27097131235443950     
          10 -0.12374417172784591     
          11  -2.4237811405405977E-003
          12   7.1485701504744453E-002
          13 -0.31560643405919830     
          14  -3.0737417971149098E-002
          15 -0.21213073860454079     
          16  -8.7224747081055043E-002
          17  -3.3679907254450241E-002
Sym=     2a
Ene=  -0.64163489379573968     
Spin= Alpha
Occup=     2.00000000
           1  0.46874773500414801     
           2  0.15583086071109858     
           3   2.5065168034950340E-002
           4  -3.9821275932643778E-002
           5   5.3525147894885501E-002
           6  0.20719610219204240     
           7   2.0373408623097989E-002
           8  -1.5961454267320586E-002
           9 -0.35872670954464148     
          10   3.3298640547863370E-002
          11   8.3708131745479988E-002
          12   8.3318876621425619E-002
          13 -0.14841864908872082     
          14  0.32589262425610160     
          15   9.9339454108588864E-004
          16  -8.1931511766854578E-002
          17  0.26299820201569507     
Sym=     3a
Ene=  -0.63475859646239341     
Spin= Alpha
Occup=     2.00000000
           1   5.2571570780750913E-002
           2   4.8463059077074780E-002
           3 -0.37204457193150392     
           4   3.1938913664611469E-003
           5 -0.46767761586032136     
           6  -6.3260643627093402E-003
           7  -8.5875557429783995E-003
           8  -5.9219982209085559E-002
           9  -7.5502771939617713E-002
          10   3.0558315420947047E-002
          11 -0.25244824711853897     
          12   1.5833687553299437E-002
          13  0.46014457843825762     
          14  0.12840333142389621     
          15  -9.4029981292584983E-002
          16  0.12887973805701922     
          17   6.4762133258467663E-002
Sym=     4a
Ene=  -0.59139594957018671     
Spin= Alpha
Occup=     2.00000000
           1  0.11417392294630113     
           2  0.17630933435425683     
           3   3.8719748559868525E-002
           4  0.40210585671296561     
           5  -8.5844240004873770E-002
           6  -4.9771896955945978E-002
           7   4.0625117855422326E-002
           8  0.22581749186922948     
           9  0.33821795882617484     
          10   2.8851413040625825E-002
          11  -4.5238001704030750E-002
          12  0.15539838937053319     
          13 -0.21066794037265438     
          14 -0.16273561259139757     
          15 -0.12089589781615681     
          16  0.35402650097595806     
          17  0.27638481612785892     
Sym=     5a
Ene=  -0.54298715672891773     
Spin= Alpha
Occup=     2.00000000
           1  -8.6156050244977092E-002
           2 -0.33713789534191513     
           3 -0.20428736243729056     
           4  0.12047415466284739     
           5  -2.6486308099812984E-002
           6  -4.7543001430158500E-002
           7   1.9281739695792416E-002
           8  0.19810211539589878     
           9  -6.7590439470024161E-002
          10  0.18378966089011503     
          11  0.19551360153436664     
          12  0.27798030721634420     
          13 -0.19377436484123484     
          14  0.44489127908848058     
          15   2.2758875999569993E-003
          16  0.24287139660022103     
          17 -0.28803459270758858     
Sym=     6a
Ene=  -0.52412899073230002     
Spin= Alpha
Occup=     2.00000000
           1  -2.1237837755512044E-002
           2  0.19424746648614788     
           3 -0.34558627782851603     
           4  -5.0367162732919822E-002
           5   1.4457862590533938E-002
           6 -0.47563235278854538     
           7  -5.8347458607527318E-002
           8  -1.2541251461595556E-003
           9  0.22889165097932071     
          10 -0.19250479804470366     
          11  0.35382689810980633     
          12  -9.0135321035335586E-002
          13  -6.0724002548049064E-002
          14  0.18201888076661998     
          15  0.11754070850656506     
          16 -0.22633603154006013     
          17  0.19620123050120228     
Sym=     7a
Ene=  -0.48488525939497201     
Spin= Alpha
Occup=     2.00000000
           1   6.7006057922326653E-002
           2  -2.3015869630461393E-002
           3  -1.5008206022131706E-002
           4  -7.6090956965652684E-002
           5 -0.47650622255003389     
           6   8.1557436167936662E-002
           7 -0.37482281297782427     
           8  -9.7185459381137318E-002
           9   6.5040614653097698E-002
          10  -5.7471957747205716E-003
          11 -0.11584623307121328     
          12  -3.0942814949306383E-002
          13 -0.48793255005745795     
          14  -6.9179067151681761E-002
          15  0.58658779075960388     
          16   4.8953760948249540E-002
          17  -2.4142316690110511E-002
Sym=     8a
Ene=  -0.43845051545396846     
Spin= Alpha
Occup=     2.00000000
           1  0.10684319942173844     
           2   3.3482690829498292E-002
           3   9.2334586670812652E-002
           4 -0.39524809664180932     
           5  -8.0372865629149831E-002
           6  0.21505053690979528     
           7  -3.4857350253024770E-002
           8   2.5837022315803204E-002
           9  0.55897570799936414     
          10 -0.42716486621907107     
          11  -5.7327354089685013E-002
          12  0.46174900035617117     
          13   2.6760521317005313E-002
          14  0.16686740586610224     
          15 -0.15749400724213661     
          16  -7.0370815954368796E-002
          17 -0.10402078894524854     
Sym=     9a
Ene=  -0.43174046013327222     
Spin= Alpha
Occup=     2.00000000
           1   1.5666173429748936E-002
           2  -7.1096853018410774E-002
           3  0.18187302024685228     
           4  0.19424247500408018     
           5 -0.39307537694731648     
           6   9.8008288610792776E-002
           7 -0.32766141500623425     
           8  0.48252814809513034     
           9  -4.7301070387682297E-002
          10   8.0482835266390051E-002
          11  0.21887643321390707     
          12   3.2955146227140540E-002
          13  0.26610032548458634     
          14  -9.5170032398742055E-002
          15 -0.12355160626512651     
          16 -0.52387479716817609     
          17  -1.6219907982692853E-002
Sym=    10a
Ene=  -0.31546732636006375     
Spin= Alpha
Occup=     0.00000000
           1  -6.9828160439046522E-002
           2  -6.7884876686107168E-002
           3 -0.19292329598886213     
           4  0.20243104904239681     
           5  0.10171144683889709     
           6   8.9430987575848483E-002
           7  0.58665363952898031     
           8  0.13614951751108759     
           9   7.8778230104865524E-002
          10   5.6295963318667042E-002
          11 -0.23776899915460473     
          12  0.31117428108790418     
          13   6.9605022534309863E-002
          14  -9.2670198573825857E-002
          15  0.57289056582907361     
          16 -0.48648723825649792     
          17   6.6320185588351899E-002
Sym=    11a
Ene=  -0.28119821285331825     
Spin= Alpha
Occup=     0.00000000
           1  0.11713272614240998     
           2   5.8124664393464975E-002
           3  -5.4063570622907203E-002
           4 -0.26865481204509900     
           5  -8.3386104872936809E-002
           6  0.14071034498114657     
           7  0.32353484572513030     
           8  0.69328667660962040     
           9  -7.4261267337143333E-002
          10 -0.35702606667925013     
          11  -3.2968539811935302E-002
          12 -0.55136942367118980     
          13  -3.3445995851214723E-002
          14   7.7898952447026409E-002
          15  0.14906862883829877     
          16  0.26529169764795313     
          17 -0.13812594207664422     
Sym=    12a
Ene=  -0.27694038555065792     
Spin= Alpha
Occup=     0.00000000
           1  0.13048202792340580     
           2 -0.37575580930899183     
           3  -2.1042256039946663E-002
           4  0.68247451660187197     
           5   2.9969257375040654E-002
           6  0.17336499496069177     
           7  -5.6328255868582575E-002
           8 -0.27267968193446868     
           9   1.8371529573596019E-002
          10 -0.65431806205703491     
          11  -5.1616554823441275E-002
          12 -0.25375126864942460     
          13  -1.1778584350272287E-002
          14  0.21700289962851754     
          15  -3.9279983634049130E-002
          16 -0.10321264627178743     
          17  -6.3739658488178794E-002
Sym=    13a
Ene=    5.8617802374695667E-002
Spin= Alpha
Occup=     0.00000000
           1  0.66187436798657229     
           2  0.11632273125891521     
           3  0.36651698397507060     
           4   7.1351622023059877E-002
           5   5.9320337330212893E-002
           6 -0.81534232974195175     
           7  -6.4324109276492306E-002
           8  0.15859378209806460     
           9 -0.15978344069600525     
          10  -2.0223307682438383E-002
          11 -0.68791124162924178     
          12   8.4613832207991097E-002
          13 -0.15145798483999237     
          14  0.19418348802587465     
          15  -8.1294654421337334E-002
          16 -0.20076347524200161     
          17 -0.49773762200238608     
Sym=    14a
Ene=    7.5203458076976246E-002
Spin= Alpha
Occup=     0.00000000
           1 -0.78296273547427919     
           2  -3.6778727466313046E-004
           3  0.69695491522890440     
           4   3.2271488095975058E-003
           5  -6.3543455438457755E-002
           6 -0.14354645820322409     
           7  -2.8651383986443221E-002
           8   4.9920180716720830E-002
           9  0.11978658158655374     
          10   4.6330647238251699E-002
          11 -0.26858137893102763     
          12 -0.11727135178215575     
          13  0.27992937811740737     
          14  0.75571635527896830     
          15  0.25281765185005239     
          16   7.3180944869729508E-002
          17  0.55771897594637121     
Sym=    15a
Ene=   0.12529564257721224     
Spin= Alpha
Occup=     0.00000000
           1  0.37374461699147909     
           2  0.32317989518515788     
           3  0.53857489765300037     
           4  0.18588840683163194     
           5 -0.53843581205179669     
           6 -0.10441900640510779     
           7  0.43926870200593537     
           8 -0.35376606474900213     
           9   4.0724574598026503E-002
          10   3.9466997527452867E-004
          11  0.63742526801354249     
          12   6.9904381737459886E-002
          13  0.55813263017890213     
          14   1.2503337883620574E-003
          15  0.36702014749761530     
          16  0.29010816941003115     
          17 -0.48067736586500082     
Sym=    16a
Ene=   0.26752116308316137     
Spin= Alpha
Occup=     0.00000000
           1  -2.8353511666370609E-002
           2 -0.55650933665490521     
           3  0.13967417971763926     
           4 -0.21801495589397599     
           5   6.8144703606561080E-002
           6 -0.42039027149299601     
           7 -0.13830093006433020     
           8  0.16215228195995388     
           9 -0.76346257340133972     
          10 -0.58710695802841617     
          11  0.11532464870532265     
          12  0.54859649432213609     
          13  0.35924103493546372     
          14 -0.45745174922462517     
          15  0.25676336933341753     
          16  0.35825549027887299     
          17  0.52329657478617697     
Sym=    17a
Ene=   0.59736910282816147     
Spin= Alpha
Occup=     0.00000000
           1 -0.36436616068504063     
           2  0.99841625108055576     
           3 -0.23620748955946974     
           4  0.36830221177955874     
           5  0.72312507656972658     
           6  0.26894563634836172     
           7 -0.64706694501754936     
           8  0.22047399381015290     
           9 -0.37066705877872957     
          10 -0.27859500461111131     
          11  -8.7729171849247764E-002
          12  0.30711745327512907     
          13  0.44990441698486189     
          14   8.2292563819358719E-002
          15  0.40479506731252662     
          16  0.19997788808614639     
          17 -0.59015144537463637     
