      -----------------------------------------------------------      
     |                   =====================                   |     
     |                           x T B                           |     
     |                   =====================                   |     
     |                         S. Grimme                         |     
     |          Mulliken Center for Theoretical Chemistry        |     
     |                    University of Bonn                     |     
      -----------------------------------------------------------      

   * xtb version 6.2.2 (9d81278992624c895f80dd42a50cac0aa55982e2) compiled by '@Darwin' on 04/03/2020

   xtb is free software: you can redistribute it and/or modify it under
   the terms of the GNU Lesser General Public License as published by
   the Free Software Foundation, either version 3 of the License, or
   (at your option) any later version.
   
   xtb is distributed in the hope that it will be useful,
   but WITHOUT ANY WARRANTY; without even the implied warranty of
   MERCHANTABILITY or FITNESS FOR A PARTICULAR PURPOSE.  See the
   GNU Lesser General Public License for more details.
   
   Cite this work as:
   * S. Grimme, C. Bannwarth, P. Shushkov, J. Chem. Theory Comput., 2017,
     13, 1989-2009. DOI: 10.1021/acs.jctc.7b00118
   * C. Bannwarth, S. Ehlert and S. Grimme., J. Chem. Theory Comput., 2019,
     15, 1652-1671. DOI: 10.1021/acs.jctc.8b01176
   * P. Pracht, E. Caldeweyher, S. Ehlert, S. Grimme, ChemRxiv, 2019, preprint.
     DOI: 10.26434/chemrxiv.8326202.v1
   
   for DFT-D4:
   * E. Caldeweyher, C. Bannwarth and S. Grimme, J. Chem. Phys., 2017,
     147, 034112. DOI: 10.1063/1.4993215
   * E. Caldeweyher, S. Ehlert, A. Hansen, H. Neugebauer, S. Spicher,
     C. Bannwarth and S. Grimme, J. Chem. Phys., 2019, 150, 154122.
     DOI: 10.1063/1.5090222
   
   for sTDA-xTB:
   * S. Grimme and C. Bannwarth, J. Chem. Phys., 2016, 145, 054103.
     DOI: 10.1063/1.4959605
   
   in the mass-spec context:
   * V. Asgeirsson, C. Bauer and S. Grimme, Chem. Sci., 2017, 8, 4879.
     DOI: 10.1039/c7sc00601b
   
   for metadynamics refer to:
   * S. Grimme, J. Chem. Theory Comput., 2019, 155, 2847-2862
     DOI: 10.1021/acs.jctc.9b00143
   
   with help from (in alphabetical order)
   C. Bannwarth, F. Bohle, G. Brandenburg, E. Caldeweyher, M. Checinski,
   S. Dohm, S. Ehlert, S. Ehrlich, F. März, H. Neugebauer, J. Pisarek,
   P. Pracht, P. Shushkov, and S. Spicher.
   
 * started run on 2020/05/12 at 11:44:40.127     

           -------------------------------------------------
          |                Calculation Setup                |
           -------------------------------------------------

          program call               : xtb --input C5_20_S_0.input C5_20_S_0.xyz --ohess --molden --namespace C5_20_S_0 output.out
          calculation namespace      : C5_20_S_0
          coordinate file            : C5_20_S_0.xyz
          number of atoms            :                     5
          number of electrons        :                    20
          charge                     :                     0
          spin                       :                   0.0
          first test random number   :      0.98488730185251

   ID    Z sym.   atoms
    1    6 C      1-5

           -------------------------------------------------
          |                 G F N 2 - x T B                 |
           -------------------------------------------------

        Reference                      10.1021/acs.jctc.8b01176
      * Hamiltonian:
        H0-scaling (s, p, d)           1.850000    2.230000    2.230000
        zeta-weighting                 0.500000
      * Dispersion:
        s8                             2.700000
        a1                             0.520000
        a2                             5.000000
        s9                             5.000000
      * Repulsion:
        kExp                           1.500000    1.000000
        rExp                           1.000000
      * Coulomb:
        alpha                          2.000000
        third order                    shell-resolved
        anisotropic                    true
        a3                             3.000000
        a5                             4.000000
        cn-shift                       1.200000
        cn-exp                         4.000000
        max-rad                        5.000000


          ...................................................
          :                      SETUP                      :
          :.................................................:
          :  # basis functions                  20          :
          :  # atomic orbitals                  20          :
          :  # shells                           10          :
          :  # electrons                        20          :
          :  max. iterations                   250          :
          :  Hamiltonian                  GFN2-xTB          :
          :  restarted?                      false          :
          :  GBSA solvation                  false          :
          :  PC potential                    false          :
          :  electronic temp.          300.0000000     K    :
          :  accuracy                    1.0000000          :
          :  -> integral cutoff          0.2500000E+02      :
          :  -> integral neglect         0.1000000E-07      :
          :  -> SCF convergence          0.1000000E-05 Eh   :
          :  -> wf. convergence          0.1000000E-03 e    :
          :  Broyden damping             0.4000000          :
          ...................................................

 iter      E             dE          RMSdq      gap      omega  full diag
   1    -10.4654773 -0.104655E+02  0.839E+00    2.76       0.0  T
   2    -10.4794918 -0.140144E-01  0.507E+00    2.07       1.0  T
   3    -10.4791144  0.377358E-03  0.978E-01    2.41       1.0  T
   4    -10.4802095 -0.109509E-02  0.125E-01    2.24       1.0  T
   5    -10.4801159  0.935586E-04  0.133E-01    2.25       1.0  T
   6    -10.4802159 -0.100007E-03  0.387E-02    2.26       1.2  T
   7    -10.4802228 -0.689512E-05  0.678E-03    2.25       6.6  T
   8    -10.4802229 -0.873795E-07  0.476E-03    2.25       9.4  T
   9    -10.4802230 -0.323553E-07  0.789E-04    2.25      56.7  T
  10    -10.4802230 -0.110001E-08  0.172E-04    2.25     260.4  T

   *** convergence criteria satisfied after 10 iterations ***

         #    Occupation            Energy/Eh            Energy/eV
      -------------------------------------------------------------
         1        2.0000           -0.7860429             -21.3893
       ...           ...                  ...                  ...
         4        2.0000           -0.6540589             -17.7978
         5        2.0000           -0.5368593             -14.6087
         6        2.0000           -0.5368537             -14.6085
         7        2.0000           -0.4864904             -13.2381
         8        2.0000           -0.4527092             -12.3188
         9        2.0000           -0.4511072             -12.2753
        10        2.0000           -0.4510979             -12.2750 (HOMO)
        11                         -0.3683564             -10.0235 (LUMO)
        12                         -0.2521429              -6.8612
        13                         -0.2521216              -6.8606
        14                         -0.2058030              -5.6002
        15                          0.1701649               4.6304
       ...                                ...                  ...
        20                          1.0014896              27.2519
      -------------------------------------------------------------
                  HL-Gap            0.0827414 Eh            2.2515 eV
             Fermi-level           -0.4097271 Eh          -11.1492 eV

 SCC (total)                   0 d,  0 h,  0 min,  0.004 sec
 SCC setup                      ...        0 min,  0.000 sec (  1.924%)
 Dispersion                     ...        0 min,  0.000 sec (  0.454%)
 integral evaluation            ...        0 min,  0.001 sec ( 31.766%)
 zeroth order Hamiltonian       ...        0 min,  0.000 sec (  0.476%)
 iterations                     ...        0 min,  0.001 sec ( 29.155%)
 molecular gradient             ...        0 min,  0.002 sec ( 34.874%)
 printout                       ...        0 min,  0.000 sec (  1.184%)

         :::::::::::::::::::::::::::::::::::::::::::::::::::::
         ::                     SUMMARY                     ::
         :::::::::::::::::::::::::::::::::::::::::::::::::::::
         :: total energy             -10.181106666281 Eh    ::
         :: gradient norm              0.408462120427 Eh/a0 ::
         :: HOMO-LUMO gap              2.251509439496 eV    ::
         ::.................................................::
         :: SCC energy               -10.480222952923 Eh    ::
         :: -> isotropic ES           -0.004386634454 Eh    ::
         :: -> anisotropic ES          0.004951782280 Eh    ::
         :: -> anisotropic XC          0.002871512666 Eh    ::
         :: -> dispersion             -0.002096759329 Eh    ::
         :: repulsion energy           0.299116280186 Eh    ::
         :: add. restraining           0.000000000000 Eh    ::
         :::::::::::::::::::::::::::::::::::::::::::::::::::::

      ----------------------------------------------------------- 
     |                   =====================                   |
     |                        A N C O P T                        |
     |                   =====================                   |
     |               Approximate Normal Coordinate               |
     |                Rational Function Optimizer                |
      ----------------------------------------------------------- 

          ...................................................
          :                      SETUP                      :
          :.................................................:
          :   optimization level            normal          :
          :   max. optcycles                   200          :
          :   ANC micro-cycles                  20          :
          :   degrees of freedom                 9          :
          :.................................................:
          :   RF solver                   davidson          :
          :   write xtbopt.log                true          :
          :   linear?                        false          :
          :   energy convergence         0.5000000E-05 Eh   :
          :   grad. convergence          0.1000000E-02 Eh/α :
          :   maximium RF displ.         1.0000000          :
          :   Hlow (freq-cutoff)         0.1000000E-01      :
          :   Hmax (freq-cutoff)         5.0000000          :
          :   S6 in model hess.         20.0000000          :
          ...................................................

generating ANC from model Hessian ...
Using Lindh-Hessian (1995)
 Shifting diagonal of input Hessian by    0.0000000000000000     
 Lowest  eigenvalues of input Hessian
   -0.000000   -0.000000   -0.000000   -0.000000    0.000000    0.000000
    0.624832    0.624990    1.253164    1.374780    1.374913    1.701225
    1.701341    2.076707    2.163395
 Highest eigenvalues
    1.374780    1.374913    1.701225    1.701341    2.076707    2.163395


........................................................................
.............................. CYCLE    1 ..............................
........................................................................
   1    -10.4802230 -0.104802E+02  0.127E-05    2.25       0.0  T
   2    -10.4802230 -0.355271E-12  0.656E-06    2.25    6815.8  T
   3    -10.4802230 -0.976996E-13  0.440E-06    2.25   10154.2  T
     SCC iter.                  ...        0 min,  0.000 sec
     gradient                   ...        0 min,  0.002 sec
 * total energy  :   -10.1811067 Eh     change        0.6176499E-09 Eh
   gradient norm :     0.4084619 Eh/α   predicted     0.0000000E+00 (-100.00%)
   displ. norm   :     0.1842775 α      lambda       -0.7508494E-01
   maximum displ.:     0.1814842 α      in ANC's #9, #3, #8, ...

........................................................................
.............................. CYCLE    2 ..............................
........................................................................
   1    -10.4324643 -0.104325E+02  0.948E-01    1.93       0.0  T
   2    -10.4327609 -0.296563E-03  0.572E-01    2.06       1.0  T
   3    -10.4327398  0.210885E-04  0.220E-01    1.99       1.0  T
   4    -10.4328063 -0.664876E-04  0.474E-02    2.03       1.0  T
   5    -10.4328101 -0.383807E-05  0.382E-02    2.03       1.2  T
   6    -10.4328174 -0.730689E-05  0.435E-03    2.03      10.3  T
   7    -10.4328175 -0.565594E-07  0.246E-03    2.03      18.2  T
   8    -10.4328175 -0.339433E-07  0.812E-04    2.03      55.1  T
   9    -10.4328175 -0.138684E-08  0.768E-05    2.03     582.0  T
     SCC iter.                  ...        0 min,  0.001 sec
     gradient                   ...        0 min,  0.001 sec
 * total energy  :   -10.2316105 Eh     change       -0.5050387E-01 Eh
   gradient norm :     0.1560444 Eh/α   predicted    -0.3881734E-01 ( -23.14%)
   displ. norm   :     0.1213513 α      lambda       -0.1866684E-01
   maximum displ.:     0.1101218 α      in ANC's #9, #3, #8, ...

........................................................................
.............................. CYCLE    3 ..............................
........................................................................
   1    -10.4015162 -0.104015E+02  0.679E-01    1.96       0.0  T
   2    -10.4018169 -0.300694E-03  0.412E-01    2.09       1.0  T
   3    -10.4018402 -0.233115E-04  0.219E-01    2.02       1.0  T
   4    -10.4018913 -0.510988E-04  0.299E-02    2.06       1.5  T
   5    -10.4018856  0.568527E-05  0.368E-02    2.06       1.2  T
   6    -10.4018944 -0.877128E-05  0.289E-03    2.06      15.5  T
   7    -10.4018944 -0.147258E-07  0.185E-03    2.06      24.1  T
   8    -10.4018944 -0.216065E-07  0.656E-04    2.06      68.2  T
   9    -10.4018944 -0.886997E-09  0.614E-05    2.06     728.8  T
     SCC iter.                  ...        0 min,  0.001 sec
     gradient                   ...        0 min,  0.002 sec
 * total energy  :   -10.2435184 Eh     change       -0.1190790E-01 Eh
   gradient norm :     0.0490765 Eh/α   predicted    -0.9470864E-02 ( -20.47%)
   displ. norm   :     0.0665077 α      lambda       -0.3260620E-02
   maximum displ.:     0.0482386 α      in ANC's #3, #9, #8, ...

........................................................................
.............................. CYCLE    4 ..............................
........................................................................
   1    -10.3891693 -0.103892E+02  0.414E-01    2.12       0.0  T
   2    -10.3893330 -0.163737E-03  0.252E-01    2.21       1.0  T
   3    -10.3893660 -0.329607E-04  0.143E-01    2.17       1.0  T
   4    -10.3893823 -0.163637E-04  0.166E-02    2.18       2.7  T
   5    -10.3893788  0.355888E-05  0.245E-02    2.18       1.8  T
   6    -10.3893830 -0.421058E-05  0.114E-03    2.19      39.2  T
   7    -10.3893830  0.510950E-09  0.926E-04    2.19      48.3  T
   8    -10.3893830 -0.557263E-08  0.324E-04    2.19     138.1  T
     SCC iter.                  ...        0 min,  0.001 sec
     gradient                   ...        0 min,  0.001 sec
 * total energy  :   -10.2456721 Eh     change       -0.2153700E-02 Eh
   gradient norm :     0.0268233 Eh/α   predicted    -0.1637523E-02 ( -23.97%)
   displ. norm   :     0.0511804 α      lambda       -0.1190216E-02
   maximum displ.:     0.0478043 α      in ANC's #3, #9, #8, ...

........................................................................
.............................. CYCLE    5 ..............................
........................................................................
   1    -10.3849846 -0.103850E+02  0.341E-01    2.30       0.0  T
   2    -10.3851025 -0.117957E-03  0.206E-01    2.38       1.0  T
   3    -10.3851300 -0.275156E-04  0.116E-01    2.34       1.0  T
   4    -10.3851408 -0.107719E-04  0.117E-02    2.35       3.8  T
   5    -10.3851385  0.227926E-05  0.184E-02    2.35       2.4  T
   6    -10.3851410 -0.248244E-05  0.792E-04    2.35      56.5  T
   7    -10.3851410  0.311413E-08  0.927E-04    2.35      48.3  T
   8    -10.3851410 -0.664006E-08  0.138E-04    2.35     323.4  T
     SCC iter.                  ...        0 min,  0.001 sec
     gradient                   ...        0 min,  0.001 sec
 * total energy  :   -10.2465446 Eh     change       -0.8724752E-03 Eh
   gradient norm :     0.0252786 Eh/α   predicted    -0.5966689E-03 ( -31.61%)
   displ. norm   :     0.0604212 α      lambda       -0.1021383E-02
   maximum displ.:     0.0602350 α      in ANC's #3, #9, #7, ...

........................................................................
.............................. CYCLE    6 ..............................
........................................................................
   1    -10.3848499 -0.103848E+02  0.411E-01    2.54       0.0  T
   2    -10.3850039 -0.154029E-03  0.245E-01    2.63       1.0  T
   3    -10.3850373 -0.333907E-04  0.135E-01    2.59       1.0  T
   4    -10.3850547 -0.174106E-04  0.116E-02    2.61       3.9  T
   5    -10.3850527  0.198498E-05  0.167E-02    2.61       2.7  T
   6    -10.3850548 -0.208693E-05  0.792E-04    2.61      56.5  T
   7    -10.3850548  0.181697E-08  0.831E-04    2.61      53.8  T
   8    -10.3850548 -0.542222E-08  0.964E-05    2.61     464.1  T
     SCC iter.                  ...        0 min,  0.001 sec
     gradient                   ...        0 min,  0.002 sec
 * total energy  :   -10.2472217 Eh     change       -0.6770636E-03 Eh
   gradient norm :     0.0198337 Eh/α   predicted    -0.5125579E-03 ( -24.30%)
   displ. norm   :     0.0310196 α      lambda       -0.3865813E-03
   maximum displ.:     0.0293876 α      in ANC's #3, #9, #8, ...

........................................................................
.............................. CYCLE    7 ..............................
........................................................................
   1    -10.3886435 -0.103886E+02  0.208E-01    2.73       0.0  T
   2    -10.3886709 -0.273626E-04  0.122E-01    2.77       1.0  T
   3    -10.3886739 -0.298148E-05  0.641E-02    2.75       1.0  T
   4    -10.3886796 -0.576601E-05  0.461E-03    2.76       9.7  T
   5    -10.3886796  0.322677E-07  0.218E-03    2.76      20.5  T
   6    -10.3886796 -0.349852E-07  0.573E-04    2.76      78.0  T
   7    -10.3886796 -0.197679E-08  0.245E-04    2.76     182.7  T
     SCC iter.                  ...        0 min,  0.001 sec
     gradient                   ...        0 min,  0.002 sec
 * total energy  :   -10.2474668 Eh     change       -0.2451421E-03 Eh
   gradient norm :     0.0088447 Eh/α   predicted    -0.1934785E-03 ( -21.07%)
   displ. norm   :     0.0091729 α      lambda       -0.7888589E-04
   maximum displ.:     0.0087797 α      in ANC's #9, #3, #8, ...

........................................................................
.............................. CYCLE    8 ..............................
........................................................................
   1    -10.3915313 -0.103915E+02  0.471E-02    2.79       0.0  T
   2    -10.3915313 -0.584579E-07  0.282E-02    2.79       1.6  T
   3    -10.3915314 -0.235833E-07  0.255E-03    2.79      17.6  T
   4    -10.3915313  0.191184E-07  0.246E-03    2.79      18.2  T
   5    -10.3915314 -0.142274E-07  0.167E-03    2.79      26.7  T
   6    -10.3915314 -0.173305E-07  0.200E-04    2.79     223.2  T
   7    -10.3915314 -0.248695E-09  0.848E-05    2.79     527.6  T
     SCC iter.                  ...        0 min,  0.001 sec
     gradient                   ...        0 min,  0.001 sec
 * total energy  :   -10.2475102 Eh     change       -0.4342085E-04 Eh
   gradient norm :     0.0010860 Eh/α   predicted    -0.3944592E-04 (  -9.15%)
   displ. norm   :     0.0034869 α      lambda       -0.2033605E-05
   maximum displ.:     0.0029637 α      in ANC's #3, #9, #7, ...

........................................................................
.............................. CYCLE    9 ..............................
........................................................................
   1    -10.3920917 -0.103921E+02  0.221E-02    2.78       0.0  T
   2    -10.3920922 -0.511014E-06  0.134E-02    2.78       3.3  T
   3    -10.3920923 -0.114523E-06  0.754E-03    2.78       5.9  T
   4    -10.3920923 -0.320900E-07  0.140E-03    2.78      31.9  T
   5    -10.3920923 -0.964904E-08  0.764E-04    2.78      58.5  T
   6    -10.3920923 -0.172758E-08  0.763E-05    2.78     586.2  T
     SCC iter.                  ...        0 min,  0.001 sec
     gradient                   ...        0 min,  0.002 sec
 * total energy  :   -10.2475111 Eh     change       -0.9059495E-06 Eh
   gradient norm :     0.0005021 Eh/α   predicted    -0.1017643E-05 (  12.33%)
   displ. norm   :     0.0008765 α      lambda       -0.2471330E-06
   maximum displ.:     0.0006289 α      in ANC's #3, #9, #8, ...

   *** GEOMETRY OPTIMIZATION CONVERGED AFTER 9 ITERATIONS ***

------------------------------------------------------------------------
 total energy gain   :        -0.0664045 Eh      -41.6694 kcal/mol
 total RMSD          :         0.1936468 a0        0.1025 Å
 total power (kW/mol):       -19.3716587 (step)-4926.1048 (real)
------------------------------------------------------------------------

 ANCopt (total)                0 d,  0 h,  0 min,  0.035 sec
 optimizer setup                ...        0 min,  0.000 sec (  0.184%)
 model hessian                  ...        0 min,  0.000 sec (  0.283%)
 ANC generation                 ...        0 min,  0.000 sec (  0.147%)
 coordinate transformation      ...        0 min,  0.000 sec (  0.063%)
 single point calculation       ...        0 min,  0.034 sec ( 97.220%)
 optimization log               ...        0 min,  0.000 sec (  0.565%)
 hessian update                 ...        0 min,  0.000 sec (  0.056%)
 rational function              ...        0 min,  0.000 sec (  0.585%)

================
 final structure:
================
5
 xtb: 6.2.2 (9d81278992624c895f80dd42a50cac0aa55982e2)
C        -0.32719210375965    0.80874569624052    0.66354135623690
C        -0.73521781250061   -0.54621063387040   -0.60209651051879
C         0.11284931937727    0.62071501107609   -0.70090117873850
C         1.06240997327823   -0.26253022667100   -0.06144544992455
C        -0.11284837639524   -0.62072084677521    0.70090178294494

 Bond Distances (Angstroems)
 ---------------------------
C1-C2=1.8985         C1-C3=1.4459         C1-C4=1.8985         C1-C5=1.4459         C2-C1=1.8985         C2-C3=1.4459         
C2-C4=1.8985         C2-C5=1.4459         C3-C1=1.4459         C3-C2=1.4459         C3-C4=1.4459         C3-C5=1.8860         
C4-C1=1.8985         C4-C2=1.8985         C4-C3=1.4459         C4-C5=1.4459         C5-C1=1.4459         C5-C2=1.4459         
C5-C3=1.8860         C5-C4=1.4459         
 C  C  Rav=1.6257 sigma=0.2202  Rmin=1.4459  Rmax=1.8985    10

 selected bond angles (degree)
 --------------------
C3-C1-C2= 48.97                C4-C1-C2= 60.00                C4-C1-C3= 48.97                C5-C1-C2= 48.97                
C5-C1-C3= 81.41                C5-C1-C4= 48.97                C3-C2-C1= 48.97                C4-C2-C1= 60.00                
C4-C2-C3= 48.97                C5-C2-C1= 48.97                C5-C2-C3= 81.41                C5-C2-C4= 48.97                
C2-C3-C1= 82.07                C4-C3-C1= 82.07                C4-C3-C2= 82.07                C5-C3-C1= 49.29                
C5-C3-C2= 49.29                C5-C3-C4= 49.29                C2-C4-C1= 60.00                C3-C4-C1= 48.97                
C3-C4-C2= 48.97                C5-C4-C1= 48.97                C5-C4-C2= 48.97                C5-C4-C3= 81.41                
C2-C5-C1= 82.07                C3-C5-C1= 49.29                C3-C5-C2= 49.29                C4-C5-C1= 82.07                
C4-C5-C2= 82.07                C4-C5-C3= 49.29                

 selected dihedral angles (degree)
 ---------------------------------
C2-C3-C1-C4= 83.03            C2-C3-C1-C5= 41.52            C4-C3-C1-C2=276.97            C4-C3-C1-C5=318.48            
C5-C3-C1-C2=318.48            C5-C3-C1-C4= 41.52            C1-C3-C2-C4=276.97            C1-C3-C2-C5=318.48            
C4-C3-C2-C1= 83.03            C4-C3-C2-C5= 41.52            C5-C3-C2-C1= 41.52            C5-C3-C2-C4=318.48            
C1-C4-C3-C2=276.97            C1-C4-C3-C5=318.48            C2-C4-C3-C1= 83.03            C2-C4-C3-C5= 41.52            
C5-C4-C3-C1= 41.52            C5-C4-C3-C2=318.48            C2-C5-C1-C3=318.48            C2-C5-C1-C4=276.97            
C3-C5-C1-C2= 41.52            C3-C5-C1-C4=318.48            C4-C5-C1-C2= 83.03            C4-C5-C1-C3= 41.52            
C1-C5-C2-C3= 41.52            C1-C5-C2-C4= 83.03            C3-C5-C2-C1=318.48            C3-C5-C2-C4= 41.52            
C4-C5-C2-C1=276.97            C4-C5-C2-C3=318.48            C1-C5-C4-C2=276.97            C1-C5-C4-C3=318.48            
C2-C5-C4-C1= 83.03            C2-C5-C4-C3= 41.52            C3-C5-C4-C1= 41.52            C3-C5-C4-C2=318.48            
           -------------------------------------------------
          |                Final Singlepoint                |
           -------------------------------------------------

          ...................................................
          :                      SETUP                      :
          :.................................................:
          :  # basis functions                  20          :
          :  # atomic orbitals                  20          :
          :  # shells                           10          :
          :  # electrons                        20          :
          :  max. iterations                   250          :
          :  Hamiltonian                  GFN2-xTB          :
          :  restarted?                      false          :
          :  GBSA solvation                  false          :
          :  PC potential                    false          :
          :  electronic temp.          300.0000000     K    :
          :  accuracy                    1.0000000          :
          :  -> integral cutoff          0.2500000E+02      :
          :  -> integral neglect         0.1000000E-07      :
          :  -> SCF convergence          0.1000000E-05 Eh   :
          :  -> wf. convergence          0.1000000E-03 e    :
          :  Broyden damping             0.4000000          :
          ...................................................

 iter      E             dE          RMSdq      gap      omega  full diag
   1    -10.3920923 -0.103921E+02  0.336E-05    2.78       0.0  T
   2    -10.3920923  0.656186E-11  0.317E-05    2.78    1412.5  T
   3    -10.3920923 -0.649969E-11  0.237E-05    2.78    1886.2  T

   *** convergence criteria satisfied after 3 iterations ***

         #    Occupation            Energy/Eh            Energy/eV
      -------------------------------------------------------------
         1        2.0000           -0.7769376             -21.1415
       ...           ...                  ...                  ...
         4        2.0000           -0.6480199             -17.6335
         5        2.0000           -0.5376427             -14.6300
         6        2.0000           -0.5376420             -14.6300
         7        2.0000           -0.4991090             -13.5814
         8        2.0000           -0.4781303             -13.0106
         9        2.0000           -0.4750724             -12.9274
        10        2.0000           -0.4750721             -12.9274 (HOMO)
        11                         -0.3729393             -10.1482 (LUMO)
        12                         -0.3266325              -8.8881
        13                         -0.3266310              -8.8881
        14                         -0.2968634              -8.0781
        15                          0.0155216               0.4224
       ...                                ...                  ...
        20                          0.5515018              15.0071
      -------------------------------------------------------------
                  HL-Gap            0.1021328 Eh            2.7792 eV
             Fermi-level           -0.4240057 Eh          -11.5378 eV

 SCC (total)                   0 d,  0 h,  0 min,  0.003 sec
 SCC setup                      ...        0 min,  0.000 sec (  1.461%)
 Dispersion                     ...        0 min,  0.000 sec (  0.292%)
 integral evaluation            ...        0 min,  0.001 sec ( 41.594%)
 zeroth order Hamiltonian       ...        0 min,  0.000 sec (  0.494%)
 iterations                     ...        0 min,  0.000 sec ( 11.345%)
 molecular gradient             ...        0 min,  0.001 sec ( 43.117%)
 printout                       ...        0 min,  0.000 sec (  1.426%)

         :::::::::::::::::::::::::::::::::::::::::::::::::::::
         ::                     SUMMARY                     ::
         :::::::::::::::::::::::::::::::::::::::::::::::::::::
         :: total energy             -10.247511142328 Eh    ::
         :: gradient norm              0.000502068512 Eh/a0 ::
         :: HOMO-LUMO gap              2.779175512757 eV    ::
         ::.................................................::
         :: SCC energy               -10.392092340083 Eh    ::
         :: -> isotropic ES           -0.014903793291 Eh    ::
         :: -> anisotropic ES          0.002538735107 Eh    ::
         :: -> anisotropic XC          0.004146921158 Eh    ::
         :: -> dispersion             -0.002393651372 Eh    ::
         :: repulsion energy           0.144581180446 Eh    ::
         :: add. restraining           0.000000000000 Eh    ::
         :::::::::::::::::::::::::::::::::::::::::::::::::::::

           ------------------------------------------------- 
          |                Numerical Hessian                |
           ------------------------------------------------- 
step length          :   0.00500
SCC accuracy         :   0.30000
Hessian scale factor :   1.00000
frozen atoms in %    :   0.00000    0
RMS gradient         :   0.00050
estimated CPU  time      0.00 min
estimated wall time      0.00 min

writing file <hessian>.

 projected vibrational frequencies (cm-1)
eigval :       -0.00    -0.00    -0.00    -0.00    -0.00    -0.00
eigval :      465.47   465.59   663.63   883.49   883.51  1123.59
eigval :     1137.46  1137.60  1399.06
           -------------------------------------------------
          |                Property Printout                |
           -------------------------------------------------

    * Orbital Energies and Occupations

         #    Occupation            Energy/Eh            Energy/eV
      -------------------------------------------------------------
         1        2.0000           -0.7769377             -21.1415
         2        2.0000           -0.6564081             -17.8618
         3        2.0000           -0.6564077             -17.8618
         4        2.0000           -0.6480199             -17.6335
         5        2.0000           -0.5376428             -14.6300
         6        2.0000           -0.5376420             -14.6300
         7        2.0000           -0.4991090             -13.5814
         8        2.0000           -0.4781303             -13.0106
         9        2.0000           -0.4750724             -12.9274
        10        2.0000           -0.4750722             -12.9274 (HOMO)
        11                         -0.3729393             -10.1482 (LUMO)
        12                         -0.3266325              -8.8881
        13                         -0.3266310              -8.8881
        14                         -0.2968634              -8.0781
        15                          0.0155216               0.4224
        16                          0.0155251               0.4225
        17                          0.1095631               2.9814
        18                          0.1095649               2.9814
        19                          0.1409415               3.8352
        20                          0.5515018              15.0071
      -------------------------------------------------------------
                  HL-Gap            0.1021328 Eh            2.7792 eV
             Fermi-level           -0.4240058 Eh          -11.5378 eV

     #   Z        covCN         q      C6AA      α(0)
     1   6 C      3.341    -0.054    26.626     8.157
Molecule has the following symmetry elements: (C3) 3*(C2) (S3) 4*(sigma) 
It seems to be the D3h point group
     2   6 C      3.341    -0.054    26.627     8.157
     3   6 C      3.651     0.080    19.540     6.349
     4   6 C      3.341    -0.054    26.627     8.157
     5   6 C      3.651     0.080    19.540     6.349

 Mol. C6AA /au·bohr⁶  :        590.871187
 Mol. C8AA /au·bohr⁸  :      17089.021520
 Mol. α(0) /au        :         37.169560


Wiberg/Mayer (AO) data.
largest (>0.10) Wiberg bond orders for each atom
          total WBO             WBO to atom ...
     1  C   3.065        C    3 0.980    C    5 0.980    C    4 0.552    C    2 0.552
     2  C   3.065        C    5 0.980    C    3 0.980    C    4 0.552    C    1 0.552
     3  C   3.575        C    4 0.980    C    1 0.980    C    2 0.980    C    5 0.635
     4  C   3.065        C    3 0.980    C    5 0.980    C    2 0.552    C    1 0.552
     5  C   3.575        C    2 0.980    C    4 0.980    C    1 0.980    C    3 0.635

MOs/occ written to file <molden.input>


molecular dipole:
                 x           y           z       tot (Debye)
 q only:        0.000       0.000      -0.000
   full:        0.000       0.000      -0.000       0.000
molecular quadrupole (traceless):
                xx          xy          yy          xz          yz          zz
 q only:       -0.410       0.101       0.128      -0.114      -0.629       0.282
  q+dip:       -1.185       0.293       0.371      -0.330      -1.818       0.814
   full:       -0.978       0.242       0.306      -0.273      -1.500       0.672

           -------------------------------------------------
          |                Geometry Summary                 |
           -------------------------------------------------

      molecular mass/u    :       60.0536795
   center of mass at/Å    :        0.0000002      -0.0000002      -0.0000000
  moments of inertia/u·Å² :        0.4300673E+02   0.4300683E+02   0.4328952E+02
rotational constants/cm⁻¹ :        0.3919766E+00   0.3919757E+00   0.3894160E+00

 * 6 selected distances

     #   Z        #   Z                                     value/Å
     1   6 C      3   6 C                                 1.4459237
     2   6 C      3   6 C                                 1.4459238
     3   6 C      4   6 C                                 1.4459223 (min)
     1   6 C      5   6 C                                 1.4459300 (max)
     2   6 C      5   6 C                                 1.4459253
     4   6 C      5   6 C                                 1.4459274

 * 1 distinct bonds (by element types)

   Z      Z             #   av. dist./Å        max./Å        min./Å
   6 C    6 C           6     1.4459254     1.4459300     1.4459223

           -------------------------------------------------
          |               Frequency Printout                |
           -------------------------------------------------
 projected vibrational frequencies (cm-1)
eigval :       -0.00    -0.00    -0.00    -0.00    -0.00    -0.00
eigval :      465.47   465.59   663.63   883.49   883.51  1123.59
eigval :     1137.46  1137.60  1399.06
 reduced masses (amu)
   1: 12.01   2: 12.01   3: 12.01   4: 12.01   5: 12.01   6: 12.01   7: 12.01   8: 12.01
   9: 12.01  10: 12.01  11: 12.01  12: 12.01  13: 12.01  14: 12.01  15: 12.01
 IR intensities (amu)
   1:  0.00   2:  0.01   3:  0.00   4:  0.00   5:  0.01   6:  0.00   7:  0.51   8:  0.51
   9:  0.00  10:  0.00  11:  0.01  12:  1.60  13:  0.97  14:  0.96  15:  0.00
 Raman intensities (amu)
   1:  0.00   2:  0.00   3:  0.00   4:  0.00   5:  0.00   6:  0.00   7:  0.00   8:  0.00
   9:  0.00  10:  0.00  11:  0.00  12:  0.00  13:  0.00  14:  0.00  15:  0.00
 output can be read by thermo (or use thermo option).
 writing <g98.out> molden fake output.
 recommended (thermochemical) frequency scaling factor: 1.0
           -------------------------------------------------
          |             Thermodynamic Functions             |
           -------------------------------------------------

d3h symmetry found (for desy threshold:  0.10E+00) used in thermo

          ...................................................
          :                      SETUP                      :
          :.................................................:
          :  # frequencies                           9      :
          :  # imaginary freq.                       0      :
          :  linear?                             false      :
          :  only rotor calc.                    false      :
          :  symmetry                              d3h      :
          :  rotational number                       6      :
          :  scaling factor                  1.0000000      :
          :  rotor cutoff                   50.0000000 cm⁻¹ :
          :  imag. cutoff                  -20.0000000 cm⁻¹ :
          :.................................................:

    mode    ω/cm⁻¹     T·S(HO)/kcal·mol⁻¹    T·S(FR)/kcal·mol⁻¹   T·S(vib)
   ------------------------------------------------------------------------
   ------------------------------------------------------------------------

   temp. (K)  partition function   enthalpy   heat capacity  entropy
                                   cal/mol     cal/K/mol   cal/K/mol   J/K/mol
 298.15  VIB   1.36                  513.329      5.465      2.333
         ROT  0.360E+04              888.752      2.981     19.255
         INT  0.490E+04             1402.082      8.446     21.588
         TR   0.450E+27             1481.254      4.968     38.181
         TOT                        2883.3355    13.4139    59.7687   250.0722

   temp. (K)  partition function   enthalpy   heat capacity  entropy
                                   cal/mol     cal/K/mol   cal/K/mol   J/K/mol
 120.00  VIB   1.01                   10.869      0.527      0.106
         ROT   920.                  357.707      2.981     16.542
         INT   927.                  368.576      3.508     16.649
         TR   0.115E+27              596.178      4.968     33.661
         TOT                         964.7535     8.4757    50.3103   210.4982

   temp. (K)  partition function   enthalpy   heat capacity  entropy
                                   cal/mol     cal/K/mol   cal/K/mol   J/K/mol
 100.00  VIB   1.00                    3.439      0.235      0.039
         ROT   700.                  298.089      2.981     15.999
         INT   702.                  301.528      3.216     16.038
         TR   0.875E+26              496.815      4.968     32.756
         TOT                         798.3430     8.1845    48.7945   204.1560

   temp. (K)  partition function   enthalpy   heat capacity  entropy
                                   cal/mol     cal/K/mol   cal/K/mol   J/K/mol
  80.00  VIB   1.00                    0.629      0.066      0.009
         ROT   501.                  238.471      2.981     15.334
         INT   501.                  239.100      3.047     15.343
         TR   0.626E+26              397.452      4.968     31.648
         TOT                         636.5518     8.0155    46.9905   196.6083

   temp. (K)  partition function   enthalpy   heat capacity  entropy
                                   cal/mol     cal/K/mol   cal/K/mol   J/K/mol
  60.00  VIB   1.00                    0.038      0.007      0.001
         ROT   325.                  178.853      2.981     14.476
         INT   325.                  178.891      2.988     14.477
         TR   0.406E+26              298.089      4.968     30.219
         TOT                         476.9804     7.9561    44.6962   187.0089

   temp. (K)  partition function   enthalpy   heat capacity  entropy
                                   cal/mol     cal/K/mol   cal/K/mol   J/K/mol
  40.00  VIB   1.00                    0.000      0.000     -0.000
         ROT   177.                  119.236      2.981     13.268
         INT   177.                  119.236      2.981     13.267
         TR   0.221E+26              198.726      4.968     28.206
         TOT                         317.9617     7.9491    41.4733   173.5243

   temp. (K)  partition function   enthalpy   heat capacity  entropy
                                   cal/mol     cal/K/mol   cal/K/mol   J/K/mol
  20.00  VIB   1.00                    0.000      0.000     -0.000
         ROT   62.6                   59.618      2.981     11.201
         INT   62.6                   59.618      2.981     11.201
         TR   0.782E+25               99.363      4.968     24.764
         TOT                         158.9808     7.9490    35.9649   150.4772

   temp. (K)  partition function   enthalpy   heat capacity  entropy
                                   cal/mol     cal/K/mol   cal/K/mol   J/K/mol
  10.00  VIB   1.00                    0.000      0.000     -0.001
         ROT   22.1                   29.809      2.981      9.135
         INT   22.1                   29.809      2.981      9.135
         TR   0.277E+25               49.681      4.968     21.322
         TOT                          79.4904     7.9490    30.4565   127.4300

       T/K    H(0)-H(T)+PV         H(T)/Eh          T*S/Eh         G(T)/Eh
   ------------------------------------------------------------------------
    298.15    0.459489E-02    0.231834E-01    0.283980E-01   -0.521466E-02
    120.00    0.153743E-02    0.201259E-01    0.962094E-02    0.105050E-01
    100.00    0.127224E-02    0.198607E-01    0.777589E-02    0.120848E-01
     80.00    0.101441E-02    0.196029E-01    0.599073E-02    0.136122E-01
     60.00    0.760117E-03    0.193486E-01    0.427368E-02    0.150749E-01
     40.00    0.506704E-03    0.190952E-01    0.264368E-02    0.164515E-01
     20.00    0.253352E-03    0.188418E-01    0.114627E-02    0.176956E-01
     10.00    0.126676E-03    0.187152E-01    0.485355E-03    0.182298E-01 (used)
   ------------------------------------------------------------------------

         :::::::::::::::::::::::::::::::::::::::::::::::::::::
         ::                  THERMODYNAMIC                  ::
         :::::::::::::::::::::::::::::::::::::::::::::::::::::
         :: total free energy         -10.229281342852 Eh   ::
         ::.................................................::
         :: total energy              -10.247511142320 Eh   ::
         :: zero point energy           0.018588478807 Eh   ::
         :: G(RRHO) w/o ZPVE           -0.000358679340 Eh   ::
         :: G(RRHO) contrib.            0.018229799468 Eh   ::
         :::::::::::::::::::::::::::::::::::::::::::::::::::::

optimized geometry written to: xtbopt.xyz


           -------------------------------------------------
          | TOTAL ENERGY              -10.247511142320 Eh   |
          | TOTAL ENTHALPY            -10.228795987497 Eh   |
          | TOTAL FREE ENERGY         -10.229281342852 Eh   |
          | GRADIENT NORM               0.000502063697 Eh/α |
          | HOMO-LUMO GAP               2.779175696331 eV   |
           -------------------------------------------------

------------------------------------------------------------------------
 * finished run on 2020/05/12 at 11:44:40.307     
------------------------------------------------------------------------
 total:
 * wall-time:     0 d,  0 h,  0 min,  0.180 sec
 *  cpu-time:     0 d,  0 h,  0 min,  0.177 sec
 * ratio c/w:     0.983 speedup
 SCF:
 * wall-time:     0 d,  0 h,  0 min,  0.005 sec
 *  cpu-time:     0 d,  0 h,  0 min,  0.005 sec
 * ratio c/w:     1.000 speedup
 ANC optimizer:
 * wall-time:     0 d,  0 h,  0 min,  0.040 sec
 *  cpu-time:     0 d,  0 h,  0 min,  0.040 sec
 * ratio c/w:     0.983 speedup
 numerical hessian:
 * wall-time:     0 d,  0 h,  0 min,  0.113 sec
 *  cpu-time:     0 d,  0 h,  0 min,  0.113 sec
 * ratio c/w:     0.999 speedup

