      -----------------------------------------------------------      
     |                   =====================                   |     
     |                           x T B                           |     
     |                   =====================                   |     
     |                         S. Grimme                         |     
     |          Mulliken Center for Theoretical Chemistry        |     
     |                    University of Bonn                     |     
      -----------------------------------------------------------      

   * xtb version 6.2.2 (9d81278992624c895f80dd42a50cac0aa55982e2) compiled by '@Darwin' on 04/03/2020

   xtb is free software: you can redistribute it and/or modify it under
   the terms of the GNU Lesser General Public License as published by
   the Free Software Foundation, either version 3 of the License, or
   (at your option) any later version.
   
   xtb is distributed in the hope that it will be useful,
   but WITHOUT ANY WARRANTY; without even the implied warranty of
   MERCHANTABILITY or FITNESS FOR A PARTICULAR PURPOSE.  See the
   GNU Lesser General Public License for more details.
   
   Cite this work as:
   * S. Grimme, C. Bannwarth, P. Shushkov, J. Chem. Theory Comput., 2017,
     13, 1989-2009. DOI: 10.1021/acs.jctc.7b00118
   * C. Bannwarth, S. Ehlert and S. Grimme., J. Chem. Theory Comput., 2019,
     15, 1652-1671. DOI: 10.1021/acs.jctc.8b01176
   * P. Pracht, E. Caldeweyher, S. Ehlert, S. Grimme, ChemRxiv, 2019, preprint.
     DOI: 10.26434/chemrxiv.8326202.v1
   
   for DFT-D4:
   * E. Caldeweyher, C. Bannwarth and S. Grimme, J. Chem. Phys., 2017,
     147, 034112. DOI: 10.1063/1.4993215
   * E. Caldeweyher, S. Ehlert, A. Hansen, H. Neugebauer, S. Spicher,
     C. Bannwarth and S. Grimme, J. Chem. Phys., 2019, 150, 154122.
     DOI: 10.1063/1.5090222
   
   for sTDA-xTB:
   * S. Grimme and C. Bannwarth, J. Chem. Phys., 2016, 145, 054103.
     DOI: 10.1063/1.4959605
   
   in the mass-spec context:
   * V. Asgeirsson, C. Bauer and S. Grimme, Chem. Sci., 2017, 8, 4879.
     DOI: 10.1039/c7sc00601b
   
   for metadynamics refer to:
   * S. Grimme, J. Chem. Theory Comput., 2019, 155, 2847-2862
     DOI: 10.1021/acs.jctc.9b00143
   
   with help from (in alphabetical order)
   C. Bannwarth, F. Bohle, G. Brandenburg, E. Caldeweyher, M. Checinski,
   S. Dohm, S. Ehlert, S. Ehrlich, F. März, H. Neugebauer, J. Pisarek,
   P. Pracht, P. Shushkov, and S. Spicher.
   
 * started run on 2020/05/12 at 11:44:22.475     

           -------------------------------------------------
          |                Calculation Setup                |
           -------------------------------------------------

          program call               : xtb --input C4N1_54_S_1.input C4N1_54_S_1.xyz --ohess --molden --namespace C4N1_54_S_1 output.out
          calculation namespace      : C4N1_54_S_1
          coordinate file            : C4N1_54_S_1.xyz
          number of atoms            :                     5
          number of electrons        :                    21
          charge                     :                     0
          spin                       :                   0.5
          first test random number   :      0.79273899753789

   ID    Z sym.   atoms
    1    6 C      1-3, 5
    2    7 N      4

           -------------------------------------------------
          |                 G F N 2 - x T B                 |
           -------------------------------------------------

        Reference                      10.1021/acs.jctc.8b01176
      * Hamiltonian:
        H0-scaling (s, p, d)           1.850000    2.230000    2.230000
        zeta-weighting                 0.500000
      * Dispersion:
        s8                             2.700000
        a1                             0.520000
        a2                             5.000000
        s9                             5.000000
      * Repulsion:
        kExp                           1.500000    1.000000
        rExp                           1.000000
      * Coulomb:
        alpha                          2.000000
        third order                    shell-resolved
        anisotropic                    true
        a3                             3.000000
        a5                             4.000000
        cn-shift                       1.200000
        cn-exp                         4.000000
        max-rad                        5.000000


          ...................................................
          :                      SETUP                      :
          :.................................................:
          :  # basis functions                  20          :
          :  # atomic orbitals                  20          :
          :  # shells                           10          :
          :  # electrons                        21          :
          :  max. iterations                   250          :
          :  Hamiltonian                  GFN2-xTB          :
          :  restarted?                      false          :
          :  GBSA solvation                  false          :
          :  PC potential                    false          :
          :  electronic temp.          300.0000000     K    :
          :  accuracy                    1.0000000          :
          :  -> integral cutoff          0.2500000E+02      :
          :  -> integral neglect         0.1000000E-07      :
          :  -> SCF convergence          0.1000000E-05 Eh   :
          :  -> wf. convergence          0.1000000E-03 e    :
          :  Broyden damping             0.4000000          :
          ...................................................

 iter      E             dE          RMSdq      gap      omega  full diag
   1    -10.8944059 -0.108944E+02  0.994E+00    2.14       0.0  T
   2     -9.6363229  0.125808E+01  0.132E+01    1.53       1.0  T
   3    -10.6299135 -0.993591E+00  0.824E+00    2.08       1.0  T
   4    -11.0044738 -0.374560E+00  0.463E+00    1.69       1.0  T
   5    -11.0698447 -0.653709E-01  0.406E+00    1.88       1.0  T
   6    -11.0789764 -0.913171E-02  0.301E+00    2.01       1.0  T
   7    -11.0786722  0.304258E-03  0.335E+00    1.77       1.0  T
   8    -11.1065313 -0.278591E-01  0.205E+00    1.84       1.0  T
   9    -11.1064956  0.357331E-04  0.208E+00    1.84       1.0  T
  10    -11.1027950  0.370054E-02  0.174E+00    1.86       1.0  T
  11    -11.1019285  0.866500E-03  0.181E+00    1.86       1.0  T
  12    -11.1141998 -0.122712E-01  0.681E-01    1.91       1.0  T
  13    -11.1143719 -0.172071E-03  0.624E-01    1.93       1.0  T
  14    -11.1147992 -0.427373E-03  0.551E-01    1.95       1.0  T
  15    -11.1162317 -0.143247E-02  0.649E-02    1.97       1.0  T
  16    -11.1162212  0.104452E-04  0.769E-02    1.97       1.0  T
  17    -11.1162269 -0.567978E-05  0.657E-02    1.97       1.0  T
  18    -11.1162422 -0.152598E-04  0.258E-02    1.97       1.7  T
  19    -11.1162444 -0.225499E-05  0.123E-02    1.97       3.6  T
  20    -11.1162449 -0.507930E-06  0.558E-03    1.97       8.0  T
  21    -11.1162451 -0.118687E-06  0.117E-03    1.97      38.2  T
  22    -11.1162451 -0.349297E-08  0.599E-04    1.97      74.6  T
  23    -11.1162451 -0.190280E-08  0.129E-04    1.97     346.1  T

   *** convergence criteria satisfied after 23 iterations ***

         #    Occupation            Energy/Eh            Energy/eV
      -------------------------------------------------------------
         1        2.0000           -0.7818914             -21.2763
       ...           ...                  ...                  ...
         5        2.0000           -0.5601249             -15.2418
         6        2.0000           -0.5488743             -14.9356
         7        2.0000           -0.4982186             -13.5572
         8        2.0000           -0.4741136             -12.9013
         9        1.9998           -0.4720124             -12.8441
        10        1.5677           -0.4640718             -12.6280
        11        1.4325           -0.4635547             -12.6140 (HOMO)
        12                         -0.3912178             -10.6456 (LUMO)
        13                         -0.3196980              -8.6994
        14                         -0.1420129              -3.8644
        15                         -0.1388241              -3.7776
        16                          0.0060531               0.1647
       ...                                ...                  ...
        20                          0.2784989               7.5783
      -------------------------------------------------------------
                  HL-Gap            0.0723369 Eh            1.9684 eV
             Fermi-level           -0.4455996 Eh          -12.1254 eV

 SCC (total)                   0 d,  0 h,  0 min,  0.006 sec
 SCC setup                      ...        0 min,  0.000 sec (  1.463%)
 Dispersion                     ...        0 min,  0.000 sec (  0.309%)
 integral evaluation            ...        0 min,  0.001 sec ( 23.740%)
 zeroth order Hamiltonian       ...        0 min,  0.000 sec (  0.406%)
 iterations                     ...        0 min,  0.003 sec ( 44.762%)
 molecular gradient             ...        0 min,  0.002 sec ( 26.215%)
 printout                       ...        0 min,  0.000 sec (  2.861%)

         :::::::::::::::::::::::::::::::::::::::::::::::::::::
         ::                     SUMMARY                     ::
         :::::::::::::::::::::::::::::::::::::::::::::::::::::
         :: total energy             -10.996733804030 Eh    ::
         :: gradient norm              0.161142349123 Eh/a0 ::
         :: HOMO-LUMO gap              1.968387313888 eV    ::
         ::.................................................::
         :: SCC energy               -11.116245070440 Eh    ::
         :: -> isotropic ES           -0.003640608013 Eh    ::
         :: -> anisotropic ES          0.003384352308 Eh    ::
         :: -> anisotropic XC          0.007545509212 Eh    ::
         :: -> dispersion             -0.002526531065 Eh    ::
         :: repulsion energy           0.119511242685 Eh    ::
         :: add. restraining           0.000000000000 Eh    ::
         :::::::::::::::::::::::::::::::::::::::::::::::::::::

      ----------------------------------------------------------- 
     |                   =====================                   |
     |                        A N C O P T                        |
     |                   =====================                   |
     |               Approximate Normal Coordinate               |
     |                Rational Function Optimizer                |
      ----------------------------------------------------------- 

          ...................................................
          :                      SETUP                      :
          :.................................................:
          :   optimization level            normal          :
          :   max. optcycles                   200          :
          :   ANC micro-cycles                  20          :
          :   degrees of freedom                 9          :
          :.................................................:
          :   RF solver                   davidson          :
          :   write xtbopt.log                true          :
          :   linear?                        false          :
          :   energy convergence         0.5000000E-05 Eh   :
          :   grad. convergence          0.1000000E-02 Eh/α :
          :   maximium RF displ.         1.0000000          :
          :   Hlow (freq-cutoff)         0.1000000E-01      :
          :   Hmax (freq-cutoff)         5.0000000          :
          :   S6 in model hess.         20.0000000          :
          ...................................................

generating ANC from model Hessian ...
Using Lindh-Hessian (1995)
 Shifting diagonal of input Hessian by    0.0000000000000000     
 Lowest  eigenvalues of input Hessian
   -0.000000   -0.000000   -0.000000    0.000000    0.000000    0.000000
    0.121013    0.498816    0.673089    0.729769    0.982980    1.118996
    1.241778    1.411631    1.878238
 Highest eigenvalues
    0.729769    0.982980    1.118996    1.241778    1.411631    1.878238


........................................................................
.............................. CYCLE    1 ..............................
........................................................................
   1    -11.1162451 -0.111162E+02  0.335E-05    1.97       0.0  T
   2    -11.1162451  0.103304E-09  0.138E-04    1.97     323.2  T
   3    -11.1162451 -0.474163E-10  0.107E-04    1.97     419.1  T
     SCC iter.                  ...        0 min,  0.001 sec
     gradient                   ...        0 min,  0.001 sec
 * total energy  :   -10.9967338 Eh     change       -0.3191120E-08 Eh
   gradient norm :     0.1611439 Eh/α   predicted     0.0000000E+00 (-100.00%)
   displ. norm   :     0.2234035 α      lambda       -0.3190680E-01
   maximum displ.:     0.1795303 α      in ANC's #2, #5, #1, ...

........................................................................
.............................. CYCLE    2 ..............................
........................................................................
   1    -11.1369506 -0.111370E+02  0.271E+00    2.00       0.0  T
   2    -10.9129282  0.224022E+00  0.503E+00    1.71       1.0  T
   3    -11.0855538 -0.172626E+00  0.268E+00    2.00       1.0  T
   4    -11.1447178 -0.591639E-01  0.126E+00    1.98       1.0  T
   5    -11.1461260 -0.140825E-02  0.848E-01    1.95       1.0  T
   6    -11.1472599 -0.113387E-02  0.629E-01    1.97       1.0  T
   7    -11.1476238 -0.363981E-03  0.444E-01    1.96       1.0  T
   8    -11.1480840 -0.460186E-03  0.222E-01    1.96       1.0  T
   9    -11.1481953 -0.111238E-03  0.156E-01    1.96       1.0  T
  10    -11.1482763 -0.810492E-04  0.376E-02    1.97       1.2  T
  11    -11.1482799 -0.358239E-05  0.102E-02    1.97       4.4  T
  12    -11.1482801 -0.178142E-06  0.577E-03    1.97       7.8  T
  13    -11.1482802 -0.841547E-07  0.679E-04    1.97      65.9  T
  14    -11.1482802  0.458448E-09  0.602E-04    1.97      74.3  T
     SCC iter.                  ...        0 min,  0.002 sec
     gradient                   ...        0 min,  0.001 sec
 * total energy  :   -11.0259165 Eh     change       -0.2918274E-01 Eh
   gradient norm :     0.1260021 Eh/α   predicted    -0.1674962E-01 ( -42.60%)
   displ. norm   :     0.7062077 α      lambda       -0.8314133E-01
   maximum displ.:     0.6249630 α      in ANC's #2, #5, #1, ...

........................................................................
.............................. CYCLE    3 ..............................
........................................................................
   1    -11.1871304 -0.111871E+02  0.432E+00    1.03       0.0  T
   2    -11.1921887 -0.505822E-02  0.261E+00    0.58       1.0  T
   3    -11.1909741  0.121455E-02  0.165E+00    0.98       1.0  T
   4    -11.1986485 -0.767438E-02  0.179E-01    0.79       1.0  T
   5    -11.1985145  0.134009E-03  0.196E-01    0.80       1.0  T
   6    -11.1986991 -0.184600E-03  0.758E-02    0.79       1.0  T
   7    -11.1987272 -0.281357E-04  0.143E-02    0.79       3.1  T
   8    -11.1987275 -0.341869E-06  0.513E-03    0.79       8.7  T
   9    -11.1987275  0.933235E-07  0.503E-03    0.79       8.9  T
  10    -11.1987276 -0.168017E-06  0.702E-04    0.79      63.7  T
  11    -11.1987276 -0.890271E-09  0.134E-04    0.79     333.3  T
     SCC iter.                  ...        0 min,  0.001 sec
     gradient                   ...        0 min,  0.001 sec
 * total energy  :   -11.0448174 Eh     change       -0.1890081E-01 Eh
   gradient norm :     0.1148836 Eh/α   predicted    -0.6230312E-01 ( 229.63%)
   displ. norm   :     0.2331082 α      lambda       -0.2136089E-01
   maximum displ.:     0.2096954 α      in ANC's #2, #5, #6, ...

........................................................................
.............................. CYCLE    4 ..............................
........................................................................
   1    -11.1815880 -0.111816E+02  0.149E+00    1.69       0.0  T
   2    -11.1823908 -0.802735E-03  0.982E-01    1.69       1.0  T
   3    -11.1834811 -0.109031E-02  0.602E-01    1.69       1.0  T
   4    -11.1840754 -0.594283E-03  0.162E-01    1.70       1.0  T
   5    -11.1841727 -0.973156E-04  0.879E-02    1.69       1.0  T
   6    -11.1842157 -0.429844E-04  0.591E-02    1.70       1.0  T
   7    -11.1842313 -0.156251E-04  0.696E-03    1.70       6.4  T
   8    -11.1842314 -0.117797E-06  0.200E-03    1.70      22.4  T
   9    -11.1842314  0.234079E-07  0.219E-03    1.70      20.5  T
  10    -11.1842314 -0.322818E-07  0.402E-04    1.70     111.2  T
  11    -11.1842314 -0.473827E-09  0.397E-05    1.70    1125.2  T
     SCC iter.                  ...        0 min,  0.001 sec
     gradient                   ...        0 min,  0.001 sec
 * total energy  :   -11.0554542 Eh     change       -0.1063680E-01 Eh
   gradient norm :     0.0095215 Eh/α   predicted    -0.1126081E-01 (   5.87%)
   displ. norm   :     0.0097515 α      lambda       -0.8237302E-04
   maximum displ.:     0.0072988 α      in ANC's #6, #1, #5, ...

........................................................................
.............................. CYCLE    5 ..............................
........................................................................
   1    -11.1838283 -0.111838E+02  0.643E-02    1.70       0.0  T
   2    -11.1838249  0.343514E-05  0.505E-02    1.70       1.0  T
   3    -11.1838190  0.589691E-05  0.453E-02    1.70       1.0  T
   4    -11.1838244 -0.547126E-05  0.320E-02    1.70       1.4  T
   5    -11.1838324 -0.798621E-05  0.358E-03    1.70      12.5  T
   6    -11.1838324 -0.253540E-07  0.183E-03    1.70      24.5  T
   7    -11.1838325 -0.392114E-08  0.443E-04    1.70     100.9  T
   8    -11.1838325  0.113045E-08  0.487E-04    1.70      91.8  T
     SCC iter.                  ...        0 min,  0.001 sec
     gradient                   ...        0 min,  0.002 sec
 * total energy  :   -11.0555218 Eh     change       -0.6766687E-04 Eh
   gradient norm :     0.0061062 Eh/α   predicted    -0.4119163E-04 ( -39.13%)
   displ. norm   :     0.0326440 α      lambda       -0.1448136E-03
   maximum displ.:     0.0252384 α      in ANC's #1, #6, #5, ...

........................................................................
.............................. CYCLE    6 ..............................
........................................................................
   1    -11.1832762 -0.111833E+02  0.185E-01    1.72       0.0  T
   2    -11.1832431  0.330482E-04  0.134E-01    1.73       1.0  T
   3    -11.1830556  0.187518E-03  0.174E-01    1.72       1.0  T
   4    -11.1832762 -0.220604E-03  0.459E-02    1.73       1.0  T
   5    -11.1832905 -0.142989E-04  0.788E-03    1.73       5.7  T
   6    -11.1832906 -0.123228E-06  0.385E-03    1.73      11.6  T
   7    -11.1832906 -0.964944E-08  0.160E-03    1.73      28.0  T
   8    -11.1832906 -0.101070E-07  0.910E-04    1.73      49.2  T
   9    -11.1832906 -0.235906E-08  0.167E-04    1.73     268.5  T
     SCC iter.                  ...        0 min,  0.001 sec
     gradient                   ...        0 min,  0.001 sec
 * total energy  :   -11.0556201 Eh     change       -0.9827139E-04 Eh
   gradient norm :     0.0044510 Eh/α   predicted    -0.7248534E-04 ( -26.24%)
   displ. norm   :     0.0597421 α      lambda       -0.1321751E-03
   maximum displ.:     0.0545655 α      in ANC's #1, #5, #6, ...

........................................................................
.............................. CYCLE    7 ..............................
........................................................................
   1    -11.1825106 -0.111825E+02  0.303E-01    1.78       0.0  T
   2    -11.1824516  0.589777E-04  0.203E-01    1.79       1.0  T
   3    -11.1816510  0.800590E-03  0.321E-01    1.77       1.0  T
   4    -11.1825225 -0.871444E-03  0.334E-02    1.79       1.3  T
   5    -11.1825288 -0.628644E-05  0.952E-03    1.79       4.7  T
   6    -11.1825289 -0.125201E-06  0.177E-03    1.79      25.3  T
   7    -11.1825289 -0.139367E-08  0.111E-03    1.79      40.2  T
   8    -11.1825289  0.198402E-08  0.101E-03    1.79      44.5  T
   9    -11.1825289 -0.486255E-08  0.295E-04    1.79     151.8  T
  10    -11.1825289 -0.345690E-09  0.705E-05    1.79     634.1  T
     SCC iter.                  ...        0 min,  0.001 sec
     gradient                   ...        0 min,  0.001 sec
 * total energy  :   -11.0557614 Eh     change       -0.1413070E-03 Eh
   gradient norm :     0.0105798 Eh/α   predicted    -0.6632345E-04 ( -53.06%)
   displ. norm   :     0.0636787 α      lambda       -0.2185936E-03
   maximum displ.:     0.0605366 α      in ANC's #1, #5, #6, ...

........................................................................
.............................. CYCLE    8 ..............................
........................................................................
   1    -11.1816997 -0.111817E+02  0.320E-01    1.81       0.0  T
   2    -11.1816420  0.577696E-04  0.211E-01    1.81       1.0  T
   3    -11.1806903  0.951643E-03  0.342E-01    1.82       1.0  T
   4    -11.1817142 -0.102389E-02  0.246E-02    1.81       1.8  T
   5    -11.1817170 -0.275866E-05  0.101E-02    1.82       4.4  T
   6    -11.1817170 -0.853548E-07  0.212E-03    1.82      21.1  T
   7    -11.1817171 -0.886183E-08  0.896E-04    1.82      49.9  T
   8    -11.1817171  0.765446E-09  0.575E-04    1.82      77.8  T
     SCC iter.                  ...        0 min,  0.001 sec
     gradient                   ...        0 min,  0.001 sec
 * total energy  :   -11.0560291 Eh     change       -0.2677462E-03 Eh
   gradient norm :     0.0161811 Eh/α   predicted    -0.1097404E-03 ( -59.01%)
   displ. norm   :     0.0870917 α      lambda       -0.4549025E-03
   maximum displ.:     0.0825886 α      in ANC's #1, #5, #6, ...

........................................................................
.............................. CYCLE    9 ..............................
........................................................................
   1    -11.1804416 -0.111804E+02  0.455E-01    1.78       0.0  T
   2    -11.1802545  0.187124E-03  0.311E-01    1.79       1.0  T
   3    -11.1785417  0.171280E-02  0.476E-01    1.80       1.0  T
   4    -11.1804883 -0.194669E-02  0.354E-02    1.79       1.3  T
   5    -11.1804936 -0.528341E-05  0.147E-02    1.79       3.1  T
   6    -11.1804938 -0.155138E-06  0.287E-03    1.79      15.6  T
   7    -11.1804938  0.225051E-07  0.295E-03    1.79      15.2  T
   8    -11.1804938 -0.525082E-07  0.926E-04    1.79      48.3  T
   9    -11.1804938 -0.147138E-08  0.367E-04    1.79     121.9  T
     SCC iter.                  ...        0 min,  0.001 sec
     gradient                   ...        0 min,  0.001 sec
 * total energy  :   -11.0565677 Eh     change       -0.5385231E-03 Eh
   gradient norm :     0.0243891 Eh/α   predicted    -0.2291765E-03 ( -57.44%)
   displ. norm   :     0.1046858 α      lambda       -0.8290078E-03
   maximum displ.:     0.0982432 α      in ANC's #1, #2, #5, ...

........................................................................
.............................. CYCLE   10 ..............................
........................................................................
   1    -11.1790987 -0.111791E+02  0.577E-01    1.76       0.0  T
   2    -11.1786536  0.445090E-03  0.410E-01    1.76       1.0  T
   3    -11.1764608  0.219284E-02  0.573E-01    1.77       1.0  T
   4    -11.1792135 -0.275267E-02  0.403E-02    1.76       1.1  T
   5    -11.1792189 -0.537920E-05  0.192E-02    1.77       2.3  T
   6    -11.1792192 -0.385568E-06  0.315E-03    1.77      14.2  T
   7    -11.1792193 -0.218504E-07  0.115E-03    1.77      38.9  T
   8    -11.1792193  0.623791E-09  0.717E-04    1.77      62.4  T
   9    -11.1792193  0.182984E-08  0.722E-04    1.77      61.9  T
     SCC iter.                  ...        0 min,  0.001 sec
     gradient                   ...        0 min,  0.001 sec
 * total energy  :   -11.0574945 Eh     change       -0.9268322E-03 Eh
   gradient norm :     0.0337642 Eh/α   predicted    -0.4190452E-03 ( -54.79%)
   displ. norm   :     0.1033947 α      lambda       -0.1239755E-02
   maximum displ.:     0.0944604 α      in ANC's #1, #2, #5, ...

........................................................................
.............................. CYCLE   11 ..............................
........................................................................
   1    -11.1788089 -0.111788E+02  0.612E-01    1.73       0.0  T
   2    -11.1782348  0.574056E-03  0.436E-01    1.73       1.0  T
   3    -11.1760503  0.218456E-02  0.592E-01    1.74       1.0  T
   4    -11.1789635 -0.291326E-02  0.315E-02    1.74       1.4  T
   5    -11.1789641 -0.621452E-06  0.193E-02    1.74       2.3  T
   6    -11.1789649 -0.731884E-06  0.340E-03    1.74      13.1  T
   7    -11.1789649 -0.340395E-07  0.152E-03    1.74      29.3  T
   8    -11.1789649 -0.407589E-09  0.127E-03    1.74      35.3  T
   9    -11.1789649 -0.839614E-08  0.435E-04    1.74     102.7  T
  10    -11.1789649 -0.588111E-09  0.487E-05    1.74     917.4  T
     SCC iter.                  ...        0 min,  0.001 sec
     gradient                   ...        0 min,  0.001 sec
 * total energy  :   -11.0588188 Eh     change       -0.1324304E-02 Eh
   gradient norm :     0.0402565 Eh/α   predicted    -0.6265045E-03 ( -52.69%)
   displ. norm   :     0.0990750 α      lambda       -0.1566564E-02
   maximum displ.:     0.0874907 α      in ANC's #1, #2, #5, ...

........................................................................
.............................. CYCLE   12 ..............................
........................................................................
   1    -11.1794810 -0.111795E+02  0.631E-01    1.71       0.0  T
   2    -11.1788587  0.622313E-03  0.445E-01    1.71       1.0  T
   3    -11.1766460  0.221271E-02  0.601E-01    1.71       1.0  T
   4    -11.1796554 -0.300938E-02  0.299E-02    1.72       1.5  T
   5    -11.1796555 -0.153358E-06  0.104E-02    1.72       4.3  T
   6    -11.1796558 -0.290234E-06  0.316E-03    1.72      14.2  T
   7    -11.1796558 -0.449225E-07  0.108E-03    1.72      41.6  T
   8    -11.1796558  0.772657E-08  0.121E-03    1.72      36.9  T
   9    -11.1796558 -0.978555E-08  0.153E-04    1.72     293.1  T
  10    -11.1796558 -0.110541E-09  0.498E-05    1.72     897.7  T
     SCC iter.                  ...        0 min,  0.001 sec
     gradient                   ...        0 min,  0.001 sec
 * total energy  :   -11.0604367 Eh     change       -0.1617858E-02 Eh
   gradient norm :     0.0439160 Eh/α   predicted    -0.7909691E-03 ( -51.11%)
   displ. norm   :     0.0958270 α      lambda       -0.1748574E-02
   maximum displ.:     0.0824904 α      in ANC's #1, #2, #5, ...

........................................................................
.............................. CYCLE   13 ..............................
........................................................................
   1    -11.1806666 -0.111807E+02  0.650E-01    1.70       0.0  T
   2    -11.1800543  0.612280E-03  0.450E-01    1.70       1.0  T
   3    -11.1776351  0.241921E-02  0.617E-01    1.70       1.0  T
   4    -11.1808453 -0.321020E-02  0.308E-02    1.70       1.5  T
   5    -11.1808453 -0.643824E-07  0.140E-02    1.71       3.2  T
   6    -11.1808457 -0.391811E-06  0.321E-03    1.70      13.9  T
   7    -11.1808458 -0.450421E-07  0.137E-03    1.70      32.7  T
   8    -11.1808458 -0.321818E-08  0.642E-04    1.70      69.6  T
   9    -11.1808458  0.799840E-10  0.349E-04    1.70     128.2  T
     SCC iter.                  ...        0 min,  0.001 sec
     gradient                   ...        0 min,  0.001 sec
 * total energy  :   -11.0621988 Eh     change       -0.1762147E-02 Eh
   gradient norm :     0.0457596 Eh/α   predicted    -0.8823150E-03 ( -49.93%)
   displ. norm   :     0.0891073 α      lambda       -0.1780711E-02
   maximum displ.:     0.0748803 α      in ANC's #1, #2, #5, ...

........................................................................
.............................. CYCLE   14 ..............................
........................................................................
   1    -11.1823844 -0.111824E+02  0.637E-01    1.69       0.0  T
   2    -11.1819193  0.465089E-03  0.424E-01    1.70       1.0  T
   3    -11.1792993  0.262008E-02  0.611E-01    1.69       1.0  T
   4    -11.1825311 -0.323182E-02  0.316E-02    1.70       1.4  T
   5    -11.1825314 -0.319388E-06  0.185E-02    1.70       2.4  T
   6    -11.1825318 -0.398968E-06  0.408E-03    1.70      11.0  T
   7    -11.1825319 -0.785289E-07  0.160E-03    1.70      27.9  T
   8    -11.1825319 -0.162921E-08  0.102E-03    1.70      43.9  T
   9    -11.1825319 -0.296707E-09  0.843E-04    1.70      53.0  T
  10    -11.1825319 -0.438221E-08  0.700E-05    1.70     639.0  T
     SCC iter.                  ...        0 min,  0.001 sec
     gradient                   ...        0 min,  0.001 sec
 * total energy  :   -11.0639571 Eh     change       -0.1758286E-02 Eh
   gradient norm :     0.0454159 Eh/α   predicted    -0.8974251E-03 ( -48.96%)
   displ. norm   :     0.7286543 α      lambda       -0.1848415E-01
   maximum displ.:     0.5550355 α      in ANC's #1, #2, #8, ...

........................................................................
.............................. CYCLE   15 ..............................
........................................................................
   1    -11.1957959 -0.111958E+02  0.652E+00    1.80       0.0  T
   2    -11.2023841 -0.658818E-02  0.359E+00    2.05       1.0  T
   3    -11.1829608  0.194233E-01  0.184E+00    1.70       1.0  T
   4    -11.1918553 -0.889450E-02  0.124E+00    1.89       1.0  T
   5    -11.2056921 -0.138368E-01  0.203E-01    1.96       1.0  T
   6    -11.2057750 -0.828312E-04  0.865E-02    1.93       1.0  T
   7    -11.2057792 -0.420136E-05  0.138E-02    1.94       3.2  T
   8    -11.2057793 -0.190873E-06  0.621E-03    1.94       7.2  T
   9    -11.2057793  0.366954E-07  0.333E-03    1.94      13.4  T
  10    -11.2057794 -0.813740E-07  0.438E-04    1.94     102.1  T
  11    -11.2057794 -0.720046E-10  0.762E-05    1.94     587.2  T
     SCC iter.                  ...        0 min,  0.001 sec
     gradient                   ...        0 min,  0.001 sec
 * total energy  :   -11.0449928 Eh     change        0.1896425E-01 Eh
   gradient norm :     0.2220131 Eh/α   predicted    -0.1414906E-01 (-174.61%)
   displ. norm   :     0.4131337 α      lambda       -0.8218177E-01
   maximum displ.:     0.3295131 α      in ANC's #2, #1, #8, ...

........................................................................
.............................. CYCLE   16 ..............................
........................................................................
   1    -11.1703548 -0.111704E+02  0.387E+00    2.10       0.0  T
   2    -11.1648799  0.547490E-02  0.244E+00    2.03       1.0  T
   3    -11.0911123  0.737676E-01  0.297E+00    1.99       1.0  T
   4    -11.1726330 -0.815207E-01  0.708E-01    2.12       1.0  T
   5    -11.1761495 -0.351651E-02  0.159E-01    2.08       1.0  T
   6    -11.1761621 -0.126123E-04  0.105E-01    2.10       1.0  T
   7    -11.1761708 -0.866583E-05  0.283E-02    2.09       1.6  T
   8    -11.1761743 -0.354122E-05  0.100E-02    2.10       4.5  T
   9    -11.1761742  0.115423E-06  0.556E-03    2.10       8.1  T
  10    -11.1761744 -0.220489E-06  0.836E-04    2.10      53.5  T
  11    -11.1761744 -0.588695E-09  0.285E-04    2.10     157.0  T
     SCC iter.                  ...        0 min,  0.001 sec
     gradient                   ...        0 min,  0.002 sec
 * total energy  :   -11.0672757 Eh     change       -0.2228289E-01 Eh
   gradient norm :     0.0692621 Eh/α   predicted    -0.4810427E-01 ( 115.88%)
   displ. norm   :     0.4764943 α      lambda       -0.1502861E-01
   maximum displ.:     0.4205946 α      in ANC's #1, #6, #5, ...

........................................................................
.............................. CYCLE   17 ..............................
........................................................................
   1    -11.2296565 -0.112297E+02  0.303E+00    2.07       0.0  T
   2    -11.2215138  0.814268E-02  0.217E+00    1.80       1.0  T
   3    -11.2002867  0.212271E-01  0.218E+00    1.86       1.0  T
   4    -11.2345845 -0.342977E-01  0.443E-01    1.95       1.0  T
   5    -11.2356061 -0.102167E-02  0.940E-02    1.87       1.0  T
   6    -11.2356081 -0.195920E-05  0.291E-02    1.88       1.5  T
   7    -11.2356093 -0.118888E-05  0.826E-03    1.88       5.4  T
   8    -11.2356093  0.204010E-08  0.514E-03    1.88       8.7  T
   9    -11.2356093  0.344175E-08  0.395E-03    1.88      11.3  T
  10    -11.2356094 -0.755428E-07  0.500E-04    1.88      89.4  T
  11    -11.2356094 -0.126322E-09  0.513E-05    1.88     872.4  T
     SCC iter.                  ...        0 min,  0.001 sec
     gradient                   ...        0 min,  0.001 sec
 * total energy  :   -11.0519667 Eh     change        0.1530898E-01 Eh
   gradient norm :     0.1773047 Eh/α   predicted    -0.9220406E-02 (-160.23%)
   displ. norm   :     0.3180726 α      lambda       -0.3334181E-01
   maximum displ.:     0.2823290 α      in ANC's #1, #6, #8, ...

........................................................................
.............................. CYCLE   18 ..............................
........................................................................
   1    -11.1947046 -0.111947E+02  0.201E+00    1.87       0.0  T
   2    -11.1885320  0.617260E-02  0.156E+00    2.05       1.0  T
   3    -11.1799576  0.857444E-02  0.151E+00    1.96       1.0  T
   4    -11.1968880 -0.169304E-01  0.441E-01    1.94       1.0  T
   5    -11.1980210 -0.113303E-02  0.707E-02    2.01       1.0  T
   6    -11.1980212 -0.193359E-06  0.274E-02    2.01       1.6  T
   7    -11.1980218 -0.650444E-06  0.928E-03    2.01       4.8  T
   8    -11.1980215  0.339627E-06  0.102E-02    2.01       4.4  T
   9    -11.1980222 -0.645419E-06  0.253E-03    2.01      17.7  T
  10    -11.1980222 -0.920017E-08  0.306E-04    2.01     146.0  T
  11    -11.1980222 -0.620002E-10  0.470E-05    2.01     950.9  T
     SCC iter.                  ...        0 min,  0.001 sec
     gradient                   ...        0 min,  0.001 sec
 * total energy  :   -11.0691902 Eh     change       -0.1722348E-01 Eh
   gradient norm :     0.0143544 Eh/α   predicted    -0.1835749E-01 (   6.58%)
   displ. norm   :     0.0875994 α      lambda       -0.9593145E-03
   maximum displ.:     0.0809475 α      in ANC's #1, #5, #6, ...

........................................................................
.............................. CYCLE   19 ..............................
........................................................................
   1    -11.1951455 -0.111951E+02  0.643E-01    2.11       0.0  T
   2    -11.1951451  0.463782E-06  0.381E-01    2.16       1.0  T
   3    -11.1939593  0.118575E-02  0.399E-01    2.11       1.0  T
   4    -11.1949834 -0.102407E-02  0.184E-01    2.12       1.0  T
   5    -11.1952864 -0.303050E-03  0.186E-02    2.14       2.4  T
   6    -11.1952865 -0.750411E-07  0.474E-03    2.14       9.4  T
   7    -11.1952865 -0.345275E-07  0.133E-03    2.14      33.7  T
   8    -11.1952865  0.529905E-08  0.111E-03    2.14      40.2  T
   9    -11.1952865 -0.631609E-08  0.454E-04    2.14      98.6  T
  10    -11.1952865 -0.110764E-08  0.389E-05    2.14    1148.3  T
     SCC iter.                  ...        0 min,  0.001 sec
     gradient                   ...        0 min,  0.002 sec
 * total energy  :   -11.0699153 Eh     change       -0.7251091E-03 Eh
   gradient norm :     0.0176102 Eh/α   predicted    -0.4833398E-03 ( -33.34%)
   displ. norm   :     0.1170374 α      lambda       -0.8994229E-03
   maximum displ.:     0.1007064 α      in ANC's #1, #5, #8, ...

........................................................................
.............................. CYCLE   20 ..............................
........................................................................
   1    -11.1948673 -0.111949E+02  0.900E-01    2.28       0.0  T
   2    -11.1950282 -0.160887E-03  0.520E-01    2.34       1.0  T
   3    -11.1948793  0.148920E-03  0.263E-01    2.27       1.0  T
   4    -11.1949894 -0.110150E-03  0.118E-01    2.31       1.0  T
   5    -11.1951153 -0.125863E-03  0.328E-02    2.31       1.4  T
   6    -11.1951200 -0.471097E-05  0.113E-02    2.31       4.0  T
   7    -11.1951201 -0.105230E-06  0.187E-03    2.31      23.9  T
   8    -11.1951201  0.103891E-07  0.141E-03    2.31      31.8  T
   9    -11.1951201 -0.118086E-07  0.454E-04    2.31      98.6  T
  10    -11.1951201 -0.114032E-08  0.803E-05    2.31     557.1  T
     SCC iter.                  ...        0 min,  0.001 sec
     gradient                   ...        0 min,  0.002 sec
 * total energy  :   -11.0704012 Eh     change       -0.4858609E-03 Eh
   gradient norm :     0.0166571 Eh/α   predicted    -0.4558701E-03 (  -6.17%)
   displ. norm   :     0.0172916 α      lambda       -0.2146098E-03
   maximum displ.:     0.0120885 α      in ANC's #5, #8, #6, ...
 * RMSD in coord.:     0.7735832 α      energy gain  -0.7366739E-01 Eh

generating ANC from model Hessian ...
Using Lindh-Hessian (1995)
 Shifting diagonal of input Hessian by    0.0000000000000000     
 Lowest  eigenvalues of input Hessian
   -0.000000   -0.000000   -0.000000    0.000000    0.000000    0.000000
    0.296913    0.563057    0.800349    0.868370    0.996969    1.087486
    1.253028    1.554201    1.696138
 Highest eigenvalues
    0.868370    0.996969    1.087486    1.253028    1.554201    1.696138


........................................................................
.............................. CYCLE   21 ..............................
........................................................................
   1    -11.1973940 -0.111974E+02  0.120E-01    2.34       0.0  T
   2    -11.1973890  0.508371E-05  0.773E-02    2.34       1.0  T
   3    -11.1973118  0.771621E-04  0.965E-02    2.34       1.0  T
   4    -11.1973951 -0.832869E-04  0.238E-02    2.34       1.9  T
   5    -11.1973990 -0.389713E-05  0.404E-03    2.34      11.1  T
   6    -11.1973990 -0.189956E-07  0.208E-03    2.34      21.5  T
   7    -11.1973990 -0.526212E-08  0.369E-04    2.34     121.2  T
   8    -11.1973990  0.748861E-09  0.357E-04    2.34     125.1  T
     SCC iter.                  ...        0 min,  0.001 sec
     gradient                   ...        0 min,  0.001 sec
 * total energy  :   -11.0705795 Eh     change       -0.1782639E-03 Eh
   gradient norm :     0.0110727 Eh/α   predicted     0.0000000E+00 (-100.00%)
   displ. norm   :     0.0139530 α      lambda       -0.1364150E-03
   maximum displ.:     0.0086520 α      in ANC's #1, #4, #3, ...

........................................................................
.............................. CYCLE   22 ..............................
........................................................................
   1    -11.1985780 -0.111986E+02  0.111E-01    2.36       0.0  T
   2    -11.1985691  0.887027E-05  0.734E-02    2.37       1.0  T
   3    -11.1984820  0.871299E-04  0.101E-01    2.36       1.0  T
   4    -11.1985813 -0.992619E-04  0.827E-03    2.36       5.4  T
   5    -11.1985815 -0.267471E-06  0.369E-03    2.36      12.1  T
   6    -11.1985815 -0.245565E-07  0.467E-04    2.36      95.7  T
   7    -11.1985815 -0.636433E-10  0.231E-04    2.36     193.5  T
     SCC iter.                  ...        0 min,  0.001 sec
     gradient                   ...        0 min,  0.001 sec
 * total energy  :   -11.0706915 Eh     change       -0.1120222E-03 Eh
   gradient norm :     0.0067374 Eh/α   predicted    -0.6822048E-04 ( -39.10%)
   displ. norm   :     0.0329498 α      lambda       -0.1981400E-03
   maximum displ.:     0.0233021 α      in ANC's #1, #4, #3, ...

........................................................................
.............................. CYCLE   23 ..............................
........................................................................
   1    -11.2001029 -0.112001E+02  0.268E-01    2.42       0.0  T
   2    -11.2000836  0.193318E-04  0.163E-01    2.43       1.0  T
   3    -11.1996647  0.418841E-03  0.217E-01    2.42       1.0  T
   4    -11.2001101 -0.445362E-03  0.360E-02    2.42       1.2  T
   5    -11.2001186 -0.849507E-05  0.792E-03    2.43       5.6  T
   6    -11.2001186 -0.558629E-07  0.107E-03    2.43      41.9  T
   7    -11.2001186 -0.124738E-08  0.582E-04    2.43      76.8  T
   8    -11.2001186  0.925509E-09  0.475E-04    2.43      94.1  T
     SCC iter.                  ...        0 min,  0.001 sec
     gradient                   ...        0 min,  0.001 sec
 * total energy  :   -11.0708036 Eh     change       -0.1120883E-03 Eh
   gradient norm :     0.0050855 Eh/α   predicted    -0.9917590E-04 ( -11.52%)
   displ. norm   :     0.0116378 α      lambda       -0.2993586E-04
   maximum displ.:     0.0092002 α      in ANC's #1, #3, #4, ...

........................................................................
.............................. CYCLE   24 ..............................
........................................................................
   1    -11.1998861 -0.111999E+02  0.902E-02    2.44       0.0  T
   2    -11.1998875 -0.140503E-05  0.511E-02    2.45       1.0  T
   3    -11.1998862  0.129999E-05  0.249E-02    2.44       1.8  T
   4    -11.1998877 -0.157933E-05  0.797E-03    2.45       5.6  T
   5    -11.1998882 -0.454558E-06  0.371E-03    2.45      12.0  T
   6    -11.1998883 -0.792704E-07  0.107E-03    2.45      41.7  T
   7    -11.1998883 -0.190088E-08  0.283E-04    2.45     158.2  T
   8    -11.1998883 -0.143162E-09  0.206E-04    2.45     216.7  T
     SCC iter.                  ...        0 min,  0.001 sec
     gradient                   ...        0 min,  0.001 sec
 * total energy  :   -11.0708282 Eh     change       -0.2467903E-04 Eh
   gradient norm :     0.0043476 Eh/α   predicted    -0.1497047E-04 ( -39.34%)
   displ. norm   :     0.0236575 α      lambda       -0.5565459E-04
   maximum displ.:     0.0186253 α      in ANC's #1, #3, #5, ...

........................................................................
.............................. CYCLE   25 ..............................
........................................................................
   1    -11.1989322 -0.111989E+02  0.174E-01    2.47       0.0  T
   2    -11.1989351 -0.290152E-05  0.104E-01    2.48       1.0  T
   3    -11.1988851  0.500331E-04  0.895E-02    2.47       1.0  T
   4    -11.1989088 -0.236967E-04  0.615E-02    2.47       1.0  T
   5    -11.1989436 -0.348605E-04  0.524E-03    2.47       8.5  T
   6    -11.1989437 -0.283615E-07  0.254E-03    2.47      17.6  T
   7    -11.1989437 -0.362005E-08  0.437E-04    2.47     102.4  T
   8    -11.1989437  0.798053E-09  0.391E-04    2.47     114.4  T
     SCC iter.                  ...        0 min,  0.001 sec
     gradient                   ...        0 min,  0.001 sec
 * total energy  :   -11.0708601 Eh     change       -0.3183461E-04 Eh
   gradient norm :     0.0023185 Eh/α   predicted    -0.2784131E-04 ( -12.54%)
   displ. norm   :     0.0057241 α      lambda       -0.8551335E-05
   maximum displ.:     0.0038727 α      in ANC's #1, #3, #4, ...

........................................................................
.............................. CYCLE   26 ..............................
........................................................................
   1    -11.1987312 -0.111987E+02  0.429E-02    2.47       0.0  T
   2    -11.1987310  0.194831E-06  0.268E-02    2.47       1.7  T
   3    -11.1987241  0.686024E-05  0.295E-02    2.47       1.5  T
   4    -11.1987306 -0.654777E-05  0.112E-02    2.47       4.0  T
   5    -11.1987317 -0.106384E-05  0.142E-03    2.47      31.6  T
   6    -11.1987317 -0.289250E-08  0.690E-04    2.47      64.8  T
   7    -11.1987317  0.760121E-10  0.230E-04    2.47     194.2  T
     SCC iter.                  ...        0 min,  0.001 sec
     gradient                   ...        0 min,  0.001 sec
 * total energy  :   -11.0708670 Eh     change       -0.6912082E-05 Eh
   gradient norm :     0.0019994 Eh/α   predicted    -0.4277130E-05 ( -38.12%)
   displ. norm   :     0.0168350 α      lambda       -0.1455306E-04
   maximum displ.:     0.0109106 α      in ANC's #1, #4, #3, ...

........................................................................
.............................. CYCLE   27 ..............................
........................................................................
   1    -11.1985068 -0.111985E+02  0.136E-01    2.47       0.0  T
   2    -11.1985081 -0.137850E-05  0.790E-02    2.48       1.0  T
   3    -11.1984881  0.200177E-04  0.518E-02    2.47       1.0  T
   4    -11.1985000 -0.119034E-04  0.321E-02    2.47       1.4  T
   5    -11.1985097 -0.968372E-05  0.449E-03    2.47      10.0  T
   6    -11.1985097 -0.289494E-07  0.199E-03    2.47      22.5  T
   7    -11.1985097 -0.343702E-08  0.342E-04    2.47     130.6  T
   8    -11.1985097  0.404823E-09  0.282E-04    2.47     158.6  T
     SCC iter.                  ...        0 min,  0.001 sec
     gradient                   ...        0 min,  0.001 sec
 * total energy  :   -11.0708759 Eh     change       -0.8955171E-05 Eh
   gradient norm :     0.0017798 Eh/α   predicted    -0.7278173E-05 ( -18.73%)
   displ. norm   :     0.0023651 α      lambda       -0.2424169E-05
   maximum displ.:     0.0013617 α      in ANC's #8, #5, #3, ...

........................................................................
.............................. CYCLE   28 ..............................
........................................................................
   1    -11.1987222 -0.111987E+02  0.161E-02    2.48       0.0  T
   2    -11.1987214  0.834408E-06  0.157E-02    2.48       2.9  T
   3    -11.1987220 -0.648160E-06  0.921E-03    2.48       4.9  T
   4    -11.1987225 -0.454356E-06  0.293E-03    2.48      15.2  T
   5    -11.1987225 -0.441192E-07  0.703E-04    2.48      63.6  T
   6    -11.1987225 -0.159055E-10  0.276E-04    2.48     162.0  T
     SCC iter.                  ...        0 min,  0.001 sec
     gradient                   ...        0 min,  0.001 sec
 * total energy  :   -11.0708782 Eh     change       -0.2221510E-05 Eh
   gradient norm :     0.0004463 Eh/α   predicted    -0.1212948E-05 ( -45.40%)
   displ. norm   :     0.0016297 α      lambda       -0.2865175E-06
   maximum displ.:     0.0015343 α      in ANC's #1, #8, #4, ...

   *** GEOMETRY OPTIMIZATION CONVERGED AFTER 28 ITERATIONS ***

------------------------------------------------------------------------
 total energy gain   :        -0.0741444 Eh      -46.5263 kcal/mol
 total RMSD          :         0.7900418 a0        0.4181 Å
 total power (kW/mol):        -6.9523570 (step)-1775.8240 (real)
------------------------------------------------------------------------

 ANCopt (total)                0 d,  0 h,  0 min,  0.110 sec
 optimizer setup                ...        0 min,  0.000 sec (  0.061%)
 model hessian                  ...        0 min,  0.000 sec (  0.140%)
 ANC generation                 ...        0 min,  0.000 sec (  0.098%)
 coordinate transformation      ...        0 min,  0.000 sec (  0.051%)
 single point calculation       ...        0 min,  0.107 sec ( 97.821%)
 optimization log               ...        0 min,  0.001 sec (  0.589%)
 hessian update                 ...        0 min,  0.000 sec (  0.051%)
 rational function              ...        0 min,  0.001 sec (  0.526%)

================
 final structure:
================
5
 xtb: 6.2.2 (9d81278992624c895f80dd42a50cac0aa55982e2)
C         1.01659930725764   -0.07278099653350    0.38439055478364
C         0.17874902415338    0.93316102614484   -0.20930434937824
C        -0.93776441282466    0.09304623764612   -0.54571000711375
N        -0.40005340047254   -0.10323399145247    0.82164856924321
C         0.14246948188618   -0.85019327580499   -0.45102476753486

 Bond Distances (Angstroems)
 ---------------------------
C1-C2=1.4375         C1-N4=1.4829         C1-C5=1.4375         C2-C1=1.4375         C2-C3=1.4372         C2-N4=1.5723         
C2-C5=1.8000         C3-C2=1.4372         C3-N4=1.4823         C3-C5=1.4372         N4-C1=1.4829         N4-C2=1.5723         
N4-C3=1.4823         N4-C5=1.5723         C5-C1=1.4375         C5-C2=1.8000         C5-C3=1.4372         C5-N4=1.5723         
 C  C  Rav=1.5099 sigma=0.1451  Rmin=1.4372  Rmax=1.8000     5
 N  C  Rav=1.5274 sigma=0.0448  Rmin=1.4823  Rmax=1.5723     4

 selected bond angles (degree)
 --------------------
N4-C1-C2= 65.12                C5-C1-C2= 77.53                C5-C1-N4= 65.12                C3-C2-C1= 98.07                
N4-C2-C1= 58.83                N4-C2-C3= 58.81                C5-C2-C1= 51.24                C5-C2-C3= 51.23                
C5-C2-N4= 55.08                N4-C3-C2= 65.15                C5-C3-C2= 77.54                C5-C3-N4= 65.15                
C2-N4-C1= 56.04                C3-N4-C1= 94.12                C3-N4-C2= 56.04                C5-N4-C1= 56.04                
C5-N4-C2= 69.84                C5-N4-C3= 56.04                C2-C5-C1= 51.24                C3-C5-C1= 98.07                
C3-C5-C2= 51.23                N4-C5-C1= 58.83                N4-C5-C2= 55.08                N4-C5-C3= 58.81                

 selected dihedral angles (degree)
 ---------------------------------
C3-C2-C1-N4=314.19            C3-C2-C1-C5= 22.33            N4-C2-C1-C5= 68.14            C5-C2-C1-N4=291.86            
N4-C3-C2-C1= 45.83            N4-C3-C2-C5= 68.16            C5-C3-C2-C1=337.67            C5-C3-C2-N4=291.84            
C2-N4-C1-C5=272.72            C3-N4-C1-C2= 43.64            C3-N4-C1-C5=316.36            C5-N4-C1-C2= 87.28            
C1-N4-C2-C3=123.91            C1-N4-C2-C5= 61.96            C3-N4-C2-C1=236.09            C3-N4-C2-C5=298.05            
C5-N4-C2-C1=298.04            C5-N4-C2-C3= 61.95            C1-N4-C3-C2=316.36            C1-N4-C3-C5= 43.64            
C2-N4-C3-C5= 87.28            C5-N4-C3-C2=272.72            C2-C5-C1-N4= 68.14            C3-C5-C1-C2=337.67            
C3-C5-C1-N4= 45.81            N4-C5-C1-C2=291.86            C1-C5-C2-C3=208.85            C1-C5-C2-N4=284.41            
C3-C5-C2-C1=151.15            C3-C5-C2-N4= 75.57            N4-C5-C2-C1= 75.59            N4-C5-C2-C3=284.43            
C1-C5-C3-C2= 22.33            C1-C5-C3-N4=314.17            C2-C5-C3-N4=291.84            N4-C5-C3-C2= 68.16            
C1-C5-N4-C2= 61.96            C1-C5-N4-C3=123.91            C2-C5-N4-C1=298.04            C2-C5-N4-C3= 61.95            
C3-C5-N4-C1=236.09            C3-C5-N4-C2=298.05            
           -------------------------------------------------
          |                Final Singlepoint                |
           -------------------------------------------------

          ...................................................
          :                      SETUP                      :
          :.................................................:
          :  # basis functions                  20          :
          :  # atomic orbitals                  20          :
          :  # shells                           10          :
          :  # electrons                        21          :
          :  max. iterations                   250          :
          :  Hamiltonian                  GFN2-xTB          :
          :  restarted?                      false          :
          :  GBSA solvation                  false          :
          :  PC potential                    false          :
          :  electronic temp.          300.0000000     K    :
          :  accuracy                    1.0000000          :
          :  -> integral cutoff          0.2500000E+02      :
          :  -> integral neglect         0.1000000E-07      :
          :  -> SCF convergence          0.1000000E-05 Eh   :
          :  -> wf. convergence          0.1000000E-03 e    :
          :  Broyden damping             0.4000000          :
          ...................................................

 iter      E             dE          RMSdq      gap      omega  full diag
   1    -11.1987225 -0.111987E+02  0.786E-05    2.48       0.0  T
   2    -11.1987225  0.112463E-09  0.133E-04    2.48     335.3  T
   3    -11.1987225 -0.145587E-09  0.318E-05    2.48    1405.3  T

   *** convergence criteria satisfied after 3 iterations ***

         #    Occupation            Energy/Eh            Energy/eV
      -------------------------------------------------------------
         1        2.0000           -0.7940901             -21.6083
       ...           ...                  ...                  ...
         5        2.0000           -0.5506741             -14.9846
         6        2.0000           -0.5398920             -14.6912
         7        2.0000           -0.5042115             -13.7203
         8        2.0000           -0.5014937             -13.6463
         9        2.0000           -0.4972382             -13.5305
        10        2.0000           -0.4770966             -12.9825
        11        1.0000           -0.4216301             -11.4731 (HOMO)
        12                         -0.3304561              -8.9922 (LUMO)
        13                         -0.2454524              -6.6791
        14                         -0.2378174              -6.4713
        15                         -0.0967705              -2.6333
        16                         -0.0619609              -1.6860
       ...                                ...                  ...
        20                          0.4132017              11.2438
      -------------------------------------------------------------
                  HL-Gap            0.0911739 Eh            2.4810 eV
             Fermi-level           -0.4127032 Eh          -11.2302 eV

 SCC (total)                   0 d,  0 h,  0 min,  0.003 sec
 SCC setup                      ...        0 min,  0.000 sec (  1.511%)
 Dispersion                     ...        0 min,  0.000 sec (  0.266%)
 integral evaluation            ...        0 min,  0.001 sec ( 38.817%)
 zeroth order Hamiltonian       ...        0 min,  0.000 sec (  0.453%)
 iterations                     ...        0 min,  0.000 sec ( 11.744%)
 molecular gradient             ...        0 min,  0.001 sec ( 44.466%)
 printout                       ...        0 min,  0.000 sec (  2.447%)

         :::::::::::::::::::::::::::::::::::::::::::::::::::::
         ::                     SUMMARY                     ::
         :::::::::::::::::::::::::::::::::::::::::::::::::::::
         :: total energy             -11.070878169095 Eh    ::
         :: gradient norm              0.000448427673 Eh/a0 ::
         :: HOMO-LUMO gap              2.480968792773 eV    ::
         ::.................................................::
         :: SCC energy               -11.198722507481 Eh    ::
         :: -> isotropic ES           -0.004811270988 Eh    ::
         :: -> anisotropic ES          0.005321103720 Eh    ::
         :: -> anisotropic XC          0.006966926899 Eh    ::
         :: -> dispersion             -0.002479601319 Eh    ::
         :: repulsion energy           0.127844324477 Eh    ::
         :: add. restraining           0.000000000000 Eh    ::
         :::::::::::::::::::::::::::::::::::::::::::::::::::::

           ------------------------------------------------- 
          |                Numerical Hessian                |
           ------------------------------------------------- 
step length          :   0.00500
SCC accuracy         :   0.30000
Hessian scale factor :   1.00000
frozen atoms in %    :   0.00000    0
RMS gradient         :   0.00045
estimated CPU  time      0.00 min
estimated wall time      0.00 min

writing file <hessian>.

 projected vibrational frequencies (cm-1)
eigval :       -0.00    -0.00     0.00     0.00     0.00     0.00
eigval :      298.47   431.59   698.53   774.11  1041.08  1049.60
eigval :     1080.65  1323.50  1421.76
           -------------------------------------------------
          |                Property Printout                |
           -------------------------------------------------

    * Orbital Energies and Occupations

         #    Occupation            Energy/Eh            Energy/eV
      -------------------------------------------------------------
         1        2.0000           -0.7940901             -21.6083
         2        2.0000           -0.6840161             -18.6130
         3        2.0000           -0.6660991             -18.1255
         4        2.0000           -0.6416504             -17.4602
         5        2.0000           -0.5506741             -14.9846
         6        2.0000           -0.5398920             -14.6912
         7        2.0000           -0.5042115             -13.7203
         8        2.0000           -0.5014937             -13.6463
         9        2.0000           -0.4972382             -13.5305
        10        2.0000           -0.4770966             -12.9825
        11        1.0000           -0.4216300             -11.4731 (HOMO)
        12                         -0.3304561              -8.9922 (LUMO)
        13                         -0.2454523              -6.6791
        14                         -0.2378174              -6.4713
        15                         -0.0967705              -2.6333
        16                         -0.0619609              -1.6860
        17                          0.0807997               2.1987
        18                          0.0932561               2.5376
        19                          0.2317197               6.3054
        20                          0.4132017              11.2438
      -------------------------------------------------------------
                  HL-Gap            0.0911739 Eh            2.4810 eV
             Fermi-level           -0.4127032 Eh          -11.2302 eV

     #   Z        covCN         q      C6AA      α(0)
     1   6 C      3.043     0.026    27.378     8.582
     2   6 C      3.690     0.015    20.499     6.480
     3   6 C      3.043     0.026    27.373     8.581
     4   7 N      3.594    -0.084    22.859     7.101
     5   6 C      3.690     0.015    20.499     6.480

 Mol. C6AA /au·bohr⁶  :        589.088145
 Mol. C8AA /au·bohr⁸  :      16198.816352
 Mol. α(0) /au        :         37.223349


Wiberg/Mayer (AO) data.
largest (>0.10) Wiberg bond orders for each atom
          total WBO             WBO to atom ...
     1  C   2.945        C    2 0.964    C    5 0.964    N    4 0.792    C    3 0.224
     2  C   3.216        C    1 0.964    C    3 0.964    N    4 0.697    C    5 0.591
     3  C   2.945        C    2 0.964    C    5 0.964    N    4 0.793    C    1 0.224
     4  N   2.978        C    3 0.793    C    1 0.792    C    5 0.697    C    2 0.697
     5  C   3.216        C    1 0.964    C    3 0.964    N    4 0.697    C    2 0.591

MOs/occ written to file <molden.input>


molecular dipole:
                 x           y           z       tot (Debye)
 q only:        0.076       0.020      -0.157
   full:       -0.013      -0.003       0.027       0.076
molecular quadrupole (traceless):
                xx          xy          yy          xz          yz          zz
 q only:        0.165      -0.037       0.092       0.266       0.042      -0.256
  q+dip:        0.297      -0.063       0.099       0.436       0.059      -0.396
   full:       -0.378       0.055       0.261      -0.306       0.026       0.117

           -------------------------------------------------
          |                Geometry Summary                 |
           -------------------------------------------------

      molecular mass/u    :       62.0496468
   center of mass at/Å    :       -0.0128685      -0.0033208       0.0264302
  moments of inertia/u·Å² :        0.3472623E+02   0.4356629E+02   0.4775601E+02
rotational constants/cm⁻¹ :        0.4854438E+00   0.3869421E+00   0.3529950E+00

 * 6 selected distances

     #   Z        #   Z                                     value/Å
     1   6 C      2   6 C                                 1.4374930
     2   6 C      3   6 C                                 1.4372070 (min)
     1   6 C      4   7 N                                 1.4829116 (max)
     3   6 C      4   7 N                                 1.4823389
     1   6 C      5   6 C                                 1.4374949
     3   6 C      5   6 C                                 1.4372096

 * 2 distinct bonds (by element types)

   Z      Z             #   av. dist./Å        max./Å        min./Å
   6 C    6 C           4     1.4373511     1.4374949     1.4372070
   6 C    7 N           2     1.4826252     1.4829116     1.4823389

           -------------------------------------------------
          |               Frequency Printout                |
           -------------------------------------------------
 projected vibrational frequencies (cm-1)
eigval :       -0.00    -0.00     0.00     0.00     0.00     0.00
eigval :      298.47   431.59   698.53   774.11  1041.08  1049.60
eigval :     1080.65  1323.50  1421.76
Molecule has the following symmetry elements: (C2) 2*(sigma) 
It seems to be the C2v point group
 reduced masses (amu)
   1: 12.96   2: 12.07   3: 12.13   4: 12.73   5: 12.43   6: 12.24   7: 12.01   8: 12.74
   9: 12.97  10: 12.02  11: 13.38  12: 12.01  13: 12.18  14: 12.09  15: 12.18
 IR intensities (amu)
   1:  0.07   2:  0.01   3:  0.02   4:  0.04   5:  0.03   6:  0.01   7:  0.29   8:  1.08
   9:  0.12  10:  0.19  11:  1.04  12:  0.04  13:  1.18  14:  1.15  15:  0.15
 Raman intensities (amu)
   1:  0.00   2:  0.00   3:  0.00   4:  0.00   5:  0.00   6:  0.00   7:  0.00   8:  0.00
   9:  0.00  10:  0.00  11:  0.00  12:  0.00  13:  0.00  14:  0.00  15:  0.00
 output can be read by thermo (or use thermo option).
 writing <g98.out> molden fake output.
 recommended (thermochemical) frequency scaling factor: 1.0
           -------------------------------------------------
          |             Thermodynamic Functions             |
           -------------------------------------------------

c2v symmetry found (for desy threshold:  0.10E+00) used in thermo

          ...................................................
          :                      SETUP                      :
          :.................................................:
          :  # frequencies                           9      :
          :  # imaginary freq.                       0      :
          :  linear?                             false      :
          :  only rotor calc.                    false      :
          :  symmetry                              c2v      :
          :  rotational number                       2      :
          :  scaling factor                  1.0000000      :
          :  rotor cutoff                   50.0000000 cm⁻¹ :
          :  imag. cutoff                  -20.0000000 cm⁻¹ :
          :.................................................:

    mode    ω/cm⁻¹     T·S(HO)/kcal·mol⁻¹    T·S(FR)/kcal·mol⁻¹   T·S(vib)
   ------------------------------------------------------------------------
       1    298.47    -0.00000 ( 99.92%)     0.01606 (  0.08%)     0.00001
   ------------------------------------------------------------------------

   temp. (K)  partition function   enthalpy   heat capacity  entropy
                                   cal/mol     cal/K/mol   cal/K/mol   J/K/mol
 298.15  VIB   1.62                  631.967      5.797      3.081
         ROT  0.103E+05              888.752      2.981     21.337
         INT  0.167E+05             1520.720      8.778     24.418
         TR   0.473E+27             1481.254      4.968     38.278
         TOT                        3001.9735    13.7460    62.6957   262.3188

   temp. (K)  partition function   enthalpy   heat capacity  entropy
                                   cal/mol     cal/K/mol   cal/K/mol   J/K/mol
 120.00  VIB   1.03                   32.225      1.108      0.337
         ROT  0.262E+04              357.707      2.981     18.624
         INT  0.271E+04              389.932      4.088     18.961
         TR   0.121E+27              596.178      4.968     33.759
         TOT                         986.1097     9.0566    52.7197   220.5790

   temp. (K)  partition function   enthalpy   heat capacity  entropy
                                   cal/mol     cal/K/mol   cal/K/mol   J/K/mol
 100.00  VIB   1.02                   14.413      0.681      0.176
         ROT  0.199E+04              298.089      2.981     18.080
         INT  0.203E+04              312.502      3.662     18.256
         TR   0.919E+26              496.815      4.968     32.853
         TOT                         809.3169     8.6303    51.1095   213.8423

   temp. (K)  partition function   enthalpy   heat capacity  entropy
                                   cal/mol     cal/K/mol   cal/K/mol   J/K/mol
  80.00  VIB   1.01                    4.533      0.322      0.067
         ROT  0.143E+04              238.471      2.981     17.415
         INT  0.143E+04              243.005      3.303     17.482
         TR   0.657E+26              397.452      4.968     31.745
         TOT                         640.4566     8.2711    49.2274   205.9675

   temp. (K)  partition function   enthalpy   heat capacity  entropy
                                   cal/mol     cal/K/mol   cal/K/mol   J/K/mol
  60.00  VIB   1.00                    0.705      0.086      0.013
         ROT   927.                  178.853      2.981     16.557
         INT   928.                  179.559      3.067     16.571
         TR   0.427E+26              298.089      4.968     30.317
         TOT                         477.6476     8.0353    46.8876   196.1777

   temp. (K)  partition function   enthalpy   heat capacity  entropy
                                   cal/mol     cal/K/mol   cal/K/mol   J/K/mol
  40.00  VIB   1.00                    0.019      0.005      0.000
         ROT   505.                  119.236      2.981     15.349
         INT   505.                  119.254      2.986     15.349
         TR   0.232E+26              198.726      4.968     28.303
         TOT                         317.9804     7.9541    43.6523   182.6411

   temp. (K)  partition function   enthalpy   heat capacity  entropy
                                   cal/mol     cal/K/mol   cal/K/mol   J/K/mol
  20.00  VIB   1.00                    0.000      0.000     -0.001
         ROT   178.                   59.618      2.981     13.283
         INT   178.                   59.618      2.981     13.281
         TR   0.822E+25               99.363      4.968     24.861
         TOT                         158.9808     7.9490    38.1429   159.5898

   temp. (K)  partition function   enthalpy   heat capacity  entropy
                                   cal/mol     cal/K/mol   cal/K/mol   J/K/mol
  10.00  VIB   1.00                    0.000      0.000     -0.002
         ROT   63.1                   29.809      2.981     11.216
         INT   63.1                   29.809      2.981     11.215
         TR   0.290E+25               49.681      4.968     21.419
         TOT                          79.4904     7.9490    32.6340   136.5406

       T/K    H(0)-H(T)+PV         H(T)/Eh          T*S/Eh         G(T)/Eh
   ------------------------------------------------------------------------
    298.15    0.478395E-02    0.232810E-01    0.297887E-01   -0.650770E-02
    120.00    0.157147E-02    0.200686E-01    0.100817E-01    0.998686E-02
    100.00    0.128973E-02    0.197868E-01    0.814482E-02    0.116420E-01
     80.00    0.102063E-02    0.195177E-01    0.627591E-02    0.132418E-01
     60.00    0.761180E-03    0.192583E-01    0.448321E-02    0.147751E-01
     40.00    0.506734E-03    0.190038E-01    0.278257E-02    0.162213E-01
     20.00    0.253352E-03    0.187504E-01    0.121569E-02    0.175348E-01
     10.00    0.126676E-03    0.186238E-01    0.520056E-03    0.181037E-01 (used)
   ------------------------------------------------------------------------

         :::::::::::::::::::::::::::::::::::::::::::::::::::::
         ::                  THERMODYNAMIC                  ::
         :::::::::::::::::::::::::::::::::::::::::::::::::::::
         :: total free energy         -11.052774455434 Eh   ::
         ::.................................................::
         :: total energy              -11.070878169094 Eh   ::
         :: zero point energy           0.018497093508 Eh   ::
         :: G(RRHO) w/o ZPVE           -0.000393379848 Eh   ::
         :: G(RRHO) contrib.            0.018103713660 Eh   ::
         :::::::::::::::::::::::::::::::::::::::::::::::::::::

optimized geometry written to: xtbopt.xyz


           -------------------------------------------------
          | TOTAL ENERGY              -11.070878169094 Eh   |
          | TOTAL ENTHALPY            -11.052254399570 Eh   |
          | TOTAL FREE ENERGY         -11.052774455434 Eh   |
          | GRADIENT NORM               0.000448414927 Eh/α |
          | HOMO-LUMO GAP               2.480968469114 eV   |
           -------------------------------------------------

------------------------------------------------------------------------
 * finished run on 2020/05/12 at 11:44:22.722     
------------------------------------------------------------------------
 total:
 * wall-time:     0 d,  0 h,  0 min,  0.246 sec
 *  cpu-time:     0 d,  0 h,  0 min,  0.245 sec
 * ratio c/w:     0.997 speedup
 SCF:
 * wall-time:     0 d,  0 h,  0 min,  0.006 sec
 *  cpu-time:     0 d,  0 h,  0 min,  0.006 sec
 * ratio c/w:     0.995 speedup
 ANC optimizer:
 * wall-time:     0 d,  0 h,  0 min,  0.114 sec
 *  cpu-time:     0 d,  0 h,  0 min,  0.114 sec
 * ratio c/w:     0.998 speedup
 numerical hessian:
 * wall-time:     0 d,  0 h,  0 min,  0.108 sec
 *  cpu-time:     0 d,  0 h,  0 min,  0.108 sec
 * ratio c/w:     0.996 speedup

