 Entering Gaussian System, Link 0=g16
 Initial command:
 /applis/site/cecic/gaussian16/B.01/nehalem/g16/l1.exe "/bettik/tinaccil/g16/12754513_Si/Gau-227760.inp" -scrdir="/bettik/tinaccil/g16/12754513_Si/"
 Entering Link 1 = /applis/site/cecic/gaussian16/B.01/nehalem/g16/l1.exe PID=    227762.
  
 Copyright (c) 1988-2017, Gaussian, Inc.  All Rights Reserved.
  
 This is part of the Gaussian(R) 16 program.  It is based on
 the Gaussian(R) 09 system (copyright 2009, Gaussian, Inc.),
 the Gaussian(R) 03 system (copyright 2003, Gaussian, Inc.),
 the Gaussian(R) 98 system (copyright 1998, Gaussian, Inc.),
 the Gaussian(R) 94 system (copyright 1995, Gaussian, Inc.),
 the Gaussian 92(TM) system (copyright 1992, Gaussian, Inc.),
 the Gaussian 90(TM) system (copyright 1990, Gaussian, Inc.),
 the Gaussian 88(TM) system (copyright 1988, Gaussian, Inc.),
 the Gaussian 86(TM) system (copyright 1986, Carnegie Mellon
 University), and the Gaussian 82(TM) system (copyright 1983,
 Carnegie Mellon University). Gaussian is a federally registered
 trademark of Gaussian, Inc.
  
 This software contains proprietary and confidential information,
 including trade secrets, belonging to Gaussian, Inc.
  
 This software is provided under written license and may be
 used, copied, transmitted, or stored only in accord with that
 written license.
  
 The following legend is applicable only to US Government
 contracts under FAR:
  
                    RESTRICTED RIGHTS LEGEND
  
 Use, reproduction and disclosure by the US Government is
 subject to restrictions as set forth in subparagraphs (a)
 and (c) of the Commercial Computer Software - Restricted
 Rights clause in FAR 52.227-19.
  
 Gaussian, Inc.
 340 Quinnipiac St., Bldg. 40, Wallingford CT 06492
  
  
 ---------------------------------------------------------------
 Warning -- This program may not be used in any manner that
 competes with the business of Gaussian, Inc. or will provide
 assistance to any competitor of Gaussian, Inc.  The licensee
 of this program is prohibited from giving any competitor of
 Gaussian, Inc. access to this program.  By using this program,
 the user acknowledges that Gaussian, Inc. is engaged in the
 business of creating and licensing software in the field of
 computational chemistry and represents and warrants to the
 licensee that it is not a competitor of Gaussian, Inc. and that
 it will not use this program in any manner prohibited above.
 ---------------------------------------------------------------
  

 Cite this work as:
 Gaussian 16, Revision B.01,
 M. J. Frisch, G. W. Trucks, H. B. Schlegel, G. E. Scuseria, 
 M. A. Robb, J. R. Cheeseman, G. Scalmani, V. Barone, 
 G. A. Petersson, H. Nakatsuji, X. Li, M. Caricato, A. V. Marenich, 
 J. Bloino, B. G. Janesko, R. Gomperts, B. Mennucci, H. P. Hratchian, 
 J. V. Ortiz, A. F. Izmaylov, J. L. Sonnenberg, D. Williams-Young, 
 F. Ding, F. Lipparini, F. Egidi, J. Goings, B. Peng, A. Petrone, 
 T. Henderson, D. Ranasinghe, V. G. Zakrzewski, J. Gao, N. Rega, 
 G. Zheng, W. Liang, M. Hada, M. Ehara, K. Toyota, R. Fukuda, 
 J. Hasegawa, M. Ishida, T. Nakajima, Y. Honda, O. Kitao, H. Nakai, 
 T. Vreven, K. Throssell, J. A. Montgomery, Jr., J. E. Peralta, 
 F. Ogliaro, M. J. Bearpark, J. J. Heyd, E. N. Brothers, K. N. Kudin, 
 V. N. Staroverov, T. A. Keith, R. Kobayashi, J. Normand, 
 K. Raghavachari, A. P. Rendell, J. C. Burant, S. S. Iyengar, 
 J. Tomasi, M. Cossi, J. M. Millam, M. Klene, C. Adamo, R. Cammi, 
 J. W. Ochterski, R. L. Martin, K. Morokuma, O. Farkas, 
 J. B. Foresman, and D. J. Fox, Gaussian, Inc., Wallingford CT, 2016.
 
 ******************************************
 Gaussian 16:  ES64L-G16RevB.01 20-Dec-2017
                 5-Oct-2020 
 ******************************************
 %nosave
 %nproc=8
 Will use up to    8 processors via shared memory.
 %mem=2gb
 %chk=input
 ------------------------
 #P ROCCSD(T)/aug-cc-pvtz
 ------------------------
 1/38=1,172=1/1;
 2/12=2,17=6,18=5,40=1/2;
 3/5=16,6=1,7=10,11=2,25=1,30=1,116=101/1,2,3;
 4//1;
 5/5=2,38=5/2;
 8/5=-1,6=4,9=120000,10=1/1,4;
 9/5=7,14=2/13;
 6/7=2,8=2,9=2,10=2/1;
 99/5=1,9=1/99;
 Leave Link    1 at Mon Oct  5 21:36:59 2020, MaxMem=   268435456 cpu:               0.7 elap:               0.2
 (Enter /applis/site/cecic/gaussian16/B.01/nehalem/g16/l101.exe)
 -----
 Title
 -----
 Symbolic Z-matrix:
 Charge =  1 Multiplicity = 2
 Si
 
 ITRead=  0
 MicOpt= -1
 NAtoms=      1 NQM=        1 NQMF=       0 NMMI=      0 NMMIF=      0
                NMic=       0 NMicF=      0.
                    Isotopes and Nuclear Properties:
 (Nuclear quadrupole moments (NQMom) in fm**2, nuclear magnetic moments (NMagM)
  in nuclear magnetons)

  Atom         1
 IAtWgt=          28
 AtmWgt=  27.9769284
 NucSpn=           0
 AtZEff=  -0.0000000
 NQMom=    0.0000000
 NMagM=    0.0000000
 AtZNuc=  14.0000000
 Leave Link  101 at Mon Oct  5 21:36:59 2020, MaxMem=   268435456 cpu:               1.5 elap:               0.3
 (Enter /applis/site/cecic/gaussian16/B.01/nehalem/g16/l202.exe)
                          Input orientation:                          
 ---------------------------------------------------------------------
 Center     Atomic      Atomic             Coordinates (Angstroms)
 Number     Number       Type             X           Y           Z
 ---------------------------------------------------------------------
      1         14           0        0.000000    0.000000    0.000000
 ---------------------------------------------------------------------
 Stoichiometry    Si(1+,2)
 Framework group  OH[O(Si)]
 Deg. of freedom     0
 Full point group                 OH      NOp  48
 Largest Abelian subgroup         D2H     NOp   8
 Largest concise Abelian subgroup C1      NOp   1
                         Standard orientation:                         
 ---------------------------------------------------------------------
 Center     Atomic      Atomic             Coordinates (Angstroms)
 Number     Number       Type             X           Y           Z
 ---------------------------------------------------------------------
      1         14           0        0.000000    0.000000    0.000000
 ---------------------------------------------------------------------
 Leave Link  202 at Mon Oct  5 21:36:59 2020, MaxMem=   268435456 cpu:               1.1 elap:               0.2
 (Enter /applis/site/cecic/gaussian16/B.01/nehalem/g16/l301.exe)
 Standard basis: Aug-CC-pVTZ (5D, 7F)
 Ernie: Thresh=  0.10000D-02 Tol=  0.10000D-05 Strict=F.
 Ernie:  12 primitive shells out of 64 were deleted.
 There are    15 symmetry adapted cartesian basis functions of AG  symmetry.
 There are     3 symmetry adapted cartesian basis functions of B1G symmetry.
 There are     3 symmetry adapted cartesian basis functions of B2G symmetry.
 There are     3 symmetry adapted cartesian basis functions of B3G symmetry.
 There are     2 symmetry adapted cartesian basis functions of AU  symmetry.
 There are    11 symmetry adapted cartesian basis functions of B1U symmetry.
 There are    11 symmetry adapted cartesian basis functions of B2U symmetry.
 There are    11 symmetry adapted cartesian basis functions of B3U symmetry.
 There are    12 symmetry adapted basis functions of AG  symmetry.
 There are     3 symmetry adapted basis functions of B1G symmetry.
 There are     3 symmetry adapted basis functions of B2G symmetry.
 There are     3 symmetry adapted basis functions of B3G symmetry.
 There are     2 symmetry adapted basis functions of AU  symmetry.
 There are     9 symmetry adapted basis functions of B1U symmetry.
 There are     9 symmetry adapted basis functions of B2U symmetry.
 There are     9 symmetry adapted basis functions of B3U symmetry.
    50 basis functions,   115 primitive gaussians,    59 cartesian basis functions
     7 alpha electrons        6 beta electrons
       nuclear repulsion energy         0.0000000000 Hartrees.
 IExCor=    0 DFT=F Ex=HF Corr=None ExCW=0 ScaHFX=  1.000000
 ScaDFX=  1.000000  1.000000  1.000000  1.000000 ScalE2=  1.000000  1.000000
 IRadAn=      5 IRanWt=     -1 IRanGd=            0 ICorTp=0 IEmpDi=  4
 NAtoms=    1 NActive=    1 NUniq=    1 SFac= 1.00D+00 NAtFMM=   60 NAOKFM=F Big=F
 Integral buffers will be    131072 words long.
 Raffenetti 2 integral format.
 Two-electron integral symmetry is turned on.
 Leave Link  301 at Mon Oct  5 21:37:00 2020, MaxMem=   268435456 cpu:               0.6 elap:               0.2
 (Enter /applis/site/cecic/gaussian16/B.01/nehalem/g16/l302.exe)
 NPDir=0 NMtPBC=     1 NCelOv=     1 NCel=       1 NClECP=     1 NCelD=      1
         NCelK=      1 NCelE2=     1 NClLst=     1 CellRange=     0.0.
 One-electron integrals computed using PRISM.
 One-electron integral symmetry used in STVInt
 NBasis=    50 RedAO= T EigKep=  1.46D-02  NBF=    12     3     3     3     2     9     9     9
 NBsUse=    50 1.00D-06 EigRej= -1.00D+00 NBFU=    12     3     3     3     2     9     9     9
 Leave Link  302 at Mon Oct  5 21:37:00 2020, MaxMem=   268435456 cpu:               1.5 elap:               0.3
 (Enter /applis/site/cecic/gaussian16/B.01/nehalem/g16/l303.exe)
 DipDrv:  MaxL=1.
 Leave Link  303 at Mon Oct  5 21:37:00 2020, MaxMem=   268435456 cpu:               1.7 elap:               0.3
 (Enter /applis/site/cecic/gaussian16/B.01/nehalem/g16/l401.exe)
 ExpMin= 2.37D-02 ExpMax= 2.55D+05 ExpMxC= 2.46D+03 IAcc=3 IRadAn=         5 AccDes= 0.00D+00
 Harris functional with IExCor=  205 and IRadAn=       5 diagonalized for initial guess.
 HarFok:  IExCor=  205 AccDes= 0.00D+00 IRadAn=         5 IDoV= 1 UseB2=F ITyADJ=14
 ICtDFT=  3500011 ScaDFX=  1.000000  1.000000  1.000000  1.000000
 FoFCou: FMM=F IPFlag=           0 FMFlag=      100000 FMFlg1=           0
         NFxFlg=           0 DoJE=T BraDBF=F KetDBF=T FulRan=T
         wScrn=  0.000000 ICntrl=       500 IOpCl=  0 I1Cent=   200000004 NGrid=           0
         NMat0=    1 NMatS0=      1 NMatT0=    0 NMatD0=    1 NMtDS0=    0 NMtDT0=    0
 Petite list used in FoFCou.
 Harris En= -288.299179589137    
 JPrj=0 DoOrth=F DoCkMO=F.
 Initial guess orbital symmetries:
       Occupied  (A1G) (A1G) (T1U) (T1U) (T1U) (A1G) (T1U)
       Virtual   (T1U) (T1U) (A1G) (T1U) (T1U) (T1U) (T2G) (T2G)
                 (T2G) (EG) (EG) (T1U) (T1U) (T1U) (T2G) (T2G)
                 (T2G) (EG) (EG) (A1G) (T2U) (T2U) (T2U) (A2U)
                 (T1U) (T1U) (T1U) (T2G) (T2G) (T2G) (EG) (EG)
                 (T2U) (T2U) (T2U) (A2U) (T1U) (T1U) (T1U) (T1U)
                 (T1U) (T1U) (A1G)
 Leave Link  401 at Mon Oct  5 21:37:01 2020, MaxMem=   268435456 cpu:               2.1 elap:               0.4
 (Enter /applis/site/cecic/gaussian16/B.01/nehalem/g16/l502.exe)
 Keep R1 and R2 ints in memory in symmetry-blocked form, NReq=4747264.
 FoFCou: FMM=F IPFlag=           0 FMFlag=           0 FMFlg1=           0
         NFxFlg=           0 DoJE=F BraDBF=F KetDBF=F FulRan=T
         wScrn=  0.000000 ICntrl=       600 IOpCl=  0 I1Cent=           0 NGrid=           0
         NMat0=    1 NMatS0=   1275 NMatT0=    0 NMatD0=    1 NMtDS0=    0 NMtDT0=    0
 Petite list used in FoFCou.
 Restricted open shell SCF:
 Using DIIS extrapolation, IDIIS=  1040.
 NGot=   268435456 LenX=   268204232 LenY=   268200310
 Requested convergence on RMS density matrix=1.00D-08 within 128 cycles.
 Requested convergence on MAX density matrix=1.00D-06.
 Requested convergence on             energy=1.00D-06.
 No special actions if energy rises.

 Cycle   1  Pass 1  IDiag  1:
 Density matrix breaks symmetry, PCut= 1.00D-07
 Density has only Abelian symmetry.
 E= -288.537147548435    
 DIIS: error= 6.38D-02 at cycle   1 NSaved=   1.
 NSaved= 1 IEnMin= 1 EnMin= -288.537147548435     IErMin= 1 ErrMin= 6.38D-02
 ErrMax= 6.38D-02  0.00D+00 EMaxC= 1.00D-01 BMatC= 8.03D-02 BMatP= 8.03D-02
 IDIUse=3 WtCom= 3.62D-01 WtEn= 6.38D-01
 Coeff-Com:  0.100D+01
 Coeff-En:   0.100D+01
 Coeff:      0.100D+01
 Gap=     0.000 Goal=   None    Shift=    0.000
 GapD=    0.000 DampG=0.250 DampE=0.500 DampFc=0.2500 IDamp=-1.
 Damping current iteration by 2.50D-01
 RMSDP=6.28D-03 MaxDP=2.29D-01              OVMax= 6.02D-02

 Cycle   2  Pass 1  IDiag  1:
 Density matrix breaks symmetry, PCut= 1.00D-07
 Density has only Abelian symmetry.
 E= -288.543148335012     Delta-E=       -0.006000786576 Rises=F Damp=T
 DIIS: error= 4.70D-02 at cycle   2 NSaved=   2.
 NSaved= 2 IEnMin= 2 EnMin= -288.543148335012     IErMin= 2 ErrMin= 4.70D-02
 ErrMax= 4.70D-02  0.00D+00 EMaxC= 1.00D-01 BMatC= 3.93D-02 BMatP= 8.03D-02
 IDIUse=3 WtCom= 5.30D-01 WtEn= 4.70D-01
 Coeff-Com: -0.109D+01 0.209D+01
 Coeff-En:   0.152D+00 0.848D+00
 Coeff:     -0.506D+00 0.151D+01
 Gap=     0.000 Goal=   None    Shift=    0.000
 RMSDP=5.27D-03 MaxDP=1.40D-01 DE=-6.00D-03 OVMax= 2.15D-02

 Cycle   3  Pass 1  IDiag  1:
 Density matrix breaks symmetry, PCut= 1.00D-07
 Density has only Abelian symmetry.
 E= -288.535488566067     Delta-E=        0.007659768945 Rises=F Damp=F
 DIIS: error= 4.00D-02 at cycle   3 NSaved=   3.
 NSaved= 3 IEnMin= 2 EnMin= -288.543148335012     IErMin= 3 ErrMin= 4.00D-02
 ErrMax= 4.00D-02  0.00D+00 EMaxC= 1.00D-01 BMatC= 1.21D-02 BMatP= 3.93D-02
 IDIUse=3 WtCom= 6.00D-01 WtEn= 4.00D-01
 Coeff-Com: -0.791D+00 0.113D+01 0.659D+00
 Coeff-En:   0.000D+00 0.612D+00 0.388D+00
 Coeff:     -0.475D+00 0.924D+00 0.550D+00
 Gap=     0.000 Goal=   None    Shift=    0.000
 RMSDP=3.53D-03 MaxDP=1.01D-01 DE= 7.66D-03 OVMax= 7.89D-03

 Cycle   4  Pass 1  IDiag  1:
 Density matrix breaks symmetry, PCut= 1.00D-07
 Density has only Abelian symmetry.
 E= -288.564803406380     Delta-E=       -0.029314840313 Rises=F Damp=F
 DIIS: error= 1.73D-02 at cycle   4 NSaved=   4.
 NSaved= 4 IEnMin= 4 EnMin= -288.564803406380     IErMin= 4 ErrMin= 1.73D-02
 ErrMax= 1.73D-02  0.00D+00 EMaxC= 1.00D-01 BMatC= 2.35D-03 BMatP= 1.21D-02
 IDIUse=3 WtCom= 8.27D-01 WtEn= 1.73D-01
 Coeff-Com: -0.443D+00 0.628D+00 0.284D-01 0.787D+00
 Coeff-En:   0.000D+00 0.000D+00 0.000D+00 0.100D+01
 Coeff:     -0.366D+00 0.519D+00 0.234D-01 0.824D+00
 Gap=     0.000 Goal=   None    Shift=    0.000
 RMSDP=1.17D-02 MaxDP=3.31D-01 DE=-2.93D-02 OVMax= 1.97D-02

 Cycle   5  Pass 1  IDiag  1:
 Density matrix breaks symmetry, PCut= 1.00D-07
 Density has only Abelian symmetry.
 E= -288.559525638516     Delta-E=        0.005277767864 Rises=F Damp=F
 DIIS: error= 1.97D-02 at cycle   5 NSaved=   5.
 NSaved= 5 IEnMin= 4 EnMin= -288.564803406380     IErMin= 4 ErrMin= 1.73D-02
 ErrMax= 1.97D-02  0.00D+00 EMaxC= 1.00D-01 BMatC= 5.32D-03 BMatP= 2.35D-03
 IDIUse=2 WtCom= 0.00D+00 WtEn= 1.00D+00
 Coeff-En:   0.000D+00 0.000D+00 0.000D+00 0.642D+00 0.358D+00
 Coeff:      0.000D+00 0.000D+00 0.000D+00 0.642D+00 0.358D+00
 Gap=     0.003 Goal=   None    Shift=    0.000
 RMSDP=1.18D-02 MaxDP=2.77D-01 DE= 5.28D-03 OVMax= 7.44D-03

 Cycle   6  Pass 1  IDiag  1:
 Density matrix breaks symmetry, PCut= 1.00D-07
 Density has only Abelian symmetry.
 E= -288.560411981961     Delta-E=       -0.000886343444 Rises=F Damp=F
 DIIS: error= 1.90D-02 at cycle   6 NSaved=   6.
 NSaved= 6 IEnMin= 4 EnMin= -288.564803406380     IErMin= 4 ErrMin= 1.73D-02
 ErrMax= 1.90D-02  0.00D+00 EMaxC= 1.00D-01 BMatC= 4.79D-03 BMatP= 2.35D-03
 IDIUse=2 WtCom= 0.00D+00 WtEn= 1.00D+00
 EnCoef did     2 forward-backward iterations
 Coeff-En:   0.000D+00 0.000D+00 0.000D+00 0.458D+00 0.263D+00 0.278D+00
 Coeff:      0.000D+00 0.000D+00 0.000D+00 0.458D+00 0.263D+00 0.278D+00
 Gap=     0.000 Goal=   None    Shift=    0.000
 RMSDP=1.23D-02 MaxDP=3.59D-01 DE=-8.86D-04 OVMax= 1.92D-02

 Cycle   7  Pass 1  IDiag  1:
 Density matrix breaks symmetry, PCut= 1.00D-07
 Density has only Abelian symmetry.
 E= -288.569015813298     Delta-E=       -0.008603831337 Rises=F Damp=F
 DIIS: error= 7.79D-03 at cycle   7 NSaved=   7.
 NSaved= 7 IEnMin= 7 EnMin= -288.569015813298     IErMin= 7 ErrMin= 7.79D-03
 ErrMax= 7.79D-03  0.00D+00 EMaxC= 1.00D-01 BMatC= 1.11D-03 BMatP= 2.35D-03
 IDIUse=3 WtCom= 9.22D-01 WtEn= 7.79D-02
 EnCoef did     2 forward-backward iterations
 Coeff-Com: -0.417D+00 0.589D+00 0.133D+00 0.432D+00 0.432D-01 0.408D-01
 Coeff-Com:  0.179D+00
 Coeff-En:   0.000D+00 0.000D+00 0.000D+00 0.000D+00 0.145D+00 0.145D+00
 Coeff-En:   0.709D+00
 Coeff:     -0.384D+00 0.543D+00 0.122D+00 0.399D+00 0.512D-01 0.490D-01
 Coeff:      0.220D+00
 Gap=     0.000 Goal=   None    Shift=    0.000
 RMSDP=1.23D-02 MaxDP=3.59D-01 DE=-8.60D-03 OVMax= 5.05D-02

 Cycle   8  Pass 1  IDiag  1:
 Density matrix breaks symmetry, PCut= 1.00D-07
 Density has only Abelian symmetry.
 E= -288.561099545931     Delta-E=        0.007916267367 Rises=F Damp=F
 DIIS: error= 1.82D-02 at cycle   8 NSaved=   8.
 NSaved= 8 IEnMin= 7 EnMin= -288.569015813298     IErMin= 7 ErrMin= 7.79D-03
 ErrMax= 1.82D-02  0.00D+00 EMaxC= 1.00D-01 BMatC= 4.63D-03 BMatP= 1.11D-03
 IDIUse=2 WtCom= 0.00D+00 WtEn= 1.00D+00
 EnCoef did     3 forward-backward iterations
 Coeff-En:   0.000D+00 0.000D+00 0.000D+00 0.000D+00 0.141D+00 0.000D+00
 Coeff-En:   0.699D+00 0.160D+00
 Coeff:      0.000D+00 0.000D+00 0.000D+00 0.000D+00 0.141D+00 0.000D+00
 Coeff:      0.699D+00 0.160D+00
 Gap=     0.000 Goal=   None    Shift=    0.000
 RMSDP=1.19D-02 MaxDP=2.94D-01 DE= 7.92D-03 OVMax= 1.69D-02

 Cycle   9  Pass 1  IDiag  1:
 Density matrix breaks symmetry, PCut= 1.00D-07
 Density has only Abelian symmetry.
 E= -288.563046315339     Delta-E=       -0.001946769408 Rises=F Damp=F
 DIIS: error= 1.61D-02 at cycle   9 NSaved=   9.
 NSaved= 9 IEnMin= 7 EnMin= -288.569015813298     IErMin= 7 ErrMin= 7.79D-03
 ErrMax= 1.61D-02  0.00D+00 EMaxC= 1.00D-01 BMatC= 3.77D-03 BMatP= 1.11D-03
 IDIUse=2 WtCom= 0.00D+00 WtEn= 1.00D+00
 EnCoef did     2 forward-backward iterations
 Coeff-En:   0.000D+00 0.000D+00 0.000D+00 0.000D+00 0.000D+00 0.000D+00
 Coeff-En:   0.655D+00 0.160D+00 0.184D+00
 Coeff:      0.000D+00 0.000D+00 0.000D+00 0.000D+00 0.000D+00 0.000D+00
 Coeff:      0.655D+00 0.160D+00 0.184D+00
 Gap=     0.000 Goal=   None    Shift=    0.000
 RMSDP=1.20D-02 MaxDP=2.97D-01 DE=-1.95D-03 OVMax= 5.77D-04

 Cycle  10  Pass 1  IDiag  1:
 Density matrix breaks symmetry, PCut= 1.00D-07
 Density has only Abelian symmetry.
 E= -288.563425037596     Delta-E=       -0.000378722257 Rises=F Damp=F
 DIIS: error= 1.57D-02 at cycle  10 NSaved=  10.
 NSaved=10 IEnMin= 7 EnMin= -288.569015813298     IErMin= 7 ErrMin= 7.79D-03
 ErrMax= 1.57D-02  0.00D+00 EMaxC= 1.00D-01 BMatC= 3.59D-03 BMatP= 1.11D-03
 IDIUse=2 WtCom= 0.00D+00 WtEn= 1.00D+00
 EnCoef did     2 forward-backward iterations
 Coeff-En:   0.000D+00 0.000D+00 0.000D+00 0.000D+00 0.000D+00 0.000D+00
 Coeff-En:   0.624D+00 0.000D+00 0.186D+00 0.191D+00
 Coeff:      0.000D+00 0.000D+00 0.000D+00 0.000D+00 0.000D+00 0.000D+00
 Coeff:      0.624D+00 0.000D+00 0.186D+00 0.191D+00
 Gap=     0.000 Goal=   None    Shift=    0.000
 RMSDP=1.20D-02 MaxDP=3.02D-01 DE=-3.79D-04 OVMax= 4.24D-04

 Cycle  11  Pass 1  IDiag  1:
 Density matrix breaks symmetry, PCut= 1.00D-07
 Density has only Abelian symmetry.
 E= -288.563893533815     Delta-E=       -0.000468496219 Rises=F Damp=F
 DIIS: error= 1.52D-02 at cycle  11 NSaved=  11.
 NSaved=11 IEnMin= 7 EnMin= -288.569015813298     IErMin= 7 ErrMin= 7.79D-03
 ErrMax= 1.52D-02  0.00D+00 EMaxC= 1.00D-01 BMatC= 3.38D-03 BMatP= 1.11D-03
 IDIUse=2 WtCom= 0.00D+00 WtEn= 1.00D+00
 EnCoef did     2 forward-backward iterations
 Coeff-En:   0.000D+00 0.000D+00 0.000D+00 0.000D+00 0.000D+00 0.000D+00
 Coeff-En:   0.610D+00 0.000D+00 0.000D+00 0.191D+00 0.198D+00
 Coeff:      0.000D+00 0.000D+00 0.000D+00 0.000D+00 0.000D+00 0.000D+00
 Coeff:      0.610D+00 0.000D+00 0.000D+00 0.191D+00 0.198D+00
 Gap=     0.000 Goal=   None    Shift=    0.000
 RMSDP=1.20D-02 MaxDP=3.03D-01 DE=-4.68D-04 OVMax= 1.76D-04

 Cycle  12  Pass 1  IDiag  1:
 Density matrix breaks symmetry, PCut= 1.00D-07
 Density has only Abelian symmetry.
 E= -288.564001318460     Delta-E=       -0.000107784645 Rises=F Damp=F
 DIIS: error= 1.51D-02 at cycle  12 NSaved=  12.
 NSaved=12 IEnMin= 7 EnMin= -288.569015813298     IErMin= 7 ErrMin= 7.79D-03
 ErrMax= 1.51D-02  0.00D+00 EMaxC= 1.00D-01 BMatC= 3.33D-03 BMatP= 1.11D-03
 IDIUse=2 WtCom= 0.00D+00 WtEn= 1.00D+00
 EnCoef did     1 forward-backward iterations
 Coeff-En:   0.000D+00 0.000D+00 0.000D+00 0.000D+00 0.000D+00 0.000D+00
 Coeff-En:   0.601D+00 0.000D+00 0.000D+00 0.000D+00 0.199D+00 0.200D+00
 Coeff:      0.000D+00 0.000D+00 0.000D+00 0.000D+00 0.000D+00 0.000D+00
 Coeff:      0.601D+00 0.000D+00 0.000D+00 0.000D+00 0.199D+00 0.200D+00
 Gap=     0.000 Goal=   None    Shift=    0.000
 RMSDP=1.20D-02 MaxDP=3.04D-01 DE=-1.08D-04 OVMax= 1.21D-04

 Cycle  13  Pass 1  IDiag  1:
 Density matrix breaks symmetry, PCut= 1.00D-07
 Density has only Abelian symmetry.
 E= -288.564136719285     Delta-E=       -0.000135400825 Rises=F Damp=F
 DIIS: error= 1.49D-02 at cycle  13 NSaved=  13.
 NSaved=13 IEnMin= 7 EnMin= -288.569015813298     IErMin= 7 ErrMin= 7.79D-03
 ErrMax= 1.49D-02  0.00D+00 EMaxC= 1.00D-01 BMatC= 3.26D-03 BMatP= 1.11D-03
 IDIUse=2 WtCom= 0.00D+00 WtEn= 1.00D+00
 EnCoef did     1 forward-backward iterations
 Coeff-En:   0.000D+00 0.000D+00 0.000D+00 0.000D+00 0.000D+00 0.000D+00
 Coeff-En:   0.597D+00 0.000D+00 0.000D+00 0.000D+00 0.000D+00 0.201D+00
 Coeff-En:   0.203D+00
 Coeff:      0.000D+00 0.000D+00 0.000D+00 0.000D+00 0.000D+00 0.000D+00
 Coeff:      0.597D+00 0.000D+00 0.000D+00 0.000D+00 0.000D+00 0.201D+00
 Coeff:      0.203D+00
 Gap=     0.000 Goal=   None    Shift=    0.000
 RMSDP=1.20D-02 MaxDP=3.04D-01 DE=-1.35D-04 OVMax= 5.54D-05

 Cycle  14  Pass 1  IDiag  1:
 Density matrix breaks symmetry, PCut= 1.00D-07
 Density has only Abelian symmetry.
 E= -288.564170758722     Delta-E=       -0.000034039437 Rises=F Damp=F
 DIIS: error= 1.49D-02 at cycle  14 NSaved=  14.
 NSaved=14 IEnMin= 7 EnMin= -288.569015813298     IErMin= 7 ErrMin= 7.79D-03
 ErrMax= 1.49D-02  0.00D+00 EMaxC= 1.00D-01 BMatC= 3.25D-03 BMatP= 1.11D-03
 IDIUse=2 WtCom= 0.00D+00 WtEn= 1.00D+00
 EnCoef did     1 forward-backward iterations
 Coeff-En:   0.000D+00 0.000D+00 0.000D+00 0.000D+00 0.000D+00 0.000D+00
 Coeff-En:   0.594D+00 0.000D+00 0.000D+00 0.000D+00 0.000D+00 0.000D+00
 Coeff-En:   0.203D+00 0.203D+00
 Coeff:      0.000D+00 0.000D+00 0.000D+00 0.000D+00 0.000D+00 0.000D+00
 Coeff:      0.594D+00 0.000D+00 0.000D+00 0.000D+00 0.000D+00 0.000D+00
 Coeff:      0.203D+00 0.203D+00
 Gap=     0.000 Goal=   None    Shift=    0.000
 RMSDP=1.20D-02 MaxDP=3.05D-01 DE=-3.40D-05 OVMax= 3.77D-05

 Cycle  15  Pass 1  IDiag  1:
 Density matrix breaks symmetry, PCut= 1.00D-07
 Density has only Abelian symmetry.
 E= -288.564211414186     Delta-E=       -0.000040655464 Rises=F Damp=F
 DIIS: error= 1.49D-02 at cycle  15 NSaved=  15.
 NSaved=15 IEnMin= 7 EnMin= -288.569015813298     IErMin= 7 ErrMin= 7.79D-03
 ErrMax= 1.49D-02  0.00D+00 EMaxC= 1.00D-01 BMatC= 3.23D-03 BMatP= 1.11D-03
 IDIUse=2 WtCom= 0.00D+00 WtEn= 1.00D+00
 EnCoef did     1 forward-backward iterations
 Coeff-En:   0.000D+00 0.000D+00 0.000D+00 0.000D+00 0.000D+00 0.000D+00
 Coeff-En:   0.593D+00 0.000D+00 0.000D+00 0.000D+00 0.000D+00 0.000D+00
 Coeff-En:   0.000D+00 0.203D+00 0.204D+00
 Coeff:      0.000D+00 0.000D+00 0.000D+00 0.000D+00 0.000D+00 0.000D+00
 Coeff:      0.593D+00 0.000D+00 0.000D+00 0.000D+00 0.000D+00 0.000D+00
 Coeff:      0.000D+00 0.203D+00 0.204D+00
 Gap=     0.000 Goal=   None    Shift=    0.000
 RMSDP=1.20D-02 MaxDP=3.05D-01 DE=-4.07D-05 OVMax= 1.95D-05

 Cycle  16  Pass 1  IDiag  1:
 Density matrix breaks symmetry, PCut= 1.00D-07
 Density has only Abelian symmetry.
 E= -288.564222940575     Delta-E=       -0.000011526389 Rises=F Damp=F
 DIIS: error= 1.48D-02 at cycle  16 NSaved=  16.
 NSaved=16 IEnMin= 7 EnMin= -288.569015813298     IErMin= 7 ErrMin= 7.79D-03
 ErrMax= 1.48D-02  0.00D+00 EMaxC= 1.00D-01 BMatC= 3.22D-03 BMatP= 1.11D-03
 IDIUse=2 WtCom= 0.00D+00 WtEn= 1.00D+00
 Coeff-En:   0.000D+00 0.000D+00 0.000D+00 0.000D+00 0.000D+00 0.000D+00
 Coeff-En:   0.592D+00 0.000D+00 0.000D+00 0.000D+00 0.000D+00 0.000D+00
 Coeff-En:   0.000D+00 0.000D+00 0.204D+00 0.204D+00
 Coeff:      0.000D+00 0.000D+00 0.000D+00 0.000D+00 0.000D+00 0.000D+00
 Coeff:      0.592D+00 0.000D+00 0.000D+00 0.000D+00 0.000D+00 0.000D+00
 Coeff:      0.000D+00 0.000D+00 0.204D+00 0.204D+00
 Gap=     0.000 Goal=   None    Shift=    0.000
 RMSDP=1.20D-02 MaxDP=3.05D-01 DE=-1.15D-05 OVMax= 1.27D-05

 Cycle  17  Pass 1  IDiag  1:
 Density matrix breaks symmetry, PCut= 1.00D-07
 Density has only Abelian symmetry.
 E= -288.564233875179     Delta-E=       -0.000010934604 Rises=F Damp=F
 DIIS: error= 1.48D-02 at cycle  17 NSaved=  17.
 NSaved=17 IEnMin= 7 EnMin= -288.569015813298     IErMin= 7 ErrMin= 7.79D-03
 ErrMax= 1.48D-02  0.00D+00 EMaxC= 1.00D-01 BMatC= 3.22D-03 BMatP= 1.11D-03
 IDIUse=2 WtCom= 0.00D+00 WtEn= 1.00D+00
 EnCoef did     1 forward-backward iterations
 Coeff-En:   0.000D+00 0.000D+00 0.000D+00 0.000D+00 0.000D+00 0.000D+00
 Coeff-En:   0.591D+00 0.000D+00 0.000D+00 0.000D+00 0.000D+00 0.000D+00
 Coeff-En:   0.000D+00 0.000D+00 0.000D+00 0.204D+00 0.204D+00
 Coeff:      0.000D+00 0.000D+00 0.000D+00 0.000D+00 0.000D+00 0.000D+00
 Coeff:      0.591D+00 0.000D+00 0.000D+00 0.000D+00 0.000D+00 0.000D+00
 Coeff:      0.000D+00 0.000D+00 0.000D+00 0.204D+00 0.204D+00
 Gap=     0.000 Goal=   None    Shift=    0.000
 RMSDP=1.20D-02 MaxDP=3.05D-01 DE=-1.09D-05 OVMax= 5.32D-06

 Cycle  18  Pass 1  IDiag  1:
 Density matrix breaks symmetry, PCut= 1.00D-07
 Density has only Abelian symmetry.
 E= -288.564239656925     Delta-E=       -0.000005781747 Rises=F Damp=F
 DIIS: error= 1.48D-02 at cycle  18 NSaved=  18.
 NSaved=18 IEnMin= 7 EnMin= -288.569015813298     IErMin= 7 ErrMin= 7.79D-03
 ErrMax= 1.48D-02  0.00D+00 EMaxC= 1.00D-01 BMatC= 3.22D-03 BMatP= 1.11D-03
 IDIUse=2 WtCom= 0.00D+00 WtEn= 1.00D+00
 Coeff-En:   0.000D+00 0.000D+00 0.000D+00 0.000D+00 0.000D+00 0.000D+00
 Coeff-En:   0.591D+00 0.000D+00 0.000D+00 0.000D+00 0.000D+00 0.000D+00
 Coeff-En:   0.000D+00 0.000D+00 0.000D+00 0.000D+00 0.204D+00 0.205D+00
 Coeff:      0.000D+00 0.000D+00 0.000D+00 0.000D+00 0.000D+00 0.000D+00
 Coeff:      0.591D+00 0.000D+00 0.000D+00 0.000D+00 0.000D+00 0.000D+00
 Coeff:      0.000D+00 0.000D+00 0.000D+00 0.000D+00 0.204D+00 0.205D+00
 Gap=     0.000 Goal=   None    Shift=    0.000
 RMSDP=1.20D-02 MaxDP=3.05D-01 DE=-5.78D-06 OVMax= 6.53D-06

 Cycle  19  Pass 1  IDiag  1:
 Density matrix breaks symmetry, PCut= 1.00D-07
 Density has only Abelian symmetry.
 E= -288.564241576923     Delta-E=       -0.000001919998 Rises=F Damp=F
 DIIS: error= 1.48D-02 at cycle  19 NSaved=  19.
 NSaved=19 IEnMin= 7 EnMin= -288.569015813298     IErMin= 7 ErrMin= 7.79D-03
 ErrMax= 1.48D-02  0.00D+00 EMaxC= 1.00D-01 BMatC= 3.22D-03 BMatP= 1.11D-03
 IDIUse=2 WtCom= 0.00D+00 WtEn= 1.00D+00
 EnCoef did     1 forward-backward iterations
 Coeff-En:   0.000D+00 0.000D+00 0.000D+00 0.000D+00 0.000D+00 0.000D+00
 Coeff-En:   0.591D+00 0.000D+00 0.000D+00 0.000D+00 0.000D+00 0.000D+00
 Coeff-En:   0.000D+00 0.000D+00 0.000D+00 0.000D+00 0.000D+00 0.205D+00
 Coeff-En:   0.205D+00
 Coeff:      0.000D+00 0.000D+00 0.000D+00 0.000D+00 0.000D+00 0.000D+00
 Coeff:      0.591D+00 0.000D+00 0.000D+00 0.000D+00 0.000D+00 0.000D+00
 Coeff:      0.000D+00 0.000D+00 0.000D+00 0.000D+00 0.000D+00 0.205D+00
 Coeff:      0.205D+00
 Gap=     0.000 Goal=   None    Shift=    0.000
 RMSDP=1.20D-02 MaxDP=3.05D-01 DE=-1.92D-06 OVMax= 1.79D-06

 Cycle  20  Pass 1  IDiag  1:
 Density matrix breaks symmetry, PCut= 1.00D-07
 Density has only Abelian symmetry.
 E= -288.564244291918     Delta-E=       -0.000002714995 Rises=F Damp=F
 DIIS: error= 1.48D-02 at cycle  20 NSaved=  20.
 NSaved=20 IEnMin= 7 EnMin= -288.569015813298     IErMin= 7 ErrMin= 7.79D-03
 ErrMax= 1.48D-02  0.00D+00 EMaxC= 1.00D-01 BMatC= 3.21D-03 BMatP= 1.11D-03
 IDIUse=2 WtCom= 0.00D+00 WtEn= 1.00D+00
 Coeff-En:   0.000D+00 0.000D+00 0.000D+00 0.000D+00 0.000D+00 0.000D+00
 Coeff-En:   0.591D+00 0.000D+00 0.000D+00 0.000D+00 0.000D+00 0.000D+00
 Coeff-En:   0.000D+00 0.000D+00 0.000D+00 0.000D+00 0.000D+00 0.000D+00
 Coeff-En:   0.205D+00 0.205D+00
 Coeff:      0.000D+00 0.000D+00 0.000D+00 0.000D+00 0.000D+00 0.000D+00
 Coeff:      0.591D+00 0.000D+00 0.000D+00 0.000D+00 0.000D+00 0.000D+00
 Coeff:      0.000D+00 0.000D+00 0.000D+00 0.000D+00 0.000D+00 0.000D+00
 Coeff:      0.205D+00 0.205D+00
 Gap=     0.000 Goal=   None    Shift=    0.000
 RMSDP=1.20D-02 MaxDP=3.05D-01 DE=-2.71D-06 OVMax= 3.02D-06

 Cycle  21  Pass 1  IDiag  1:
 Density matrix breaks symmetry, PCut= 1.00D-07
 Density has only Abelian symmetry.
 E= -288.564244316814     Delta-E=       -0.000000024896 Rises=F Damp=F
 DIIS: error= 1.48D-02 at cycle  21 NSaved=  20.
 NSaved=20 IEnMin= 6 EnMin= -288.569015813298     IErMin= 6 ErrMin= 7.79D-03
 ErrMax= 1.48D-02  0.00D+00 EMaxC= 1.00D-01 BMatC= 3.21D-03 BMatP= 1.11D-03
 IDIUse=2 WtCom= 0.00D+00 WtEn= 1.00D+00
 EnCoef did     1 forward-backward iterations
 Coeff-En:   0.000D+00 0.000D+00 0.000D+00 0.000D+00 0.000D+00 0.591D+00
 Coeff-En:   0.000D+00 0.000D+00 0.000D+00 0.000D+00 0.000D+00 0.000D+00
 Coeff-En:   0.000D+00 0.000D+00 0.000D+00 0.000D+00 0.000D+00 0.000D+00
 Coeff-En:   0.205D+00 0.205D+00
 Coeff:      0.000D+00 0.000D+00 0.000D+00 0.000D+00 0.000D+00 0.591D+00
 Coeff:      0.000D+00 0.000D+00 0.000D+00 0.000D+00 0.000D+00 0.000D+00
 Coeff:      0.000D+00 0.000D+00 0.000D+00 0.000D+00 0.000D+00 0.000D+00
 Coeff:      0.205D+00 0.205D+00
 Gap=     0.000 Goal=   None    Shift=    0.000
 RMSDP=1.12D-07 MaxDP=5.46D-06 DE=-2.49D-08 OVMax= 4.95D-06

 Cycle  22  Pass 1  IDiag  1:
 Density matrix breaks symmetry, PCut= 1.00D-07
 Density has only Abelian symmetry.
 E= -288.564244856346     Delta-E=       -0.000000539532 Rises=F Damp=F
 DIIS: error= 1.48D-02 at cycle  22 NSaved=  20.
 NSaved=20 IEnMin= 5 EnMin= -288.569015813298     IErMin= 5 ErrMin= 7.79D-03
 ErrMax= 1.48D-02  0.00D+00 EMaxC= 1.00D-01 BMatC= 3.21D-03 BMatP= 1.11D-03
 IDIUse=2 WtCom= 0.00D+00 WtEn= 1.00D+00
 EnCoef did     1 forward-backward iterations
 Coeff-En:   0.000D+00 0.000D+00 0.000D+00 0.000D+00 0.591D+00 0.000D+00
 Coeff-En:   0.000D+00 0.000D+00 0.000D+00 0.000D+00 0.000D+00 0.000D+00
 Coeff-En:   0.000D+00 0.000D+00 0.000D+00 0.000D+00 0.000D+00 0.205D+00
 Coeff-En:   0.000D+00 0.205D+00
 Coeff:      0.000D+00 0.000D+00 0.000D+00 0.000D+00 0.591D+00 0.000D+00
 Coeff:      0.000D+00 0.000D+00 0.000D+00 0.000D+00 0.000D+00 0.000D+00
 Coeff:      0.000D+00 0.000D+00 0.000D+00 0.000D+00 0.000D+00 0.205D+00
 Coeff:      0.000D+00 0.205D+00
 Gap=     0.000 Goal=   None    Shift=    0.000
 RMSDP=3.53D-08 MaxDP=1.74D-06 DE=-5.40D-07 OVMax= 1.79D-06

 Cycle  23  Pass 1  IDiag  1:
 Density matrix breaks symmetry, PCut= 1.00D-07
 Density has only Abelian symmetry.
 E= -288.564245041517     Delta-E=       -0.000000185170 Rises=F Damp=F
 DIIS: error= 1.48D-02 at cycle  23 NSaved=  20.
 NSaved=20 IEnMin= 4 EnMin= -288.569015813298     IErMin= 4 ErrMin= 7.79D-03
 ErrMax= 1.48D-02  0.00D+00 EMaxC= 1.00D-01 BMatC= 3.21D-03 BMatP= 1.11D-03
 IDIUse=2 WtCom= 0.00D+00 WtEn= 1.00D+00
 EnCoef did     1 forward-backward iterations
 Coeff-En:   0.000D+00 0.000D+00 0.000D+00 0.591D+00 0.000D+00 0.000D+00
 Coeff-En:   0.000D+00 0.000D+00 0.000D+00 0.000D+00 0.000D+00 0.000D+00
 Coeff-En:   0.000D+00 0.000D+00 0.506D-04 0.000D+00 0.205D+00 0.000D+00
 Coeff-En:   0.000D+00 0.205D+00
 Coeff:      0.000D+00 0.000D+00 0.000D+00 0.591D+00 0.000D+00 0.000D+00
 Coeff:      0.000D+00 0.000D+00 0.000D+00 0.000D+00 0.000D+00 0.000D+00
 Coeff:      0.000D+00 0.000D+00 0.506D-04 0.000D+00 0.205D+00 0.000D+00
 Coeff:      0.000D+00 0.205D+00
 Gap=     0.000 Goal=   None    Shift=    0.000
 RMSDP=3.61D-08 MaxDP=1.76D-06 DE=-1.85D-07 OVMax= 1.90D-06

 Cycle  24  Pass 1  IDiag  1:
 Density matrix breaks symmetry, PCut= 1.00D-07
 Density has only Abelian symmetry.
 E= -288.564245230964     Delta-E=       -0.000000189447 Rises=F Damp=F
 DIIS: error= 1.48D-02 at cycle  24 NSaved=  20.
 NSaved=20 IEnMin= 3 EnMin= -288.569015813298     IErMin= 3 ErrMin= 7.79D-03
 ErrMax= 1.48D-02  0.00D+00 EMaxC= 1.00D-01 BMatC= 3.21D-03 BMatP= 1.11D-03
 IDIUse=2 WtCom= 0.00D+00 WtEn= 1.00D+00
 EnCoef did     1 forward-backward iterations
 Coeff-En:   0.000D+00 0.000D+00 0.591D+00 0.000D+00 0.000D+00 0.000D+00
 Coeff-En:   0.000D+00 0.000D+00 0.000D+00 0.000D+00 0.000D+00 0.000D+00
 Coeff-En:   0.000D+00 0.518D-04 0.000D+00 0.205D+00 0.000D+00 0.000D+00
 Coeff-En:   0.000D+00 0.205D+00
 Coeff:      0.000D+00 0.000D+00 0.591D+00 0.000D+00 0.000D+00 0.000D+00
 Coeff:      0.000D+00 0.000D+00 0.000D+00 0.000D+00 0.000D+00 0.000D+00
 Coeff:      0.000D+00 0.518D-04 0.000D+00 0.205D+00 0.000D+00 0.000D+00
 Coeff:      0.000D+00 0.205D+00
 Gap=     0.000 Goal=   None    Shift=    0.000
 RMSDP=1.20D-02 MaxDP=3.05D-01 DE=-1.89D-07 OVMax= 1.10D-07

 Cycle  25  Pass 1  IDiag  1:
 Density matrix breaks symmetry, PCut= 1.00D-07
 Density has only Abelian symmetry.
 E= -288.564245649975     Delta-E=       -0.000000419012 Rises=F Damp=F
 DIIS: error= 1.48D-02 at cycle  25 NSaved=  20.
 NSaved=20 IEnMin= 2 EnMin= -288.569015813298     IErMin= 2 ErrMin= 7.79D-03
 ErrMax= 1.48D-02  0.00D+00 EMaxC= 1.00D-01 BMatC= 3.21D-03 BMatP= 1.11D-03
 IDIUse=2 WtCom= 0.00D+00 WtEn= 1.00D+00
 EnCoef did     1 forward-backward iterations
 Coeff-En:   0.000D+00 0.591D+00 0.000D+00 0.000D+00 0.000D+00 0.000D+00
 Coeff-En:   0.000D+00 0.000D+00 0.000D+00 0.000D+00 0.000D+00 0.000D+00
 Coeff-En:   0.000D+00 0.000D+00 0.504D-04 0.000D+00 0.000D+00 0.000D+00
 Coeff-En:   0.205D+00 0.205D+00
 Coeff:      0.000D+00 0.591D+00 0.000D+00 0.000D+00 0.000D+00 0.000D+00
 Coeff:      0.000D+00 0.000D+00 0.000D+00 0.000D+00 0.000D+00 0.000D+00
 Coeff:      0.000D+00 0.000D+00 0.504D-04 0.000D+00 0.000D+00 0.000D+00
 Coeff:      0.205D+00 0.205D+00
 Gap=     0.000 Goal=   None    Shift=    0.000
 RMSDP=1.20D-02 MaxDP=3.05D-01 DE=-4.19D-07 OVMax= 1.18D-06

 Cycle  26  Pass 1  IDiag  1:
 Density matrix breaks symmetry, PCut= 1.00D-07
 Density has only Abelian symmetry.
 E= -288.564245186940     Delta-E=        0.000000463035 Rises=F Damp=F
 DIIS: error= 1.48D-02 at cycle  26 NSaved=  20.
 NSaved=20 IEnMin= 2 EnMin= -288.569015813298     IErMin= 2 ErrMin= 7.79D-03
 ErrMax= 1.48D-02  0.00D+00 EMaxC= 1.00D-01 BMatC= 3.21D-03 BMatP= 1.11D-03
 IDIUse=2 WtCom= 0.00D+00 WtEn= 1.00D+00
 Rare condition: small coef for last iteration:  0.000D+00
 Coeff-En:   0.000D+00 0.591D+00 0.000D+00 0.000D+00 0.000D+00 0.000D+00
 Coeff-En:   0.000D+00 0.000D+00 0.000D+00 0.000D+00 0.000D+00 0.000D+00
 Coeff-En:   0.000D+00 0.000D+00 0.000D+00 0.000D+00 0.000D+00 0.000D+00
 Coeff-En:   0.205D+00 0.205D+00
 Coeff:      0.000D+00 0.591D+00 0.000D+00 0.000D+00 0.000D+00 0.000D+00
 Coeff:      0.000D+00 0.000D+00 0.000D+00 0.000D+00 0.000D+00 0.000D+00
 Coeff:      0.000D+00 0.000D+00 0.000D+00 0.000D+00 0.000D+00 0.000D+00
 Coeff:      0.205D+00 0.205D+00
 Gap=     0.000 Goal=   None    Shift=    0.000
 RMSDP=1.20D-02 MaxDP=3.05D-01 DE= 4.63D-07 OVMax= 5.05D-06

 Cycle  27  Pass 1  IDiag  1:
 Density matrix breaks symmetry, PCut= 1.00D-07
 Density has only Abelian symmetry.
 E= -288.564245715588     Delta-E=       -0.000000528648 Rises=F Damp=F
 DIIS: error= 1.48D-02 at cycle  27 NSaved=  20.
 NSaved=20 IEnMin= 2 EnMin= -288.569015813298     IErMin= 2 ErrMin= 7.79D-03
 ErrMax= 1.48D-02  0.00D+00 EMaxC= 1.00D-01 BMatC= 3.21D-03 BMatP= 1.11D-03
 IDIUse=2 WtCom= 0.00D+00 WtEn= 1.00D+00
 EnCoef did     1 forward-backward iterations
 Coeff-En:   0.000D+00 0.591D+00 0.000D+00 0.000D+00 0.000D+00 0.000D+00
 Coeff-En:   0.000D+00 0.000D+00 0.000D+00 0.000D+00 0.000D+00 0.000D+00
 Coeff-En:   0.000D+00 0.000D+00 0.000D+00 0.000D+00 0.000D+00 0.000D+00
 Coeff-En:   0.205D+00 0.205D+00
 Coeff:      0.000D+00 0.591D+00 0.000D+00 0.000D+00 0.000D+00 0.000D+00
 Coeff:      0.000D+00 0.000D+00 0.000D+00 0.000D+00 0.000D+00 0.000D+00
 Coeff:      0.000D+00 0.000D+00 0.000D+00 0.000D+00 0.000D+00 0.000D+00
 Coeff:      0.205D+00 0.205D+00
 Gap=     0.000 Goal=   None    Shift=    0.000
 RMSDP=1.20D-02 MaxDP=3.05D-01 DE=-5.29D-07 OVMax= 5.55D-06

 Cycle  28  Pass 1  IDiag  1:
 Density matrix breaks symmetry, PCut= 1.00D-07
 Density has only Abelian symmetry.
 E= -288.564245146576     Delta-E=        0.000000569012 Rises=F Damp=F
 DIIS: error= 1.48D-02 at cycle  28 NSaved=  20.
 NSaved=20 IEnMin= 2 EnMin= -288.569015813298     IErMin= 2 ErrMin= 7.79D-03
 ErrMax= 1.48D-02  0.00D+00 EMaxC= 1.00D-01 BMatC= 3.21D-03 BMatP= 1.11D-03
 IDIUse=2 WtCom= 0.00D+00 WtEn= 1.00D+00
 Rare condition: small coef for last iteration:  0.222D-15
 Coeff-En:   0.000D+00 0.591D+00 0.000D+00 0.000D+00 0.000D+00 0.000D+00
 Coeff-En:   0.000D+00 0.000D+00 0.000D+00 0.000D+00 0.000D+00 0.000D+00
 Coeff-En:   0.000D+00 0.000D+00 0.000D+00 0.000D+00 0.000D+00 0.000D+00
 Coeff-En:   0.205D+00 0.205D+00
 Coeff:      0.000D+00 0.591D+00 0.000D+00 0.000D+00 0.000D+00 0.000D+00
 Coeff:      0.000D+00 0.000D+00 0.000D+00 0.000D+00 0.000D+00 0.000D+00
 Coeff:      0.000D+00 0.000D+00 0.000D+00 0.000D+00 0.000D+00 0.000D+00
 Coeff:      0.205D+00 0.205D+00
 Gap=     0.000 Goal=   None    Shift=    0.000
 RMSDP=1.20D-02 MaxDP=3.05D-01 DE= 5.69D-07 OVMax= 5.47D-06

 Cycle  29  Pass 1  IDiag  1:
 Density matrix breaks symmetry, PCut= 1.00D-07
 Density has only Abelian symmetry.
 E= -288.564245758381     Delta-E=       -0.000000611805 Rises=F Damp=F
 DIIS: error= 1.48D-02 at cycle  29 NSaved=  20.
 NSaved=20 IEnMin= 2 EnMin= -288.569015813298     IErMin= 2 ErrMin= 7.79D-03
 ErrMax= 1.48D-02  0.00D+00 EMaxC= 1.00D-01 BMatC= 3.21D-03 BMatP= 1.11D-03
 IDIUse=2 WtCom= 0.00D+00 WtEn= 1.00D+00
 EnCoef did     1 forward-backward iterations
 Coeff-En:   0.000D+00 0.591D+00 0.000D+00 0.000D+00 0.000D+00 0.000D+00
 Coeff-En:   0.000D+00 0.000D+00 0.000D+00 0.000D+00 0.000D+00 0.000D+00
 Coeff-En:   0.000D+00 0.000D+00 0.000D+00 0.000D+00 0.000D+00 0.000D+00
 Coeff-En:   0.205D+00 0.205D+00
 Coeff:      0.000D+00 0.591D+00 0.000D+00 0.000D+00 0.000D+00 0.000D+00
 Coeff:      0.000D+00 0.000D+00 0.000D+00 0.000D+00 0.000D+00 0.000D+00
 Coeff:      0.000D+00 0.000D+00 0.000D+00 0.000D+00 0.000D+00 0.000D+00
 Coeff:      0.205D+00 0.205D+00
 Gap=     0.000 Goal=   None    Shift=    0.000
 RMSDP=1.20D-02 MaxDP=3.05D-01 DE=-6.12D-07 OVMax= 5.53D-06

 Cycle  30  Pass 1  IDiag  1:
 Density matrix breaks symmetry, PCut= 1.00D-07
 Density has only Abelian symmetry.
 E= -288.564245132514     Delta-E=        0.000000625867 Rises=F Damp=F
 DIIS: error= 1.48D-02 at cycle  30 NSaved=  20.
 NSaved=20 IEnMin= 2 EnMin= -288.569015813298     IErMin= 2 ErrMin= 7.79D-03
 ErrMax= 1.48D-02  0.00D+00 EMaxC= 1.00D-01 BMatC= 3.21D-03 BMatP= 1.11D-03
 IDIUse=2 WtCom= 0.00D+00 WtEn= 1.00D+00
 Rare condition: small coef for last iteration: -0.222D-15
 Coeff-En:   0.000D+00 0.591D+00 0.000D+00 0.000D+00 0.000D+00 0.000D+00
 Coeff-En:   0.000D+00 0.000D+00 0.000D+00 0.000D+00 0.000D+00 0.000D+00
 Coeff-En:   0.000D+00 0.000D+00 0.000D+00 0.000D+00 0.000D+00 0.000D+00
 Coeff-En:   0.205D+00 0.205D+00
 Coeff:      0.000D+00 0.591D+00 0.000D+00 0.000D+00 0.000D+00 0.000D+00
 Coeff:      0.000D+00 0.000D+00 0.000D+00 0.000D+00 0.000D+00 0.000D+00
 Coeff:      0.000D+00 0.000D+00 0.000D+00 0.000D+00 0.000D+00 0.000D+00
 Coeff:      0.205D+00 0.205D+00
 Gap=     0.000 Goal=   None    Shift=    0.000
 RMSDP=1.20D-02 MaxDP=3.05D-01 DE= 6.26D-07 OVMax= 5.46D-06

 Cycle  31  Pass 1  IDiag  1:
 Density matrix breaks symmetry, PCut= 1.00D-07
 Density has only Abelian symmetry.
 E= -288.564245776433     Delta-E=       -0.000000643919 Rises=F Damp=F
 DIIS: error= 1.48D-02 at cycle  31 NSaved=  20.
 NSaved=20 IEnMin= 2 EnMin= -288.569015813298     IErMin= 2 ErrMin= 7.79D-03
 ErrMax= 1.48D-02  0.00D+00 EMaxC= 1.00D-01 BMatC= 3.21D-03 BMatP= 1.11D-03
 IDIUse=2 WtCom= 0.00D+00 WtEn= 1.00D+00
 EnCoef did     1 forward-backward iterations
 Coeff-En:   0.000D+00 0.591D+00 0.000D+00 0.000D+00 0.000D+00 0.000D+00
 Coeff-En:   0.000D+00 0.000D+00 0.000D+00 0.000D+00 0.000D+00 0.000D+00
 Coeff-En:   0.000D+00 0.000D+00 0.000D+00 0.000D+00 0.000D+00 0.000D+00
 Coeff-En:   0.205D+00 0.205D+00
 Coeff:      0.000D+00 0.591D+00 0.000D+00 0.000D+00 0.000D+00 0.000D+00
 Coeff:      0.000D+00 0.000D+00 0.000D+00 0.000D+00 0.000D+00 0.000D+00
 Coeff:      0.000D+00 0.000D+00 0.000D+00 0.000D+00 0.000D+00 0.000D+00
 Coeff:      0.205D+00 0.205D+00
 Gap=     0.000 Goal=   None    Shift=    0.000
 RMSDP=1.20D-02 MaxDP=3.05D-01 DE=-6.44D-07 OVMax= 5.48D-06

 Cycle  32  Pass 1  IDiag  1:
 Density matrix breaks symmetry, PCut= 1.00D-07
 Density has only Abelian symmetry.
 E= -288.564245127207     Delta-E=        0.000000649226 Rises=F Damp=F
 DIIS: error= 1.48D-02 at cycle  32 NSaved=  20.
 NSaved=20 IEnMin= 2 EnMin= -288.569015813298     IErMin= 2 ErrMin= 7.79D-03
 ErrMax= 1.48D-02  0.00D+00 EMaxC= 1.00D-01 BMatC= 3.21D-03 BMatP= 1.11D-03
 IDIUse=2 WtCom= 0.00D+00 WtEn= 1.00D+00
 Rare condition: small coef for last iteration:  0.000D+00
 Coeff-En:   0.000D+00 0.591D+00 0.000D+00 0.000D+00 0.000D+00 0.000D+00
 Coeff-En:   0.000D+00 0.000D+00 0.000D+00 0.000D+00 0.000D+00 0.000D+00
 Coeff-En:   0.000D+00 0.000D+00 0.000D+00 0.000D+00 0.000D+00 0.000D+00
 Coeff-En:   0.205D+00 0.205D+00
 Coeff:      0.000D+00 0.591D+00 0.000D+00 0.000D+00 0.000D+00 0.000D+00
 Coeff:      0.000D+00 0.000D+00 0.000D+00 0.000D+00 0.000D+00 0.000D+00
 Coeff:      0.000D+00 0.000D+00 0.000D+00 0.000D+00 0.000D+00 0.000D+00
 Coeff:      0.205D+00 0.205D+00
 Gap=     0.000 Goal=   None    Shift=    0.000
 RMSDP=1.20D-02 MaxDP=3.05D-01 DE= 6.49D-07 OVMax= 5.45D-06

 Cycle  33  Pass 1  IDiag  1:
 Density matrix breaks symmetry, PCut= 1.00D-07
 Density has only Abelian symmetry.
 E= -288.564245784247     Delta-E=       -0.000000657040 Rises=F Damp=F
 DIIS: error= 1.48D-02 at cycle  33 NSaved=  20.
 NSaved=20 IEnMin= 2 EnMin= -288.569015813298     IErMin= 2 ErrMin= 7.79D-03
 ErrMax= 1.48D-02  0.00D+00 EMaxC= 1.00D-01 BMatC= 3.21D-03 BMatP= 1.11D-03
 IDIUse=2 WtCom= 0.00D+00 WtEn= 1.00D+00
 EnCoef did     1 forward-backward iterations
 Coeff-En:   0.000D+00 0.591D+00 0.000D+00 0.000D+00 0.000D+00 0.000D+00
 Coeff-En:   0.000D+00 0.000D+00 0.000D+00 0.000D+00 0.000D+00 0.000D+00
 Coeff-En:   0.000D+00 0.000D+00 0.000D+00 0.000D+00 0.000D+00 0.000D+00
 Coeff-En:   0.205D+00 0.205D+00
 Coeff:      0.000D+00 0.591D+00 0.000D+00 0.000D+00 0.000D+00 0.000D+00
 Coeff:      0.000D+00 0.000D+00 0.000D+00 0.000D+00 0.000D+00 0.000D+00
 Coeff:      0.000D+00 0.000D+00 0.000D+00 0.000D+00 0.000D+00 0.000D+00
 Coeff:      0.205D+00 0.205D+00
 Gap=     0.000 Goal=   None    Shift=    0.000
 RMSDP=1.20D-02 MaxDP=3.05D-01 DE=-6.57D-07 OVMax= 5.46D-06

 Cycle  34  Pass 1  IDiag  1:
 Density matrix breaks symmetry, PCut= 1.00D-07
 Density has only Abelian symmetry.
 E= -288.564245125176     Delta-E=        0.000000659071 Rises=F Damp=F
 DIIS: error= 1.48D-02 at cycle  34 NSaved=  20.
 NSaved=20 IEnMin= 2 EnMin= -288.569015813298     IErMin= 2 ErrMin= 7.79D-03
 ErrMax= 1.48D-02  0.00D+00 EMaxC= 1.00D-01 BMatC= 3.21D-03 BMatP= 1.11D-03
 IDIUse=2 WtCom= 0.00D+00 WtEn= 1.00D+00
 Rare condition: small coef for last iteration:  0.000D+00
 Coeff-En:   0.000D+00 0.591D+00 0.000D+00 0.000D+00 0.000D+00 0.000D+00
 Coeff-En:   0.000D+00 0.000D+00 0.000D+00 0.000D+00 0.000D+00 0.000D+00
 Coeff-En:   0.000D+00 0.000D+00 0.000D+00 0.000D+00 0.000D+00 0.000D+00
 Coeff-En:   0.205D+00 0.205D+00
 Coeff:      0.000D+00 0.591D+00 0.000D+00 0.000D+00 0.000D+00 0.000D+00
 Coeff:      0.000D+00 0.000D+00 0.000D+00 0.000D+00 0.000D+00 0.000D+00
 Coeff:      0.000D+00 0.000D+00 0.000D+00 0.000D+00 0.000D+00 0.000D+00
 Coeff:      0.205D+00 0.205D+00
 Gap=     0.000 Goal=   None    Shift=    0.000
 RMSDP=1.20D-02 MaxDP=3.05D-01 DE= 6.59D-07 OVMax= 5.44D-06

 Cycle  35  Pass 1  IDiag  1:
 Density matrix breaks symmetry, PCut= 1.00D-07
 Density has only Abelian symmetry.
 E= -288.564245787557     Delta-E=       -0.000000662380 Rises=F Damp=F
 DIIS: error= 1.48D-02 at cycle  35 NSaved=  20.
 NSaved=20 IEnMin= 2 EnMin= -288.569015813298     IErMin= 2 ErrMin= 7.79D-03
 ErrMax= 1.48D-02  0.00D+00 EMaxC= 1.00D-01 BMatC= 3.21D-03 BMatP= 1.11D-03
 IDIUse=2 WtCom= 0.00D+00 WtEn= 1.00D+00
 EnCoef did     1 forward-backward iterations
 Coeff-En:   0.000D+00 0.591D+00 0.000D+00 0.000D+00 0.000D+00 0.000D+00
 Coeff-En:   0.000D+00 0.000D+00 0.000D+00 0.000D+00 0.000D+00 0.000D+00
 Coeff-En:   0.000D+00 0.000D+00 0.000D+00 0.000D+00 0.000D+00 0.000D+00
 Coeff-En:   0.205D+00 0.205D+00
 Coeff:      0.000D+00 0.591D+00 0.000D+00 0.000D+00 0.000D+00 0.000D+00
 Coeff:      0.000D+00 0.000D+00 0.000D+00 0.000D+00 0.000D+00 0.000D+00
 Coeff:      0.000D+00 0.000D+00 0.000D+00 0.000D+00 0.000D+00 0.000D+00
 Coeff:      0.205D+00 0.205D+00
 Gap=     0.000 Goal=   None    Shift=    0.000
 RMSDP=1.20D-02 MaxDP=3.05D-01 DE=-6.62D-07 OVMax= 5.45D-06

 Cycle  36  Pass 1  IDiag  1:
 Density matrix breaks symmetry, PCut= 1.00D-07
 Density has only Abelian symmetry.
 E= -288.564245124390     Delta-E=        0.000000663167 Rises=F Damp=F
 DIIS: error= 1.48D-02 at cycle  36 NSaved=  20.
 NSaved=20 IEnMin= 2 EnMin= -288.569015813298     IErMin= 2 ErrMin= 7.79D-03
 ErrMax= 1.48D-02  0.00D+00 EMaxC= 1.00D-01 BMatC= 3.21D-03 BMatP= 1.11D-03
 IDIUse=2 WtCom= 0.00D+00 WtEn= 1.00D+00
 Rare condition: small coef for last iteration:  0.000D+00
 Coeff-En:   0.000D+00 0.591D+00 0.000D+00 0.000D+00 0.000D+00 0.000D+00
 Coeff-En:   0.000D+00 0.000D+00 0.000D+00 0.000D+00 0.000D+00 0.000D+00
 Coeff-En:   0.000D+00 0.000D+00 0.000D+00 0.000D+00 0.000D+00 0.000D+00
 Coeff-En:   0.205D+00 0.205D+00
 Coeff:      0.000D+00 0.591D+00 0.000D+00 0.000D+00 0.000D+00 0.000D+00
 Coeff:      0.000D+00 0.000D+00 0.000D+00 0.000D+00 0.000D+00 0.000D+00
 Coeff:      0.000D+00 0.000D+00 0.000D+00 0.000D+00 0.000D+00 0.000D+00
 Coeff:      0.205D+00 0.205D+00
 Gap=     0.000 Goal=   None    Shift=    0.000
 RMSDP=1.20D-02 MaxDP=3.05D-01 DE= 6.63D-07 OVMax= 5.44D-06

 Cycle  37  Pass 1  IDiag  1:
 Density matrix breaks symmetry, PCut= 1.00D-07
 Density has only Abelian symmetry.
 E= -288.564245788959     Delta-E=       -0.000000664569 Rises=F Damp=F
 DIIS: error= 1.48D-02 at cycle  37 NSaved=  20.
 NSaved=20 IEnMin= 2 EnMin= -288.569015813298     IErMin= 2 ErrMin= 7.79D-03
 ErrMax= 1.48D-02  0.00D+00 EMaxC= 1.00D-01 BMatC= 3.21D-03 BMatP= 1.11D-03
 IDIUse=2 WtCom= 0.00D+00 WtEn= 1.00D+00
 EnCoef did     1 forward-backward iterations
 Coeff-En:   0.000D+00 0.591D+00 0.000D+00 0.000D+00 0.000D+00 0.000D+00
 Coeff-En:   0.000D+00 0.000D+00 0.000D+00 0.000D+00 0.000D+00 0.000D+00
 Coeff-En:   0.000D+00 0.000D+00 0.000D+00 0.000D+00 0.000D+00 0.000D+00
 Coeff-En:   0.205D+00 0.205D+00
 Coeff:      0.000D+00 0.591D+00 0.000D+00 0.000D+00 0.000D+00 0.000D+00
 Coeff:      0.000D+00 0.000D+00 0.000D+00 0.000D+00 0.000D+00 0.000D+00
 Coeff:      0.000D+00 0.000D+00 0.000D+00 0.000D+00 0.000D+00 0.000D+00
 Coeff:      0.205D+00 0.205D+00
 Gap=     0.000 Goal=   None    Shift=    0.000
 RMSDP=1.20D-02 MaxDP=3.05D-01 DE=-6.65D-07 OVMax= 5.44D-06

 Cycle  38  Pass 1  IDiag  1:
 Density matrix breaks symmetry, PCut= 1.00D-07
 Density has only Abelian symmetry.
 E= -288.564245124082     Delta-E=        0.000000664877 Rises=F Damp=F
 DIIS: error= 1.48D-02 at cycle  38 NSaved=  20.
 NSaved=20 IEnMin= 2 EnMin= -288.569015813298     IErMin= 2 ErrMin= 7.79D-03
 ErrMax= 1.48D-02  0.00D+00 EMaxC= 1.00D-01 BMatC= 3.21D-03 BMatP= 1.11D-03
 IDIUse=2 WtCom= 0.00D+00 WtEn= 1.00D+00
 Rare condition: small coef for last iteration:  0.222D-15
 Coeff-En:   0.000D+00 0.591D+00 0.000D+00 0.000D+00 0.000D+00 0.000D+00
 Coeff-En:   0.000D+00 0.000D+00 0.000D+00 0.000D+00 0.000D+00 0.000D+00
 Coeff-En:   0.000D+00 0.000D+00 0.000D+00 0.000D+00 0.000D+00 0.000D+00
 Coeff-En:   0.205D+00 0.205D+00
 Coeff:      0.000D+00 0.591D+00 0.000D+00 0.000D+00 0.000D+00 0.000D+00
 Coeff:      0.000D+00 0.000D+00 0.000D+00 0.000D+00 0.000D+00 0.000D+00
 Coeff:      0.000D+00 0.000D+00 0.000D+00 0.000D+00 0.000D+00 0.000D+00
 Coeff:      0.205D+00 0.205D+00
 Gap=     0.000 Goal=   None    Shift=    0.000
 RMSDP=1.20D-02 MaxDP=3.05D-01 DE= 6.65D-07 OVMax= 5.44D-06

 Cycle  39  Pass 1  IDiag  1:
 Density matrix breaks symmetry, PCut= 1.00D-07
 Density has only Abelian symmetry.
 E= -288.564245789550     Delta-E=       -0.000000665468 Rises=F Damp=F
 DIIS: error= 1.48D-02 at cycle  39 NSaved=  20.
 NSaved=20 IEnMin= 2 EnMin= -288.569015813298     IErMin= 2 ErrMin= 7.79D-03
 ErrMax= 1.48D-02  0.00D+00 EMaxC= 1.00D-01 BMatC= 3.21D-03 BMatP= 1.11D-03
 IDIUse=2 WtCom= 0.00D+00 WtEn= 1.00D+00
 EnCoef did     1 forward-backward iterations
 Coeff-En:   0.000D+00 0.591D+00 0.000D+00 0.000D+00 0.000D+00 0.000D+00
 Coeff-En:   0.000D+00 0.000D+00 0.000D+00 0.000D+00 0.000D+00 0.000D+00
 Coeff-En:   0.000D+00 0.000D+00 0.000D+00 0.000D+00 0.000D+00 0.000D+00
 Coeff-En:   0.205D+00 0.205D+00
 Coeff:      0.000D+00 0.591D+00 0.000D+00 0.000D+00 0.000D+00 0.000D+00
 Coeff:      0.000D+00 0.000D+00 0.000D+00 0.000D+00 0.000D+00 0.000D+00
 Coeff:      0.000D+00 0.000D+00 0.000D+00 0.000D+00 0.000D+00 0.000D+00
 Coeff:      0.205D+00 0.205D+00
 Gap=     0.000 Goal=   None    Shift=    0.000
 RMSDP=1.20D-02 MaxDP=3.05D-01 DE=-6.65D-07 OVMax= 5.44D-06

 Cycle  40  Pass 1  IDiag  1:
 Density matrix breaks symmetry, PCut= 1.00D-07
 Density has only Abelian symmetry.
 E= -288.564245123960     Delta-E=        0.000000665590 Rises=F Damp=F
 DIIS: error= 1.48D-02 at cycle  40 NSaved=  20.
 NSaved=20 IEnMin= 2 EnMin= -288.569015813298     IErMin= 2 ErrMin= 7.79D-03
 ErrMax= 1.48D-02  0.00D+00 EMaxC= 1.00D-01 BMatC= 3.21D-03 BMatP= 1.11D-03
 IDIUse=2 WtCom= 0.00D+00 WtEn= 1.00D+00
 Rare condition: small coef for last iteration:  0.000D+00
 Coeff-En:   0.000D+00 0.591D+00 0.000D+00 0.000D+00 0.000D+00 0.000D+00
 Coeff-En:   0.000D+00 0.000D+00 0.000D+00 0.000D+00 0.000D+00 0.000D+00
 Coeff-En:   0.000D+00 0.000D+00 0.000D+00 0.000D+00 0.000D+00 0.000D+00
 Coeff-En:   0.205D+00 0.205D+00
 Coeff:      0.000D+00 0.591D+00 0.000D+00 0.000D+00 0.000D+00 0.000D+00
 Coeff:      0.000D+00 0.000D+00 0.000D+00 0.000D+00 0.000D+00 0.000D+00
 Coeff:      0.000D+00 0.000D+00 0.000D+00 0.000D+00 0.000D+00 0.000D+00
 Coeff:      0.205D+00 0.205D+00
 Gap=     0.000 Goal=   None    Shift=    0.000
 RMSDP=1.20D-02 MaxDP=3.05D-01 DE= 6.66D-07 OVMax= 5.44D-06

 Cycle  41  Pass 1  IDiag  1:
 Density matrix breaks symmetry, PCut= 1.00D-07
 Density has only Abelian symmetry.
 E= -288.564245789797     Delta-E=       -0.000000665838 Rises=F Damp=F
 DIIS: error= 1.48D-02 at cycle  41 NSaved=  20.
 NSaved=20 IEnMin= 2 EnMin= -288.569015813298     IErMin= 2 ErrMin= 7.79D-03
 ErrMax= 1.48D-02  0.00D+00 EMaxC= 1.00D-01 BMatC= 3.21D-03 BMatP= 1.11D-03
 IDIUse=2 WtCom= 0.00D+00 WtEn= 1.00D+00
 EnCoef did     1 forward-backward iterations
 Coeff-En:   0.000D+00 0.591D+00 0.000D+00 0.000D+00 0.000D+00 0.000D+00
 Coeff-En:   0.000D+00 0.000D+00 0.000D+00 0.000D+00 0.000D+00 0.000D+00
 Coeff-En:   0.000D+00 0.000D+00 0.000D+00 0.000D+00 0.000D+00 0.000D+00
 Coeff-En:   0.205D+00 0.205D+00
 Coeff:      0.000D+00 0.591D+00 0.000D+00 0.000D+00 0.000D+00 0.000D+00
 Coeff:      0.000D+00 0.000D+00 0.000D+00 0.000D+00 0.000D+00 0.000D+00
 Coeff:      0.000D+00 0.000D+00 0.000D+00 0.000D+00 0.000D+00 0.000D+00
 Coeff:      0.205D+00 0.205D+00
 Gap=     0.000 Goal=   None    Shift=    0.000
 RMSDP=1.20D-02 MaxDP=3.05D-01 DE=-6.66D-07 OVMax= 5.44D-06

 Cycle  42  Pass 1  IDiag  1:
 Density matrix breaks symmetry, PCut= 1.00D-07
 Density has only Abelian symmetry.
 E= -288.564245123911     Delta-E=        0.000000665887 Rises=F Damp=F
 DIIS: error= 1.48D-02 at cycle  42 NSaved=  20.
 NSaved=20 IEnMin= 2 EnMin= -288.569015813298     IErMin= 2 ErrMin= 7.79D-03
 ErrMax= 1.48D-02  0.00D+00 EMaxC= 1.00D-01 BMatC= 3.21D-03 BMatP= 1.11D-03
 IDIUse=2 WtCom= 0.00D+00 WtEn= 1.00D+00
 Rare condition: small coef for last iteration:  0.111D-15
 Coeff-En:   0.000D+00 0.591D+00 0.000D+00 0.000D+00 0.000D+00 0.000D+00
 Coeff-En:   0.000D+00 0.000D+00 0.000D+00 0.000D+00 0.000D+00 0.000D+00
 Coeff-En:   0.000D+00 0.000D+00 0.000D+00 0.000D+00 0.000D+00 0.000D+00
 Coeff-En:   0.205D+00 0.205D+00
 Coeff:      0.000D+00 0.591D+00 0.000D+00 0.000D+00 0.000D+00 0.000D+00
 Coeff:      0.000D+00 0.000D+00 0.000D+00 0.000D+00 0.000D+00 0.000D+00
 Coeff:      0.000D+00 0.000D+00 0.000D+00 0.000D+00 0.000D+00 0.000D+00
 Coeff:      0.205D+00 0.205D+00
 Gap=     0.000 Goal=   None    Shift=    0.000
 RMSDP=1.20D-02 MaxDP=3.05D-01 DE= 6.66D-07 OVMax= 5.44D-06

 Cycle  43  Pass 1  IDiag  1:
 Density matrix breaks symmetry, PCut= 1.00D-07
 Density has only Abelian symmetry.
 E= -288.564245789901     Delta-E=       -0.000000665990 Rises=F Damp=F
 DIIS: error= 1.48D-02 at cycle  43 NSaved=  20.
 NSaved=20 IEnMin= 2 EnMin= -288.569015813298     IErMin= 2 ErrMin= 7.79D-03
 ErrMax= 1.48D-02  0.00D+00 EMaxC= 1.00D-01 BMatC= 3.21D-03 BMatP= 1.11D-03
 IDIUse=2 WtCom= 0.00D+00 WtEn= 1.00D+00
 EnCoef did     1 forward-backward iterations
 Coeff-En:   0.000D+00 0.591D+00 0.000D+00 0.000D+00 0.000D+00 0.000D+00
 Coeff-En:   0.000D+00 0.000D+00 0.000D+00 0.000D+00 0.000D+00 0.000D+00
 Coeff-En:   0.000D+00 0.000D+00 0.000D+00 0.000D+00 0.000D+00 0.000D+00
 Coeff-En:   0.205D+00 0.205D+00
 Coeff:      0.000D+00 0.591D+00 0.000D+00 0.000D+00 0.000D+00 0.000D+00
 Coeff:      0.000D+00 0.000D+00 0.000D+00 0.000D+00 0.000D+00 0.000D+00
 Coeff:      0.000D+00 0.000D+00 0.000D+00 0.000D+00 0.000D+00 0.000D+00
 Coeff:      0.205D+00 0.205D+00
 Gap=     0.000 Goal=   None    Shift=    0.000
 RMSDP=1.20D-02 MaxDP=3.05D-01 DE=-6.66D-07 OVMax= 5.44D-06

 Cycle  44  Pass 1  IDiag  1:
 Density matrix breaks symmetry, PCut= 1.00D-07
 Density has only Abelian symmetry.
 E= -288.564245123891     Delta-E=        0.000000666010 Rises=F Damp=F
 DIIS: error= 1.48D-02 at cycle  44 NSaved=  20.
 NSaved=20 IEnMin= 2 EnMin= -288.569015813298     IErMin= 2 ErrMin= 7.79D-03
 ErrMax= 1.48D-02  0.00D+00 EMaxC= 1.00D-01 BMatC= 3.21D-03 BMatP= 1.11D-03
 IDIUse=2 WtCom= 0.00D+00 WtEn= 1.00D+00
 Rare condition: small coef for last iteration:  0.222D-15
 Coeff-En:   0.000D+00 0.591D+00 0.000D+00 0.000D+00 0.000D+00 0.000D+00
 Coeff-En:   0.000D+00 0.000D+00 0.000D+00 0.000D+00 0.000D+00 0.000D+00
 Coeff-En:   0.000D+00 0.000D+00 0.000D+00 0.000D+00 0.000D+00 0.000D+00
 Coeff-En:   0.205D+00 0.205D+00
 Coeff:      0.000D+00 0.591D+00 0.000D+00 0.000D+00 0.000D+00 0.000D+00
 Coeff:      0.000D+00 0.000D+00 0.000D+00 0.000D+00 0.000D+00 0.000D+00
 Coeff:      0.000D+00 0.000D+00 0.000D+00 0.000D+00 0.000D+00 0.000D+00
 Coeff:      0.205D+00 0.205D+00
 Gap=     0.000 Goal=   None    Shift=    0.000
 RMSDP=1.20D-02 MaxDP=3.05D-01 DE= 6.66D-07 OVMax= 5.44D-06

 Cycle  45  Pass 1  IDiag  1:
 Density matrix breaks symmetry, PCut= 1.00D-07
 Density has only Abelian symmetry.
 E= -288.564245789944     Delta-E=       -0.000000666053 Rises=F Damp=F
 DIIS: error= 1.48D-02 at cycle  45 NSaved=  20.
 NSaved=20 IEnMin= 2 EnMin= -288.569015813298     IErMin= 2 ErrMin= 7.79D-03
 ErrMax= 1.48D-02  0.00D+00 EMaxC= 1.00D-01 BMatC= 3.21D-03 BMatP= 1.11D-03
 IDIUse=2 WtCom= 0.00D+00 WtEn= 1.00D+00
 EnCoef did     1 forward-backward iterations
 Coeff-En:   0.000D+00 0.591D+00 0.000D+00 0.000D+00 0.000D+00 0.000D+00
 Coeff-En:   0.000D+00 0.000D+00 0.000D+00 0.000D+00 0.000D+00 0.000D+00
 Coeff-En:   0.000D+00 0.000D+00 0.000D+00 0.000D+00 0.000D+00 0.000D+00
 Coeff-En:   0.205D+00 0.205D+00
 Coeff:      0.000D+00 0.591D+00 0.000D+00 0.000D+00 0.000D+00 0.000D+00
 Coeff:      0.000D+00 0.000D+00 0.000D+00 0.000D+00 0.000D+00 0.000D+00
 Coeff:      0.000D+00 0.000D+00 0.000D+00 0.000D+00 0.000D+00 0.000D+00
 Coeff:      0.205D+00 0.205D+00
 Gap=     0.000 Goal=   None    Shift=    0.000
 RMSDP=1.20D-02 MaxDP=3.05D-01 DE=-6.66D-07 OVMax= 5.44D-06

 Cycle  46  Pass 1  IDiag  1:
 Density matrix breaks symmetry, PCut= 1.00D-07
 Density has only Abelian symmetry.
 E= -288.564245123890     Delta-E=        0.000000666054 Rises=F Damp=F
 DIIS: error= 1.48D-02 at cycle  46 NSaved=  20.
 NSaved=20 IEnMin= 2 EnMin= -288.569015813298     IErMin= 2 ErrMin= 7.79D-03
 ErrMax= 1.48D-02  0.00D+00 EMaxC= 1.00D-01 BMatC= 3.21D-03 BMatP= 1.11D-03
 IDIUse=2 WtCom= 0.00D+00 WtEn= 1.00D+00
 Rare condition: small coef for last iteration:  0.000D+00
 Coeff-En:   0.000D+00 0.591D+00 0.000D+00 0.000D+00 0.000D+00 0.000D+00
 Coeff-En:   0.000D+00 0.000D+00 0.000D+00 0.000D+00 0.000D+00 0.000D+00
 Coeff-En:   0.000D+00 0.000D+00 0.000D+00 0.000D+00 0.000D+00 0.000D+00
 Coeff-En:   0.205D+00 0.205D+00
 Coeff:      0.000D+00 0.591D+00 0.000D+00 0.000D+00 0.000D+00 0.000D+00
 Coeff:      0.000D+00 0.000D+00 0.000D+00 0.000D+00 0.000D+00 0.000D+00
 Coeff:      0.000D+00 0.000D+00 0.000D+00 0.000D+00 0.000D+00 0.000D+00
 Coeff:      0.205D+00 0.205D+00
 Gap=     0.000 Goal=   None    Shift=    0.000
 RMSDP=1.20D-02 MaxDP=3.05D-01 DE= 6.66D-07 OVMax= 5.44D-06

 Cycle  47  Pass 1  IDiag  1:
 Density matrix breaks symmetry, PCut= 1.00D-07
 Density has only Abelian symmetry.
 E= -288.564245789961     Delta-E=       -0.000000666071 Rises=F Damp=F
 DIIS: error= 1.48D-02 at cycle  47 NSaved=  20.
 NSaved=20 IEnMin= 2 EnMin= -288.569015813298     IErMin= 2 ErrMin= 7.79D-03
 ErrMax= 1.48D-02  0.00D+00 EMaxC= 1.00D-01 BMatC= 3.21D-03 BMatP= 1.11D-03
 IDIUse=2 WtCom= 0.00D+00 WtEn= 1.00D+00
 EnCoef did     1 forward-backward iterations
 Coeff-En:   0.000D+00 0.591D+00 0.000D+00 0.000D+00 0.000D+00 0.000D+00
 Coeff-En:   0.000D+00 0.000D+00 0.000D+00 0.000D+00 0.000D+00 0.000D+00
 Coeff-En:   0.000D+00 0.000D+00 0.000D+00 0.000D+00 0.000D+00 0.000D+00
 Coeff-En:   0.205D+00 0.205D+00
 Coeff:      0.000D+00 0.591D+00 0.000D+00 0.000D+00 0.000D+00 0.000D+00
 Coeff:      0.000D+00 0.000D+00 0.000D+00 0.000D+00 0.000D+00 0.000D+00
 Coeff:      0.000D+00 0.000D+00 0.000D+00 0.000D+00 0.000D+00 0.000D+00
 Coeff:      0.205D+00 0.205D+00
 Gap=     0.000 Goal=   None    Shift=    0.000
 RMSDP=1.20D-02 MaxDP=3.05D-01 DE=-6.66D-07 OVMax= 5.44D-06

 Cycle  48  Pass 1  IDiag  1:
 Density matrix breaks symmetry, PCut= 1.00D-07
 Density has only Abelian symmetry.
 E= -288.564245123881     Delta-E=        0.000000666079 Rises=F Damp=F
 DIIS: error= 1.48D-02 at cycle  48 NSaved=  20.
 NSaved=20 IEnMin= 2 EnMin= -288.569015813298     IErMin= 2 ErrMin= 7.79D-03
 ErrMax= 1.48D-02  0.00D+00 EMaxC= 1.00D-01 BMatC= 3.21D-03 BMatP= 1.11D-03
 IDIUse=2 WtCom= 0.00D+00 WtEn= 1.00D+00
 Rare condition: small coef for last iteration:  0.000D+00
 Coeff-En:   0.000D+00 0.591D+00 0.000D+00 0.000D+00 0.000D+00 0.000D+00
 Coeff-En:   0.000D+00 0.000D+00 0.000D+00 0.000D+00 0.000D+00 0.000D+00
 Coeff-En:   0.000D+00 0.000D+00 0.000D+00 0.000D+00 0.000D+00 0.000D+00
 Coeff-En:   0.205D+00 0.205D+00
 Coeff:      0.000D+00 0.591D+00 0.000D+00 0.000D+00 0.000D+00 0.000D+00
 Coeff:      0.000D+00 0.000D+00 0.000D+00 0.000D+00 0.000D+00 0.000D+00
 Coeff:      0.000D+00 0.000D+00 0.000D+00 0.000D+00 0.000D+00 0.000D+00
 Coeff:      0.205D+00 0.205D+00
 Gap=     0.000 Goal=   None    Shift=    0.000
 RMSDP=1.20D-02 MaxDP=3.05D-01 DE= 6.66D-07 OVMax= 5.44D-06

 Cycle  49  Pass 1  IDiag  1:
 Density matrix breaks symmetry, PCut= 1.00D-07
 Density has only Abelian symmetry.
 E= -288.564245789969     Delta-E=       -0.000000666087 Rises=F Damp=F
 DIIS: error= 1.48D-02 at cycle  49 NSaved=  20.
 NSaved=20 IEnMin= 2 EnMin= -288.569015813298     IErMin= 2 ErrMin= 7.79D-03
 ErrMax= 1.48D-02  0.00D+00 EMaxC= 1.00D-01 BMatC= 3.21D-03 BMatP= 1.11D-03
 IDIUse=2 WtCom= 0.00D+00 WtEn= 1.00D+00
 EnCoef did     1 forward-backward iterations
 Coeff-En:   0.000D+00 0.591D+00 0.000D+00 0.000D+00 0.000D+00 0.000D+00
 Coeff-En:   0.000D+00 0.000D+00 0.000D+00 0.000D+00 0.000D+00 0.000D+00
 Coeff-En:   0.000D+00 0.000D+00 0.000D+00 0.000D+00 0.000D+00 0.000D+00
 Coeff-En:   0.205D+00 0.205D+00
 Coeff:      0.000D+00 0.591D+00 0.000D+00 0.000D+00 0.000D+00 0.000D+00
 Coeff:      0.000D+00 0.000D+00 0.000D+00 0.000D+00 0.000D+00 0.000D+00
 Coeff:      0.000D+00 0.000D+00 0.000D+00 0.000D+00 0.000D+00 0.000D+00
 Coeff:      0.205D+00 0.205D+00
 Gap=     0.000 Goal=   None    Shift=    0.000
 RMSDP=1.20D-02 MaxDP=3.05D-01 DE=-6.66D-07 OVMax= 5.44D-06

 Cycle  50  Pass 1  IDiag  1:
 Density matrix breaks symmetry, PCut= 1.00D-07
 Density has only Abelian symmetry.
 E= -288.564245123878     Delta-E=        0.000000666090 Rises=F Damp=F
 DIIS: error= 1.48D-02 at cycle  50 NSaved=  20.
 NSaved=20 IEnMin= 2 EnMin= -288.569015813298     IErMin= 2 ErrMin= 7.79D-03
 ErrMax= 1.48D-02  0.00D+00 EMaxC= 1.00D-01 BMatC= 3.21D-03 BMatP= 1.11D-03
 IDIUse=2 WtCom= 0.00D+00 WtEn= 1.00D+00
 Rare condition: small coef for last iteration:  0.000D+00
 Coeff-En:   0.000D+00 0.591D+00 0.000D+00 0.000D+00 0.000D+00 0.000D+00
 Coeff-En:   0.000D+00 0.000D+00 0.000D+00 0.000D+00 0.000D+00 0.000D+00
 Coeff-En:   0.000D+00 0.000D+00 0.000D+00 0.000D+00 0.000D+00 0.000D+00
 Coeff-En:   0.205D+00 0.205D+00
 Coeff:      0.000D+00 0.591D+00 0.000D+00 0.000D+00 0.000D+00 0.000D+00
 Coeff:      0.000D+00 0.000D+00 0.000D+00 0.000D+00 0.000D+00 0.000D+00
 Coeff:      0.000D+00 0.000D+00 0.000D+00 0.000D+00 0.000D+00 0.000D+00
 Coeff:      0.205D+00 0.205D+00
 Gap=     0.000 Goal=   None    Shift=    0.000
 RMSDP=1.20D-02 MaxDP=3.05D-01 DE= 6.66D-07 OVMax= 5.44D-06

 Cycle  51  Pass 1  IDiag  1:
 Density matrix breaks symmetry, PCut= 1.00D-07
 Density has only Abelian symmetry.
 E= -288.564245789972     Delta-E=       -0.000000666094 Rises=F Damp=F
 DIIS: error= 1.48D-02 at cycle  51 NSaved=  20.
 NSaved=20 IEnMin= 2 EnMin= -288.569015813298     IErMin= 2 ErrMin= 7.79D-03
 ErrMax= 1.48D-02  0.00D+00 EMaxC= 1.00D-01 BMatC= 3.21D-03 BMatP= 1.11D-03
 IDIUse=2 WtCom= 0.00D+00 WtEn= 1.00D+00
 EnCoef did     1 forward-backward iterations
 Coeff-En:   0.000D+00 0.591D+00 0.000D+00 0.000D+00 0.000D+00 0.000D+00
 Coeff-En:   0.000D+00 0.000D+00 0.000D+00 0.000D+00 0.000D+00 0.000D+00
 Coeff-En:   0.000D+00 0.000D+00 0.000D+00 0.000D+00 0.000D+00 0.000D+00
 Coeff-En:   0.205D+00 0.205D+00
 Coeff:      0.000D+00 0.591D+00 0.000D+00 0.000D+00 0.000D+00 0.000D+00
 Coeff:      0.000D+00 0.000D+00 0.000D+00 0.000D+00 0.000D+00 0.000D+00
 Coeff:      0.000D+00 0.000D+00 0.000D+00 0.000D+00 0.000D+00 0.000D+00
 Coeff:      0.205D+00 0.205D+00
 Gap=     0.000 Goal=   None    Shift=    0.000
 RMSDP=1.20D-02 MaxDP=3.05D-01 DE=-6.66D-07 OVMax= 5.44D-06

 Cycle  52  Pass 1  IDiag  1:
 Density matrix breaks symmetry, PCut= 1.00D-07
 Density has only Abelian symmetry.
 E= -288.564245123877     Delta-E=        0.000000666095 Rises=F Damp=F
 DIIS: error= 1.48D-02 at cycle  52 NSaved=  20.
 NSaved=20 IEnMin= 2 EnMin= -288.569015813298     IErMin= 2 ErrMin= 7.79D-03
 ErrMax= 1.48D-02  0.00D+00 EMaxC= 1.00D-01 BMatC= 3.21D-03 BMatP= 1.11D-03
 IDIUse=2 WtCom= 0.00D+00 WtEn= 1.00D+00
 Rare condition: small coef for last iteration:  0.111D-15
 Coeff-En:   0.000D+00 0.591D+00 0.000D+00 0.000D+00 0.000D+00 0.000D+00
 Coeff-En:   0.000D+00 0.000D+00 0.000D+00 0.000D+00 0.000D+00 0.000D+00
 Coeff-En:   0.000D+00 0.000D+00 0.000D+00 0.000D+00 0.000D+00 0.000D+00
 Coeff-En:   0.205D+00 0.205D+00
 Coeff:      0.000D+00 0.591D+00 0.000D+00 0.000D+00 0.000D+00 0.000D+00
 Coeff:      0.000D+00 0.000D+00 0.000D+00 0.000D+00 0.000D+00 0.000D+00
 Coeff:      0.000D+00 0.000D+00 0.000D+00 0.000D+00 0.000D+00 0.000D+00
 Coeff:      0.205D+00 0.205D+00
 Gap=     0.000 Goal=   None    Shift=    0.000
 RMSDP=1.20D-02 MaxDP=3.05D-01 DE= 6.66D-07 OVMax= 5.44D-06

 Cycle  53  Pass 1  IDiag  1:
 Density matrix breaks symmetry, PCut= 1.00D-07
 Density has only Abelian symmetry.
 E= -288.564245789974     Delta-E=       -0.000000666097 Rises=F Damp=F
 DIIS: error= 1.48D-02 at cycle  53 NSaved=  20.
 NSaved=20 IEnMin= 2 EnMin= -288.569015813298     IErMin= 2 ErrMin= 7.79D-03
 ErrMax= 1.48D-02  0.00D+00 EMaxC= 1.00D-01 BMatC= 3.21D-03 BMatP= 1.11D-03
 IDIUse=2 WtCom= 0.00D+00 WtEn= 1.00D+00
 EnCoef did     1 forward-backward iterations
 Coeff-En:   0.000D+00 0.591D+00 0.000D+00 0.000D+00 0.000D+00 0.000D+00
 Coeff-En:   0.000D+00 0.000D+00 0.000D+00 0.000D+00 0.000D+00 0.000D+00
 Coeff-En:   0.000D+00 0.000D+00 0.000D+00 0.000D+00 0.000D+00 0.000D+00
 Coeff-En:   0.205D+00 0.205D+00
 Coeff:      0.000D+00 0.591D+00 0.000D+00 0.000D+00 0.000D+00 0.000D+00
 Coeff:      0.000D+00 0.000D+00 0.000D+00 0.000D+00 0.000D+00 0.000D+00
 Coeff:      0.000D+00 0.000D+00 0.000D+00 0.000D+00 0.000D+00 0.000D+00
 Coeff:      0.205D+00 0.205D+00
 Gap=     0.000 Goal=   None    Shift=    0.000
 RMSDP=1.20D-02 MaxDP=3.05D-01 DE=-6.66D-07 OVMax= 5.44D-06

 Cycle  54  Pass 1  IDiag  1:
 Density matrix breaks symmetry, PCut= 1.00D-07
 Density has only Abelian symmetry.
 E= -288.564245123877     Delta-E=        0.000000666097 Rises=F Damp=F
 DIIS: error= 1.48D-02 at cycle  54 NSaved=  20.
 NSaved=20 IEnMin= 2 EnMin= -288.569015813298     IErMin= 2 ErrMin= 7.79D-03
 ErrMax= 1.48D-02  0.00D+00 EMaxC= 1.00D-01 BMatC= 3.21D-03 BMatP= 1.11D-03
 IDIUse=2 WtCom= 0.00D+00 WtEn= 1.00D+00
 Rare condition: small coef for last iteration:  0.000D+00
 Coeff-En:   0.000D+00 0.591D+00 0.000D+00 0.000D+00 0.000D+00 0.000D+00
 Coeff-En:   0.000D+00 0.000D+00 0.000D+00 0.000D+00 0.000D+00 0.000D+00
 Coeff-En:   0.000D+00 0.000D+00 0.000D+00 0.000D+00 0.000D+00 0.000D+00
 Coeff-En:   0.205D+00 0.205D+00
 Coeff:      0.000D+00 0.591D+00 0.000D+00 0.000D+00 0.000D+00 0.000D+00
 Coeff:      0.000D+00 0.000D+00 0.000D+00 0.000D+00 0.000D+00 0.000D+00
 Coeff:      0.000D+00 0.000D+00 0.000D+00 0.000D+00 0.000D+00 0.000D+00
 Coeff:      0.205D+00 0.205D+00
 Gap=     0.000 Goal=   None    Shift=    0.000
 RMSDP=1.20D-02 MaxDP=3.05D-01 DE= 6.66D-07 OVMax= 5.44D-06

 Cycle  55  Pass 1  IDiag  1:
 Density matrix breaks symmetry, PCut= 1.00D-07
 Density has only Abelian symmetry.
 E= -288.564245789975     Delta-E=       -0.000000666098 Rises=F Damp=F
 DIIS: error= 1.48D-02 at cycle  55 NSaved=  20.
 NSaved=20 IEnMin= 2 EnMin= -288.569015813298     IErMin= 2 ErrMin= 7.79D-03
 ErrMax= 1.48D-02  0.00D+00 EMaxC= 1.00D-01 BMatC= 3.21D-03 BMatP= 1.11D-03
 IDIUse=2 WtCom= 0.00D+00 WtEn= 1.00D+00
 EnCoef did     1 forward-backward iterations
 Coeff-En:   0.000D+00 0.591D+00 0.000D+00 0.000D+00 0.000D+00 0.000D+00
 Coeff-En:   0.000D+00 0.000D+00 0.000D+00 0.000D+00 0.000D+00 0.000D+00
 Coeff-En:   0.000D+00 0.000D+00 0.000D+00 0.000D+00 0.000D+00 0.000D+00
 Coeff-En:   0.205D+00 0.205D+00
 Coeff:      0.000D+00 0.591D+00 0.000D+00 0.000D+00 0.000D+00 0.000D+00
 Coeff:      0.000D+00 0.000D+00 0.000D+00 0.000D+00 0.000D+00 0.000D+00
 Coeff:      0.000D+00 0.000D+00 0.000D+00 0.000D+00 0.000D+00 0.000D+00
 Coeff:      0.205D+00 0.205D+00
 Gap=     0.000 Goal=   None    Shift=    0.000
 RMSDP=1.20D-02 MaxDP=3.05D-01 DE=-6.66D-07 OVMax= 5.44D-06

 Cycle  56  Pass 1  IDiag  1:
 Density matrix breaks symmetry, PCut= 1.00D-07
 Density has only Abelian symmetry.
 E= -288.564245123878     Delta-E=        0.000000666098 Rises=F Damp=F
 DIIS: error= 1.48D-02 at cycle  56 NSaved=  20.
 NSaved=20 IEnMin= 2 EnMin= -288.569015813298     IErMin= 2 ErrMin= 7.79D-03
 ErrMax= 1.48D-02  0.00D+00 EMaxC= 1.00D-01 BMatC= 3.21D-03 BMatP= 1.11D-03
 IDIUse=2 WtCom= 0.00D+00 WtEn= 1.00D+00
 Rare condition: small coef for last iteration:  0.333D-15
 Coeff-En:   0.000D+00 0.591D+00 0.000D+00 0.000D+00 0.000D+00 0.000D+00
 Coeff-En:   0.000D+00 0.000D+00 0.000D+00 0.000D+00 0.000D+00 0.000D+00
 Coeff-En:   0.000D+00 0.000D+00 0.000D+00 0.000D+00 0.000D+00 0.000D+00
 Coeff-En:   0.205D+00 0.205D+00
 Coeff:      0.000D+00 0.591D+00 0.000D+00 0.000D+00 0.000D+00 0.000D+00
 Coeff:      0.000D+00 0.000D+00 0.000D+00 0.000D+00 0.000D+00 0.000D+00
 Coeff:      0.000D+00 0.000D+00 0.000D+00 0.000D+00 0.000D+00 0.000D+00
 Coeff:      0.205D+00 0.205D+00
 Gap=     0.000 Goal=   None    Shift=    0.000
 RMSDP=1.20D-02 MaxDP=3.05D-01 DE= 6.66D-07 OVMax= 5.44D-06

 Cycle  57  Pass 1  IDiag  1:
 Density matrix breaks symmetry, PCut= 1.00D-07
 Density has only Abelian symmetry.
 E= -288.564245789976     Delta-E=       -0.000000666098 Rises=F Damp=F
 DIIS: error= 1.48D-02 at cycle  57 NSaved=  20.
 NSaved=20 IEnMin= 2 EnMin= -288.569015813298     IErMin= 2 ErrMin= 7.79D-03
 ErrMax= 1.48D-02  0.00D+00 EMaxC= 1.00D-01 BMatC= 3.21D-03 BMatP= 1.11D-03
 IDIUse=2 WtCom= 0.00D+00 WtEn= 1.00D+00
 EnCoef did     1 forward-backward iterations
 Coeff-En:   0.000D+00 0.591D+00 0.000D+00 0.000D+00 0.000D+00 0.000D+00
 Coeff-En:   0.000D+00 0.000D+00 0.000D+00 0.000D+00 0.000D+00 0.000D+00
 Coeff-En:   0.000D+00 0.000D+00 0.000D+00 0.000D+00 0.000D+00 0.000D+00
 Coeff-En:   0.205D+00 0.205D+00
 Coeff:      0.000D+00 0.591D+00 0.000D+00 0.000D+00 0.000D+00 0.000D+00
 Coeff:      0.000D+00 0.000D+00 0.000D+00 0.000D+00 0.000D+00 0.000D+00
 Coeff:      0.000D+00 0.000D+00 0.000D+00 0.000D+00 0.000D+00 0.000D+00
 Coeff:      0.205D+00 0.205D+00
 Gap=     0.000 Goal=   None    Shift=    0.000
 RMSDP=1.20D-02 MaxDP=3.05D-01 DE=-6.66D-07 OVMax= 5.44D-06

 Cycle  58  Pass 1  IDiag  1:
 Density matrix breaks symmetry, PCut= 1.00D-07
 Density has only Abelian symmetry.
 E= -288.564245123878     Delta-E=        0.000000666098 Rises=F Damp=F
 DIIS: error= 1.48D-02 at cycle  58 NSaved=  20.
 NSaved=20 IEnMin= 2 EnMin= -288.569015813298     IErMin= 2 ErrMin= 7.79D-03
 ErrMax= 1.48D-02  0.00D+00 EMaxC= 1.00D-01 BMatC= 3.21D-03 BMatP= 1.11D-03
 IDIUse=2 WtCom= 0.00D+00 WtEn= 1.00D+00
 Rare condition: small coef for last iteration:  0.000D+00
 Coeff-En:   0.000D+00 0.591D+00 0.000D+00 0.000D+00 0.000D+00 0.000D+00
 Coeff-En:   0.000D+00 0.000D+00 0.000D+00 0.000D+00 0.000D+00 0.000D+00
 Coeff-En:   0.000D+00 0.000D+00 0.000D+00 0.000D+00 0.000D+00 0.000D+00
 Coeff-En:   0.205D+00 0.205D+00
 Coeff:      0.000D+00 0.591D+00 0.000D+00 0.000D+00 0.000D+00 0.000D+00
 Coeff:      0.000D+00 0.000D+00 0.000D+00 0.000D+00 0.000D+00 0.000D+00
 Coeff:      0.000D+00 0.000D+00 0.000D+00 0.000D+00 0.000D+00 0.000D+00
 Coeff:      0.205D+00 0.205D+00
 Gap=     0.000 Goal=   None    Shift=    0.000
 RMSDP=1.20D-02 MaxDP=3.05D-01 DE= 6.66D-07 OVMax= 5.44D-06

 Cycle  59  Pass 1  IDiag  1:
 Density matrix breaks symmetry, PCut= 1.00D-07
 Density has only Abelian symmetry.
 E= -288.564245789976     Delta-E=       -0.000000666098 Rises=F Damp=F
 DIIS: error= 1.48D-02 at cycle  59 NSaved=  20.
 NSaved=20 IEnMin= 2 EnMin= -288.569015813298     IErMin= 2 ErrMin= 7.79D-03
 ErrMax= 1.48D-02  0.00D+00 EMaxC= 1.00D-01 BMatC= 3.21D-03 BMatP= 1.11D-03
 IDIUse=2 WtCom= 0.00D+00 WtEn= 1.00D+00
 EnCoef did     1 forward-backward iterations
 Coeff-En:   0.000D+00 0.591D+00 0.000D+00 0.000D+00 0.000D+00 0.000D+00
 Coeff-En:   0.000D+00 0.000D+00 0.000D+00 0.000D+00 0.000D+00 0.000D+00
 Coeff-En:   0.000D+00 0.000D+00 0.000D+00 0.000D+00 0.000D+00 0.000D+00
 Coeff-En:   0.205D+00 0.205D+00
 Coeff:      0.000D+00 0.591D+00 0.000D+00 0.000D+00 0.000D+00 0.000D+00
 Coeff:      0.000D+00 0.000D+00 0.000D+00 0.000D+00 0.000D+00 0.000D+00
 Coeff:      0.000D+00 0.000D+00 0.000D+00 0.000D+00 0.000D+00 0.000D+00
 Coeff:      0.205D+00 0.205D+00
 Gap=     0.000 Goal=   None    Shift=    0.000
 RMSDP=1.20D-02 MaxDP=3.05D-01 DE=-6.66D-07 OVMax= 5.44D-06

 Cycle  60  Pass 1  IDiag  1:
 Density matrix breaks symmetry, PCut= 1.00D-07
 Density has only Abelian symmetry.
 E= -288.564245123878     Delta-E=        0.000000666098 Rises=F Damp=F
 DIIS: error= 1.48D-02 at cycle  60 NSaved=  20.
 NSaved=20 IEnMin= 2 EnMin= -288.569015813298     IErMin= 2 ErrMin= 7.79D-03
 ErrMax= 1.48D-02  0.00D+00 EMaxC= 1.00D-01 BMatC= 3.21D-03 BMatP= 1.11D-03
 IDIUse=2 WtCom= 0.00D+00 WtEn= 1.00D+00
 Rare condition: small coef for last iteration:  0.222D-15
 Coeff-En:   0.000D+00 0.591D+00 0.000D+00 0.000D+00 0.000D+00 0.000D+00
 Coeff-En:   0.000D+00 0.000D+00 0.000D+00 0.000D+00 0.000D+00 0.000D+00
 Coeff-En:   0.000D+00 0.000D+00 0.000D+00 0.000D+00 0.000D+00 0.000D+00
 Coeff-En:   0.205D+00 0.205D+00
 Coeff:      0.000D+00 0.591D+00 0.000D+00 0.000D+00 0.000D+00 0.000D+00
 Coeff:      0.000D+00 0.000D+00 0.000D+00 0.000D+00 0.000D+00 0.000D+00
 Coeff:      0.000D+00 0.000D+00 0.000D+00 0.000D+00 0.000D+00 0.000D+00
 Coeff:      0.205D+00 0.205D+00
 Gap=     0.000 Goal=   None    Shift=    0.000
 RMSDP=1.20D-02 MaxDP=3.05D-01 DE= 6.66D-07 OVMax= 5.44D-06

 Cycle  61  Pass 1  IDiag  1:
 Density matrix breaks symmetry, PCut= 1.00D-07
 Density has only Abelian symmetry.
 E= -288.564245789976     Delta-E=       -0.000000666098 Rises=F Damp=F
 DIIS: error= 1.48D-02 at cycle  61 NSaved=  20.
 NSaved=20 IEnMin= 2 EnMin= -288.569015813298     IErMin= 2 ErrMin= 7.79D-03
 ErrMax= 1.48D-02  0.00D+00 EMaxC= 1.00D-01 BMatC= 3.21D-03 BMatP= 1.11D-03
 IDIUse=2 WtCom= 0.00D+00 WtEn= 1.00D+00
 EnCoef did     1 forward-backward iterations
 Coeff-En:   0.000D+00 0.591D+00 0.000D+00 0.000D+00 0.000D+00 0.000D+00
 Coeff-En:   0.000D+00 0.000D+00 0.000D+00 0.000D+00 0.000D+00 0.000D+00
 Coeff-En:   0.000D+00 0.000D+00 0.000D+00 0.000D+00 0.000D+00 0.000D+00
 Coeff-En:   0.205D+00 0.205D+00
 Coeff:      0.000D+00 0.591D+00 0.000D+00 0.000D+00 0.000D+00 0.000D+00
 Coeff:      0.000D+00 0.000D+00 0.000D+00 0.000D+00 0.000D+00 0.000D+00
 Coeff:      0.000D+00 0.000D+00 0.000D+00 0.000D+00 0.000D+00 0.000D+00
 Coeff:      0.205D+00 0.205D+00
 Gap=     0.000 Goal=   None    Shift=    0.000
 RMSDP=1.20D-02 MaxDP=3.05D-01 DE=-6.66D-07 OVMax= 5.44D-06

 Cycle  62  Pass 1  IDiag  1:
 Density matrix breaks symmetry, PCut= 1.00D-07
 Density has only Abelian symmetry.
 E= -288.564245123878     Delta-E=        0.000000666098 Rises=F Damp=F
 DIIS: error= 1.48D-02 at cycle  62 NSaved=  20.
 NSaved=20 IEnMin= 2 EnMin= -288.569015813298     IErMin= 2 ErrMin= 7.79D-03
 ErrMax= 1.48D-02  0.00D+00 EMaxC= 1.00D-01 BMatC= 3.21D-03 BMatP= 1.11D-03
 IDIUse=2 WtCom= 0.00D+00 WtEn= 1.00D+00
 Rare condition: small coef for last iteration:  0.111D-15
 Coeff-En:   0.000D+00 0.591D+00 0.000D+00 0.000D+00 0.000D+00 0.000D+00
 Coeff-En:   0.000D+00 0.000D+00 0.000D+00 0.000D+00 0.000D+00 0.000D+00
 Coeff-En:   0.000D+00 0.000D+00 0.000D+00 0.000D+00 0.000D+00 0.000D+00
 Coeff-En:   0.205D+00 0.205D+00
 Coeff:      0.000D+00 0.591D+00 0.000D+00 0.000D+00 0.000D+00 0.000D+00
 Coeff:      0.000D+00 0.000D+00 0.000D+00 0.000D+00 0.000D+00 0.000D+00
 Coeff:      0.000D+00 0.000D+00 0.000D+00 0.000D+00 0.000D+00 0.000D+00
 Coeff:      0.205D+00 0.205D+00
 Gap=     0.000 Goal=   None    Shift=    0.000
 RMSDP=1.20D-02 MaxDP=3.05D-01 DE= 6.66D-07 OVMax= 5.44D-06

 Cycle  63  Pass 1  IDiag  1:
 Density matrix breaks symmetry, PCut= 1.00D-07
 Density has only Abelian symmetry.
 E= -288.564245789976     Delta-E=       -0.000000666098 Rises=F Damp=F
 DIIS: error= 1.48D-02 at cycle  63 NSaved=  20.
 NSaved=20 IEnMin= 2 EnMin= -288.569015813298     IErMin= 2 ErrMin= 7.79D-03
 ErrMax= 1.48D-02  0.00D+00 EMaxC= 1.00D-01 BMatC= 3.21D-03 BMatP= 1.11D-03
 IDIUse=2 WtCom= 0.00D+00 WtEn= 1.00D+00
 EnCoef did     1 forward-backward iterations
 Coeff-En:   0.000D+00 0.591D+00 0.000D+00 0.000D+00 0.000D+00 0.000D+00
 Coeff-En:   0.000D+00 0.000D+00 0.000D+00 0.000D+00 0.000D+00 0.000D+00
 Coeff-En:   0.000D+00 0.000D+00 0.000D+00 0.000D+00 0.000D+00 0.000D+00
 Coeff-En:   0.205D+00 0.205D+00
 Coeff:      0.000D+00 0.591D+00 0.000D+00 0.000D+00 0.000D+00 0.000D+00
 Coeff:      0.000D+00 0.000D+00 0.000D+00 0.000D+00 0.000D+00 0.000D+00
 Coeff:      0.000D+00 0.000D+00 0.000D+00 0.000D+00 0.000D+00 0.000D+00
 Coeff:      0.205D+00 0.205D+00
 Gap=     0.000 Goal=   None    Shift=    0.000
 RMSDP=1.20D-02 MaxDP=3.05D-01 DE=-6.66D-07 OVMax= 5.44D-06

 Cycle  64  Pass 1  IDiag  1:
 Density matrix breaks symmetry, PCut= 1.00D-07
 Density has only Abelian symmetry.
 E= -288.564245123878     Delta-E=        0.000000666098 Rises=F Damp=F
 DIIS: error= 1.48D-02 at cycle  64 NSaved=  20.
 NSaved=20 IEnMin= 2 EnMin= -288.569015813298     IErMin= 2 ErrMin= 7.79D-03
 ErrMax= 1.48D-02  0.00D+00 EMaxC= 1.00D-01 BMatC= 3.21D-03 BMatP= 1.11D-03
 IDIUse=2 WtCom= 0.00D+00 WtEn= 1.00D+00
 Rare condition: small coef for last iteration:  0.000D+00
 Coeff-En:   0.000D+00 0.591D+00 0.000D+00 0.000D+00 0.000D+00 0.000D+00
 Coeff-En:   0.000D+00 0.000D+00 0.000D+00 0.000D+00 0.000D+00 0.000D+00
 Coeff-En:   0.000D+00 0.000D+00 0.000D+00 0.000D+00 0.000D+00 0.000D+00
 Coeff-En:   0.205D+00 0.205D+00
 Coeff:      0.000D+00 0.591D+00 0.000D+00 0.000D+00 0.000D+00 0.000D+00
 Coeff:      0.000D+00 0.000D+00 0.000D+00 0.000D+00 0.000D+00 0.000D+00
 Coeff:      0.000D+00 0.000D+00 0.000D+00 0.000D+00 0.000D+00 0.000D+00
 Coeff:      0.205D+00 0.205D+00
 Gap=     0.000 Goal=   None    Shift=    0.000
 RMSDP=1.20D-02 MaxDP=3.05D-01 DE= 6.66D-07 OVMax= 5.44D-06

 Cycle  65  Pass 1  IDiag  1:
 Density matrix breaks symmetry, PCut= 1.00D-07
 Density has only Abelian symmetry.
 E= -288.564245789976     Delta-E=       -0.000000666098 Rises=F Damp=F
 DIIS: error= 1.48D-02 at cycle  65 NSaved=  20.
 NSaved=20 IEnMin= 2 EnMin= -288.569015813298     IErMin= 2 ErrMin= 7.79D-03
 ErrMax= 1.48D-02  0.00D+00 EMaxC= 1.00D-01 BMatC= 3.21D-03 BMatP= 1.11D-03
 IDIUse=2 WtCom= 0.00D+00 WtEn= 1.00D+00
 EnCoef did     1 forward-backward iterations
 Coeff-En:   0.000D+00 0.591D+00 0.000D+00 0.000D+00 0.000D+00 0.000D+00
 Coeff-En:   0.000D+00 0.000D+00 0.000D+00 0.000D+00 0.000D+00 0.000D+00
 Coeff-En:   0.000D+00 0.000D+00 0.000D+00 0.000D+00 0.000D+00 0.000D+00
 Coeff-En:   0.205D+00 0.205D+00
 Coeff:      0.000D+00 0.591D+00 0.000D+00 0.000D+00 0.000D+00 0.000D+00
 Coeff:      0.000D+00 0.000D+00 0.000D+00 0.000D+00 0.000D+00 0.000D+00
 Coeff:      0.000D+00 0.000D+00 0.000D+00 0.000D+00 0.000D+00 0.000D+00
 Coeff:      0.205D+00 0.205D+00
 Gap=     0.000 Goal=   None    Shift=    0.000
 RMSDP=1.20D-02 MaxDP=3.05D-01 DE=-6.66D-07 OVMax= 5.44D-06

 Cycle  66  Pass 1  IDiag  1:
 Density matrix breaks symmetry, PCut= 1.00D-07
 Density has only Abelian symmetry.
 E= -288.564245123878     Delta-E=        0.000000666098 Rises=F Damp=F
 DIIS: error= 1.48D-02 at cycle  66 NSaved=  20.
 NSaved=20 IEnMin= 2 EnMin= -288.569015813298     IErMin= 2 ErrMin= 7.79D-03
 ErrMax= 1.48D-02  0.00D+00 EMaxC= 1.00D-01 BMatC= 3.21D-03 BMatP= 1.11D-03
 IDIUse=2 WtCom= 0.00D+00 WtEn= 1.00D+00
 Rare condition: small coef for last iteration:  0.111D-15
 Coeff-En:   0.000D+00 0.591D+00 0.000D+00 0.000D+00 0.000D+00 0.000D+00
 Coeff-En:   0.000D+00 0.000D+00 0.000D+00 0.000D+00 0.000D+00 0.000D+00
 Coeff-En:   0.000D+00 0.000D+00 0.000D+00 0.000D+00 0.000D+00 0.000D+00
 Coeff-En:   0.205D+00 0.205D+00
 Coeff:      0.000D+00 0.591D+00 0.000D+00 0.000D+00 0.000D+00 0.000D+00
 Coeff:      0.000D+00 0.000D+00 0.000D+00 0.000D+00 0.000D+00 0.000D+00
 Coeff:      0.000D+00 0.000D+00 0.000D+00 0.000D+00 0.000D+00 0.000D+00
 Coeff:      0.205D+00 0.205D+00
 Gap=     0.000 Goal=   None    Shift=    0.000
 RMSDP=1.20D-02 MaxDP=3.05D-01 DE= 6.66D-07 OVMax= 5.44D-06

 Cycle  67  Pass 1  IDiag  1:
 Density matrix breaks symmetry, PCut= 1.00D-07
 Density has only Abelian symmetry.
 E= -288.564245789976     Delta-E=       -0.000000666097 Rises=F Damp=F
 DIIS: error= 1.48D-02 at cycle  67 NSaved=  20.
 NSaved=20 IEnMin= 2 EnMin= -288.569015813298     IErMin= 2 ErrMin= 7.79D-03
 ErrMax= 1.48D-02  0.00D+00 EMaxC= 1.00D-01 BMatC= 3.21D-03 BMatP= 1.11D-03
 IDIUse=2 WtCom= 0.00D+00 WtEn= 1.00D+00
 EnCoef did     1 forward-backward iterations
 Coeff-En:   0.000D+00 0.591D+00 0.000D+00 0.000D+00 0.000D+00 0.000D+00
 Coeff-En:   0.000D+00 0.000D+00 0.000D+00 0.000D+00 0.000D+00 0.000D+00
 Coeff-En:   0.000D+00 0.000D+00 0.000D+00 0.000D+00 0.000D+00 0.000D+00
 Coeff-En:   0.205D+00 0.205D+00
 Coeff:      0.000D+00 0.591D+00 0.000D+00 0.000D+00 0.000D+00 0.000D+00
 Coeff:      0.000D+00 0.000D+00 0.000D+00 0.000D+00 0.000D+00 0.000D+00
 Coeff:      0.000D+00 0.000D+00 0.000D+00 0.000D+00 0.000D+00 0.000D+00
 Coeff:      0.205D+00 0.205D+00
 Gap=     0.000 Goal=   None    Shift=    0.000
 RMSDP=1.20D-02 MaxDP=3.05D-01 DE=-6.66D-07 OVMax= 5.44D-06

 Cycle  68  Pass 1  IDiag  1:
 Density matrix breaks symmetry, PCut= 1.00D-07
 Density has only Abelian symmetry.
 E= -288.564245123878     Delta-E=        0.000000666098 Rises=F Damp=F
[...]

 Cycle 112  Pass 1  IDiag  1:
 Density matrix breaks symmetry, PCut= 1.00D-07
 Density has only Abelian symmetry.
 E= -288.564245123877     Delta-E=        0.000000666098 Rises=F Damp=F
 DIIS: error= 1.48D-02 at cycle 112 NSaved=  20.
 NSaved=20 IEnMin= 2 EnMin= -288.569015813298     IErMin= 2 ErrMin= 7.79D-03
 ErrMax= 1.48D-02  0.00D+00 EMaxC= 1.00D-01 BMatC= 3.21D-03 BMatP= 1.11D-03
 IDIUse=2 WtCom= 0.00D+00 WtEn= 1.00D+00
 Rare condition: small coef for last iteration:  0.111D-15
 Coeff-En:   0.000D+00 0.591D+00 0.000D+00 0.000D+00 0.000D+00 0.000D+00
 Coeff-En:   0.000D+00 0.000D+00 0.000D+00 0.000D+00 0.000D+00 0.000D+00
 Coeff-En:   0.000D+00 0.000D+00 0.000D+00 0.000D+00 0.000D+00 0.000D+00
 Coeff-En:   0.205D+00 0.205D+00
 Coeff:      0.000D+00 0.591D+00 0.000D+00 0.000D+00 0.000D+00 0.000D+00
 Coeff:      0.000D+00 0.000D+00 0.000D+00 0.000D+00 0.000D+00 0.000D+00
 Coeff:      0.000D+00 0.000D+00 0.000D+00 0.000D+00 0.000D+00 0.000D+00
 Coeff:      0.205D+00 0.205D+00
 Gap=     0.000 Goal=   None    Shift=    0.000
 RMSDP=1.20D-02 MaxDP=3.05D-01 DE= 6.66D-07 OVMax= 5.44D-06

 Cycle 113  Pass 1  IDiag  1:
 Density matrix breaks symmetry, PCut= 1.00D-07
 Density has only Abelian symmetry.
 E= -288.564245789974     Delta-E=       -0.000000666097 Rises=F Damp=F
 DIIS: error= 1.48D-02 at cycle 113 NSaved=  20.
 NSaved=20 IEnMin= 2 EnMin= -288.569015813298     IErMin= 2 ErrMin= 7.79D-03
 ErrMax= 1.48D-02  0.00D+00 EMaxC= 1.00D-01 BMatC= 3.21D-03 BMatP= 1.11D-03
 IDIUse=2 WtCom= 0.00D+00 WtEn= 1.00D+00
 EnCoef did     1 forward-backward iterations
 Coeff-En:   0.000D+00 0.591D+00 0.000D+00 0.000D+00 0.000D+00 0.000D+00
 Coeff-En:   0.000D+00 0.000D+00 0.000D+00 0.000D+00 0.000D+00 0.000D+00
 Coeff-En:   0.000D+00 0.000D+00 0.000D+00 0.000D+00 0.000D+00 0.000D+00
 Coeff-En:   0.205D+00 0.205D+00
 Coeff:      0.000D+00 0.591D+00 0.000D+00 0.000D+00 0.000D+00 0.000D+00
 Coeff:      0.000D+00 0.000D+00 0.000D+00 0.000D+00 0.000D+00 0.000D+00
 Coeff:      0.000D+00 0.000D+00 0.000D+00 0.000D+00 0.000D+00 0.000D+00
 Coeff:      0.205D+00 0.205D+00
 Gap=     0.000 Goal=   None    Shift=    0.000
 RMSDP=1.20D-02 MaxDP=3.05D-01 DE=-6.66D-07 OVMax= 5.44D-06

 Cycle 114  Pass 1  IDiag  1:
 Density matrix breaks symmetry, PCut= 1.00D-07
 Density has only Abelian symmetry.
 E= -288.564245123876     Delta-E=        0.000000666098 Rises=F Damp=F
 DIIS: error= 1.48D-02 at cycle 114 NSaved=  20.
 NSaved=20 IEnMin= 2 EnMin= -288.569015813298     IErMin= 2 ErrMin= 7.79D-03
 ErrMax= 1.48D-02  0.00D+00 EMaxC= 1.00D-01 BMatC= 3.21D-03 BMatP= 1.11D-03
 IDIUse=2 WtCom= 0.00D+00 WtEn= 1.00D+00
 Rare condition: small coef for last iteration:  0.000D+00
 Coeff-En:   0.000D+00 0.591D+00 0.000D+00 0.000D+00 0.000D+00 0.000D+00
 Coeff-En:   0.000D+00 0.000D+00 0.000D+00 0.000D+00 0.000D+00 0.000D+00
 Coeff-En:   0.000D+00 0.000D+00 0.000D+00 0.000D+00 0.000D+00 0.000D+00
 Coeff-En:   0.205D+00 0.205D+00
 Coeff:      0.000D+00 0.591D+00 0.000D+00 0.000D+00 0.000D+00 0.000D+00
 Coeff:      0.000D+00 0.000D+00 0.000D+00 0.000D+00 0.000D+00 0.000D+00
 Coeff:      0.000D+00 0.000D+00 0.000D+00 0.000D+00 0.000D+00 0.000D+00
 Coeff:      0.205D+00 0.205D+00
 Gap=     0.000 Goal=   None    Shift=    0.000
 RMSDP=1.20D-02 MaxDP=3.05D-01 DE= 6.66D-07 OVMax= 5.44D-06

 Cycle 115  Pass 1  IDiag  1:
 Density matrix breaks symmetry, PCut= 1.00D-07
 Density has only Abelian symmetry.
 E= -288.564245789974     Delta-E=       -0.000000666098 Rises=F Damp=F
 DIIS: error= 1.48D-02 at cycle 115 NSaved=  20.
 NSaved=20 IEnMin= 2 EnMin= -288.569015813298     IErMin= 2 ErrMin= 7.79D-03
 ErrMax= 1.48D-02  0.00D+00 EMaxC= 1.00D-01 BMatC= 3.21D-03 BMatP= 1.11D-03
 IDIUse=2 WtCom= 0.00D+00 WtEn= 1.00D+00
 EnCoef did     1 forward-backward iterations
 Coeff-En:   0.000D+00 0.591D+00 0.000D+00 0.000D+00 0.000D+00 0.000D+00
 Coeff-En:   0.000D+00 0.000D+00 0.000D+00 0.000D+00 0.000D+00 0.000D+00
 Coeff-En:   0.000D+00 0.000D+00 0.000D+00 0.000D+00 0.000D+00 0.000D+00
 Coeff-En:   0.205D+00 0.205D+00
 Coeff:      0.000D+00 0.591D+00 0.000D+00 0.000D+00 0.000D+00 0.000D+00
 Coeff:      0.000D+00 0.000D+00 0.000D+00 0.000D+00 0.000D+00 0.000D+00
 Coeff:      0.000D+00 0.000D+00 0.000D+00 0.000D+00 0.000D+00 0.000D+00
 Coeff:      0.205D+00 0.205D+00
 Gap=     0.000 Goal=   None    Shift=    0.000
 RMSDP=1.20D-02 MaxDP=3.05D-01 DE=-6.66D-07 OVMax= 5.44D-06

 Cycle 116  Pass 1  IDiag  1:
 Density matrix breaks symmetry, PCut= 1.00D-07
 Density has only Abelian symmetry.
 E= -288.564245123877     Delta-E=        0.000000666098 Rises=F Damp=F
 DIIS: error= 1.48D-02 at cycle 116 NSaved=  20.
 NSaved=20 IEnMin= 2 EnMin= -288.569015813298     IErMin= 2 ErrMin= 7.79D-03
 ErrMax= 1.48D-02  0.00D+00 EMaxC= 1.00D-01 BMatC= 3.21D-03 BMatP= 1.11D-03
 IDIUse=2 WtCom= 0.00D+00 WtEn= 1.00D+00
 Rare condition: small coef for last iteration:  0.000D+00
 Coeff-En:   0.000D+00 0.591D+00 0.000D+00 0.000D+00 0.000D+00 0.000D+00
 Coeff-En:   0.000D+00 0.000D+00 0.000D+00 0.000D+00 0.000D+00 0.000D+00
 Coeff-En:   0.000D+00 0.000D+00 0.000D+00 0.000D+00 0.000D+00 0.000D+00
 Coeff-En:   0.205D+00 0.205D+00
 Coeff:      0.000D+00 0.591D+00 0.000D+00 0.000D+00 0.000D+00 0.000D+00
 Coeff:      0.000D+00 0.000D+00 0.000D+00 0.000D+00 0.000D+00 0.000D+00
 Coeff:      0.000D+00 0.000D+00 0.000D+00 0.000D+00 0.000D+00 0.000D+00
 Coeff:      0.205D+00 0.205D+00
 Gap=     0.000 Goal=   None    Shift=    0.000
 RMSDP=1.20D-02 MaxDP=3.05D-01 DE= 6.66D-07 OVMax= 5.44D-06

 Cycle 117  Pass 1  IDiag  1:
 Density matrix breaks symmetry, PCut= 1.00D-07
 Density has only Abelian symmetry.
 E= -288.564245789975     Delta-E=       -0.000000666098 Rises=F Damp=F
 DIIS: error= 1.48D-02 at cycle 117 NSaved=  20.
 NSaved=20 IEnMin= 2 EnMin= -288.569015813298     IErMin= 2 ErrMin= 7.79D-03
 ErrMax= 1.48D-02  0.00D+00 EMaxC= 1.00D-01 BMatC= 3.21D-03 BMatP= 1.11D-03
 IDIUse=2 WtCom= 0.00D+00 WtEn= 1.00D+00
 EnCoef did     1 forward-backward iterations
 Coeff-En:   0.000D+00 0.591D+00 0.000D+00 0.000D+00 0.000D+00 0.000D+00
 Coeff-En:   0.000D+00 0.000D+00 0.000D+00 0.000D+00 0.000D+00 0.000D+00
 Coeff-En:   0.000D+00 0.000D+00 0.000D+00 0.000D+00 0.000D+00 0.000D+00
 Coeff-En:   0.205D+00 0.205D+00
 Coeff:      0.000D+00 0.591D+00 0.000D+00 0.000D+00 0.000D+00 0.000D+00
 Coeff:      0.000D+00 0.000D+00 0.000D+00 0.000D+00 0.000D+00 0.000D+00
 Coeff:      0.000D+00 0.000D+00 0.000D+00 0.000D+00 0.000D+00 0.000D+00
 Coeff:      0.205D+00 0.205D+00
 Gap=     0.000 Goal=   None    Shift=    0.000
 RMSDP=1.20D-02 MaxDP=3.05D-01 DE=-6.66D-07 OVMax= 5.44D-06

 Cycle 118  Pass 1  IDiag  1:
 Density matrix breaks symmetry, PCut= 1.00D-07
 Density has only Abelian symmetry.
 E= -288.564245123877     Delta-E=        0.000000666098 Rises=F Damp=F
 DIIS: error= 1.48D-02 at cycle 118 NSaved=  20.
 NSaved=20 IEnMin= 2 EnMin= -288.569015813298     IErMin= 2 ErrMin= 7.79D-03
 ErrMax= 1.48D-02  0.00D+00 EMaxC= 1.00D-01 BMatC= 3.21D-03 BMatP= 1.11D-03
 IDIUse=2 WtCom= 0.00D+00 WtEn= 1.00D+00
 Rare condition: small coef for last iteration:  0.000D+00
 Coeff-En:   0.000D+00 0.591D+00 0.000D+00 0.000D+00 0.000D+00 0.000D+00
 Coeff-En:   0.000D+00 0.000D+00 0.000D+00 0.000D+00 0.000D+00 0.000D+00
 Coeff-En:   0.000D+00 0.000D+00 0.000D+00 0.000D+00 0.000D+00 0.000D+00
 Coeff-En:   0.205D+00 0.205D+00
 Coeff:      0.000D+00 0.591D+00 0.000D+00 0.000D+00 0.000D+00 0.000D+00
 Coeff:      0.000D+00 0.000D+00 0.000D+00 0.000D+00 0.000D+00 0.000D+00
 Coeff:      0.000D+00 0.000D+00 0.000D+00 0.000D+00 0.000D+00 0.000D+00
 Coeff:      0.205D+00 0.205D+00
 Gap=     0.000 Goal=   None    Shift=    0.000
 RMSDP=1.20D-02 MaxDP=3.05D-01 DE= 6.66D-07 OVMax= 5.44D-06

 Cycle 119  Pass 1  IDiag  1:
 Density matrix breaks symmetry, PCut= 1.00D-07
 Density has only Abelian symmetry.
 E= -288.564245789975     Delta-E=       -0.000000666098 Rises=F Damp=F
 DIIS: error= 1.48D-02 at cycle 119 NSaved=  20.
 NSaved=20 IEnMin= 2 EnMin= -288.569015813298     IErMin= 2 ErrMin= 7.79D-03
 ErrMax= 1.48D-02  0.00D+00 EMaxC= 1.00D-01 BMatC= 3.21D-03 BMatP= 1.11D-03
 IDIUse=2 WtCom= 0.00D+00 WtEn= 1.00D+00
 EnCoef did     1 forward-backward iterations
 Coeff-En:   0.000D+00 0.591D+00 0.000D+00 0.000D+00 0.000D+00 0.000D+00
 Coeff-En:   0.000D+00 0.000D+00 0.000D+00 0.000D+00 0.000D+00 0.000D+00
 Coeff-En:   0.000D+00 0.000D+00 0.000D+00 0.000D+00 0.000D+00 0.000D+00
 Coeff-En:   0.205D+00 0.205D+00
 Coeff:      0.000D+00 0.591D+00 0.000D+00 0.000D+00 0.000D+00 0.000D+00
 Coeff:      0.000D+00 0.000D+00 0.000D+00 0.000D+00 0.000D+00 0.000D+00
 Coeff:      0.000D+00 0.000D+00 0.000D+00 0.000D+00 0.000D+00 0.000D+00
 Coeff:      0.205D+00 0.205D+00
 Gap=     0.000 Goal=   None    Shift=    0.000
 RMSDP=1.20D-02 MaxDP=3.05D-01 DE=-6.66D-07 OVMax= 5.44D-06

 Cycle 120  Pass 1  IDiag  1:
 Density matrix breaks symmetry, PCut= 1.00D-07
 Density has only Abelian symmetry.
 E= -288.564245123877     Delta-E=        0.000000666098 Rises=F Damp=F
 DIIS: error= 1.48D-02 at cycle 120 NSaved=  20.
 NSaved=20 IEnMin= 2 EnMin= -288.569015813298     IErMin= 2 ErrMin= 7.79D-03
 ErrMax= 1.48D-02  0.00D+00 EMaxC= 1.00D-01 BMatC= 3.21D-03 BMatP= 1.11D-03
 IDIUse=2 WtCom= 0.00D+00 WtEn= 1.00D+00
 Rare condition: small coef for last iteration:  0.000D+00
 Coeff-En:   0.000D+00 0.591D+00 0.000D+00 0.000D+00 0.000D+00 0.000D+00
 Coeff-En:   0.000D+00 0.000D+00 0.000D+00 0.000D+00 0.000D+00 0.000D+00
 Coeff-En:   0.000D+00 0.000D+00 0.000D+00 0.000D+00 0.000D+00 0.000D+00
 Coeff-En:   0.205D+00 0.205D+00
 Coeff:      0.000D+00 0.591D+00 0.000D+00 0.000D+00 0.000D+00 0.000D+00
 Coeff:      0.000D+00 0.000D+00 0.000D+00 0.000D+00 0.000D+00 0.000D+00
 Coeff:      0.000D+00 0.000D+00 0.000D+00 0.000D+00 0.000D+00 0.000D+00
 Coeff:      0.205D+00 0.205D+00
 Gap=     0.000 Goal=   None    Shift=    0.000
 RMSDP=1.20D-02 MaxDP=3.05D-01 DE= 6.66D-07 OVMax= 5.44D-06

 Cycle 121  Pass 1  IDiag  1:
 Density matrix breaks symmetry, PCut= 1.00D-07
 Density has only Abelian symmetry.
 E= -288.564245789974     Delta-E=       -0.000000666098 Rises=F Damp=F
 DIIS: error= 1.48D-02 at cycle 121 NSaved=  20.
 NSaved=20 IEnMin= 2 EnMin= -288.569015813298     IErMin= 2 ErrMin= 7.79D-03
 ErrMax= 1.48D-02  0.00D+00 EMaxC= 1.00D-01 BMatC= 3.21D-03 BMatP= 1.11D-03
 IDIUse=2 WtCom= 0.00D+00 WtEn= 1.00D+00
 EnCoef did     1 forward-backward iterations
 Coeff-En:   0.000D+00 0.591D+00 0.000D+00 0.000D+00 0.000D+00 0.000D+00
 Coeff-En:   0.000D+00 0.000D+00 0.000D+00 0.000D+00 0.000D+00 0.000D+00
 Coeff-En:   0.000D+00 0.000D+00 0.000D+00 0.000D+00 0.000D+00 0.000D+00
 Coeff-En:   0.205D+00 0.205D+00
 Coeff:      0.000D+00 0.591D+00 0.000D+00 0.000D+00 0.000D+00 0.000D+00
 Coeff:      0.000D+00 0.000D+00 0.000D+00 0.000D+00 0.000D+00 0.000D+00
 Coeff:      0.000D+00 0.000D+00 0.000D+00 0.000D+00 0.000D+00 0.000D+00
 Coeff:      0.205D+00 0.205D+00
 Gap=     0.000 Goal=   None    Shift=    0.000
 RMSDP=1.20D-02 MaxDP=3.05D-01 DE=-6.66D-07 OVMax= 5.44D-06

 Cycle 122  Pass 1  IDiag  1:
 Density matrix breaks symmetry, PCut= 1.00D-07
 Density has only Abelian symmetry.
 E= -288.564245123876     Delta-E=        0.000000666098 Rises=F Damp=F
 DIIS: error= 1.48D-02 at cycle 122 NSaved=  20.
 NSaved=20 IEnMin= 2 EnMin= -288.569015813298     IErMin= 2 ErrMin= 7.79D-03
 ErrMax= 1.48D-02  0.00D+00 EMaxC= 1.00D-01 BMatC= 3.21D-03 BMatP= 1.11D-03
 IDIUse=2 WtCom= 0.00D+00 WtEn= 1.00D+00
 Rare condition: small coef for last iteration:  0.000D+00
 Coeff-En:   0.000D+00 0.591D+00 0.000D+00 0.000D+00 0.000D+00 0.000D+00
 Coeff-En:   0.000D+00 0.000D+00 0.000D+00 0.000D+00 0.000D+00 0.000D+00
 Coeff-En:   0.000D+00 0.000D+00 0.000D+00 0.000D+00 0.000D+00 0.000D+00
 Coeff-En:   0.205D+00 0.205D+00
 Coeff:      0.000D+00 0.591D+00 0.000D+00 0.000D+00 0.000D+00 0.000D+00
 Coeff:      0.000D+00 0.000D+00 0.000D+00 0.000D+00 0.000D+00 0.000D+00
 Coeff:      0.000D+00 0.000D+00 0.000D+00 0.000D+00 0.000D+00 0.000D+00
 Coeff:      0.205D+00 0.205D+00
 Gap=     0.000 Goal=   None    Shift=    0.000
 RMSDP=1.20D-02 MaxDP=3.05D-01 DE= 6.66D-07 OVMax= 5.44D-06

 Cycle 123  Pass 1  IDiag  1:
 Density matrix breaks symmetry, PCut= 1.00D-07
 Density has only Abelian symmetry.
 E= -288.564245789975     Delta-E=       -0.000000666098 Rises=F Damp=F
 DIIS: error= 1.48D-02 at cycle 123 NSaved=  20.
 NSaved=20 IEnMin= 2 EnMin= -288.569015813298     IErMin= 2 ErrMin= 7.79D-03
 ErrMax= 1.48D-02  0.00D+00 EMaxC= 1.00D-01 BMatC= 3.21D-03 BMatP= 1.11D-03
 IDIUse=2 WtCom= 0.00D+00 WtEn= 1.00D+00
 EnCoef did     1 forward-backward iterations
 Coeff-En:   0.000D+00 0.591D+00 0.000D+00 0.000D+00 0.000D+00 0.000D+00
 Coeff-En:   0.000D+00 0.000D+00 0.000D+00 0.000D+00 0.000D+00 0.000D+00
 Coeff-En:   0.000D+00 0.000D+00 0.000D+00 0.000D+00 0.000D+00 0.000D+00
 Coeff-En:   0.205D+00 0.205D+00
 Coeff:      0.000D+00 0.591D+00 0.000D+00 0.000D+00 0.000D+00 0.000D+00
 Coeff:      0.000D+00 0.000D+00 0.000D+00 0.000D+00 0.000D+00 0.000D+00
 Coeff:      0.000D+00 0.000D+00 0.000D+00 0.000D+00 0.000D+00 0.000D+00
 Coeff:      0.205D+00 0.205D+00
 Gap=     0.000 Goal=   None    Shift=    0.000
 RMSDP=1.20D-02 MaxDP=3.05D-01 DE=-6.66D-07 OVMax= 5.44D-06

 Cycle 124  Pass 1  IDiag  1:
 Density matrix breaks symmetry, PCut= 1.00D-07
 Density has only Abelian symmetry.
 E= -288.564245123876     Delta-E=        0.000000666099 Rises=F Damp=F
 DIIS: error= 1.48D-02 at cycle 124 NSaved=  20.
 NSaved=20 IEnMin= 2 EnMin= -288.569015813298     IErMin= 2 ErrMin= 7.79D-03
 ErrMax= 1.48D-02  0.00D+00 EMaxC= 1.00D-01 BMatC= 3.21D-03 BMatP= 1.11D-03
 IDIUse=2 WtCom= 0.00D+00 WtEn= 1.00D+00
 Rare condition: small coef for last iteration:  0.111D-15
 Coeff-En:   0.000D+00 0.591D+00 0.000D+00 0.000D+00 0.000D+00 0.000D+00
 Coeff-En:   0.000D+00 0.000D+00 0.000D+00 0.000D+00 0.000D+00 0.000D+00
 Coeff-En:   0.000D+00 0.000D+00 0.000D+00 0.000D+00 0.000D+00 0.000D+00
 Coeff-En:   0.205D+00 0.205D+00
 Coeff:      0.000D+00 0.591D+00 0.000D+00 0.000D+00 0.000D+00 0.000D+00
 Coeff:      0.000D+00 0.000D+00 0.000D+00 0.000D+00 0.000D+00 0.000D+00
 Coeff:      0.000D+00 0.000D+00 0.000D+00 0.000D+00 0.000D+00 0.000D+00
 Coeff:      0.205D+00 0.205D+00
 Gap=     0.000 Goal=   None    Shift=    0.000
 RMSDP=1.20D-02 MaxDP=3.05D-01 DE= 6.66D-07 OVMax= 5.44D-06

 Cycle 125  Pass 1  IDiag  1:
 Density matrix breaks symmetry, PCut= 1.00D-07
 Density has only Abelian symmetry.
 E= -288.564245789975     Delta-E=       -0.000000666099 Rises=F Damp=F
 DIIS: error= 1.48D-02 at cycle 125 NSaved=  20.
 NSaved=20 IEnMin= 2 EnMin= -288.569015813298     IErMin= 2 ErrMin= 7.79D-03
 ErrMax= 1.48D-02  0.00D+00 EMaxC= 1.00D-01 BMatC= 3.21D-03 BMatP= 1.11D-03
 IDIUse=2 WtCom= 0.00D+00 WtEn= 1.00D+00
 EnCoef did     1 forward-backward iterations
 Coeff-En:   0.000D+00 0.591D+00 0.000D+00 0.000D+00 0.000D+00 0.000D+00
 Coeff-En:   0.000D+00 0.000D+00 0.000D+00 0.000D+00 0.000D+00 0.000D+00
 Coeff-En:   0.000D+00 0.000D+00 0.000D+00 0.000D+00 0.000D+00 0.000D+00
 Coeff-En:   0.205D+00 0.205D+00
 Coeff:      0.000D+00 0.591D+00 0.000D+00 0.000D+00 0.000D+00 0.000D+00
 Coeff:      0.000D+00 0.000D+00 0.000D+00 0.000D+00 0.000D+00 0.000D+00
 Coeff:      0.000D+00 0.000D+00 0.000D+00 0.000D+00 0.000D+00 0.000D+00
 Coeff:      0.205D+00 0.205D+00
 Gap=     0.000 Goal=   None    Shift=    0.000
 RMSDP=1.20D-02 MaxDP=3.05D-01 DE=-6.66D-07 OVMax= 5.44D-06

 Cycle 126  Pass 1  IDiag  1:
 Density matrix breaks symmetry, PCut= 1.00D-07
 Density has only Abelian symmetry.
 E= -288.564245123876     Delta-E=        0.000000666098 Rises=F Damp=F
 DIIS: error= 1.48D-02 at cycle 126 NSaved=  20.
 NSaved=20 IEnMin= 2 EnMin= -288.569015813298     IErMin= 2 ErrMin= 7.79D-03
 ErrMax= 1.48D-02  0.00D+00 EMaxC= 1.00D-01 BMatC= 3.21D-03 BMatP= 1.11D-03
 IDIUse=2 WtCom= 0.00D+00 WtEn= 1.00D+00
 Rare condition: small coef for last iteration:  0.000D+00
 Coeff-En:   0.000D+00 0.591D+00 0.000D+00 0.000D+00 0.000D+00 0.000D+00
 Coeff-En:   0.000D+00 0.000D+00 0.000D+00 0.000D+00 0.000D+00 0.000D+00
 Coeff-En:   0.000D+00 0.000D+00 0.000D+00 0.000D+00 0.000D+00 0.000D+00
 Coeff-En:   0.205D+00 0.205D+00
 Coeff:      0.000D+00 0.591D+00 0.000D+00 0.000D+00 0.000D+00 0.000D+00
 Coeff:      0.000D+00 0.000D+00 0.000D+00 0.000D+00 0.000D+00 0.000D+00
 Coeff:      0.000D+00 0.000D+00 0.000D+00 0.000D+00 0.000D+00 0.000D+00
 Coeff:      0.205D+00 0.205D+00
 Gap=     0.000 Goal=   None    Shift=    0.000
 RMSDP=1.20D-02 MaxDP=3.05D-01 DE= 6.66D-07 OVMax= 5.44D-06

 Cycle 127  Pass 1  IDiag  1:
 Density matrix breaks symmetry, PCut= 1.00D-07
 Density has only Abelian symmetry.
 E= -288.564245789975     Delta-E=       -0.000000666098 Rises=F Damp=F
 DIIS: error= 1.48D-02 at cycle 127 NSaved=  20.
 NSaved=20 IEnMin= 2 EnMin= -288.569015813298     IErMin= 2 ErrMin= 7.79D-03
 ErrMax= 1.48D-02  0.00D+00 EMaxC= 1.00D-01 BMatC= 3.21D-03 BMatP= 1.11D-03
 IDIUse=2 WtCom= 0.00D+00 WtEn= 1.00D+00
 EnCoef did     1 forward-backward iterations
 Coeff-En:   0.000D+00 0.591D+00 0.000D+00 0.000D+00 0.000D+00 0.000D+00
 Coeff-En:   0.000D+00 0.000D+00 0.000D+00 0.000D+00 0.000D+00 0.000D+00
 Coeff-En:   0.000D+00 0.000D+00 0.000D+00 0.000D+00 0.000D+00 0.000D+00
 Coeff-En:   0.205D+00 0.205D+00
 Coeff:      0.000D+00 0.591D+00 0.000D+00 0.000D+00 0.000D+00 0.000D+00
 Coeff:      0.000D+00 0.000D+00 0.000D+00 0.000D+00 0.000D+00 0.000D+00
 Coeff:      0.000D+00 0.000D+00 0.000D+00 0.000D+00 0.000D+00 0.000D+00
 Coeff:      0.205D+00 0.205D+00
 Gap=     0.000 Goal=   None    Shift=    0.000
 RMSDP=1.20D-02 MaxDP=3.05D-01 DE=-6.66D-07 OVMax= 5.44D-06

 Cycle 128  Pass 1  IDiag  1:
 Density matrix breaks symmetry, PCut= 1.00D-07
 Density has only Abelian symmetry.
 E= -288.564245123877     Delta-E=        0.000000666097 Rises=F Damp=F
 DIIS: error= 1.48D-02 at cycle 128 NSaved=  20.
 NSaved=20 IEnMin= 2 EnMin= -288.569015813298     IErMin= 2 ErrMin= 7.79D-03
 ErrMax= 1.48D-02  0.00D+00 EMaxC= 1.00D-01 BMatC= 3.21D-03 BMatP= 1.11D-03
 IDIUse=2 WtCom= 0.00D+00 WtEn= 1.00D+00
 Rare condition: small coef for last iteration: -0.222D-15
 Coeff-En:   0.000D+00 0.591D+00 0.000D+00 0.000D+00 0.000D+00 0.000D+00
 Coeff-En:   0.000D+00 0.000D+00 0.000D+00 0.000D+00 0.000D+00 0.000D+00
 Coeff-En:   0.000D+00 0.000D+00 0.000D+00 0.000D+00 0.000D+00 0.000D+00
 Coeff-En:   0.205D+00 0.205D+00
 Coeff:      0.000D+00 0.591D+00 0.000D+00 0.000D+00 0.000D+00 0.000D+00
 Coeff:      0.000D+00 0.000D+00 0.000D+00 0.000D+00 0.000D+00 0.000D+00
 Coeff:      0.000D+00 0.000D+00 0.000D+00 0.000D+00 0.000D+00 0.000D+00
 Coeff:      0.205D+00 0.205D+00
 Gap=     0.000 Goal=   None    Shift=    0.000
 RMSDP=1.20D-02 MaxDP=3.05D-01 DE= 6.66D-07 OVMax= 5.44D-06

 >>>>>>>>>> Convergence criterion not met.
 SCF Done:  E(ROHF) =  -288.564245124     A.U. after  129 cycles
            NFock=128  Conv=0.12D-01     -V/T= 2.0006
 <Sx>= 0.0000 <Sy>= 0.0000 <Sz>= 0.5000 <S**2>= 0.7500 S= 0.5000
 <L.S>= 0.000000000000E+00
 KE= 2.883781086710D+02 PE=-6.838128835489D+02 EE= 1.068705297541D+02
 Annihilation of the first spin contaminant:
 S**2 before annihilation     0.7500,   after     0.7500
 Leave Link  502 at Mon Oct  5 21:37:11 2020, MaxMem=   268435456 cpu:              73.6 elap:              10.5
 (Enter /applis/site/cecic/gaussian16/B.01/nehalem/g16/l801.exe)
 Windowed orbitals will be sorted by symmetry type.
 SCFChk:  SCF convergence  1.20D-02 required  1.00D-08


 SCF Error SCF Error SCF Error SCF Error SCF Error SCF Error SCF Error SCF Error

                                    ERROR!!!!

    SCF has not converged.  Gradients and post-SCF results would be GARBAGE!!

 SCF Error SCF Error SCF Error SCF Error SCF Error SCF Error SCF Error SCF Error


 Error termination via Lnk1e in /applis/site/cecic/gaussian16/B.01/nehalem/g16/l801.exe at Mon Oct  5 21:37:12 2020.
 Job cpu time:       0 days  0 hours  1 minutes 23.4 seconds.
 Elapsed time:       0 days  0 hours  0 minutes 12.8 seconds.
 File lengths (MBytes):  RWF=     10 Int=      0 D2E=      0 Chk=      1 Scr=      1
