5
 energy: -7.011118525713 gnorm: 0.074952643332 xtb: 6.2.2 (9d81278992624c895f80dd42a50cac0aa55982e2)
C        -0.00161700000000   -0.09326500000000    0.00553400000000
C         1.24943400000000    0.75707400000000   -0.05764100000000
C        -1.22240900000000    0.80129400000000   -0.03483100000000
H        -0.00340300000000   -0.67905900000000    0.94766600000000
H        -0.02200400000000   -0.78604500000000   -0.86072800000000
5
 energy: -7.030729819716 gnorm: 0.076434375787 xtb: 6.2.2 (9d81278992624c895f80dd42a50cac0aa55982e2)
C        -0.00219096824306   -0.12636802354846    0.00749834219907
C         1.13866491253818    0.78867937830519   -0.05837130976197
C        -1.11061221914404    0.82891702849917   -0.03761517311967
H        -0.00362401409305   -0.69208832079131    0.94900386050191
H        -0.02223671105802   -0.79914106246459   -0.86051571981934
5
 energy: -7.076569185557 gnorm: 0.098243963830 xtb: 6.2.2 (9d81278992624c895f80dd42a50cac0aa55982e2)
C        -0.00366180082583   -0.21117002214761    0.01253040008005
C         0.96447012215044    0.90401934918018   -0.06340301847223
C        -0.93252659005150    0.93795529167481   -0.04589776124892
H        -0.00478178181927   -0.76157608604176    0.95822086442965
H        -0.02349894945384   -0.86922953266562   -0.86145048478855
5
 energy: -7.102606296031 gnorm: 0.058320661924 xtb: 6.2.2 (9d81278992624c895f80dd42a50cac0aa55982e2)
C        -0.00494044111128   -0.28489591700106    0.01690521640927
C         0.78228938264997    0.99476770301957   -0.06689777175544
C        -0.74731237664902    1.02213118636251   -0.05278281052968
H        -0.00558821508959   -0.81176696738397    0.96812453882201
H        -0.02444734980008   -0.92023700499705   -0.86534917294617
5
 energy: -7.105475178856 gnorm: 0.014994622181 xtb: 6.2.2 (9d81278992624c895f80dd42a50cac0aa55982e2)
C        -0.00415064739663   -0.23935205080476    0.01420266328336
C         0.80422044077808    0.95554570647439   -0.06480304123101
C        -0.77058974392271    0.98371795383375   -0.05027070780366
H        -0.00557433964774   -0.79724113468768    0.94148178107863
H        -0.02390470981099   -0.90267147481570   -0.84061069532731
5
 energy: -7.105919636650 gnorm: 0.006293622234 xtb: 6.2.2 (9d81278992624c895f80dd42a50cac0aa55982e2)
C        -0.00420375480205   -0.24241504022205    0.01438439164569
C         0.78944844064486    0.97106784824516   -0.06556950718641
C        -0.75528876205893    0.99870217567460   -0.05131442463989
H        -0.00586602248664   -0.81127088879009    0.93708833238402
H        -0.02408890129723   -0.91608509490762   -0.83458879220341
5
 energy: -7.105962893616 gnorm: 0.005258059495 xtb: 6.2.2 (9d81278992624c895f80dd42a50cac0aa55982e2)
C        -0.00415632846637   -0.23968032583839    0.01422208642738
C         0.79459980843045    0.97576486888728   -0.06590071370305
C        -0.76027411542943    1.00358062849506   -0.05155137586276
H        -0.00600597973500   -0.81761429895852    0.93426987785543
H        -0.02416238479966   -0.92205187258543   -0.83103987471700
5
 energy: -7.105979127602 gnorm: 0.000437955936 xtb: 6.2.2 (9d81278992624c895f80dd42a50cac0aa55982e2)
C        -0.00411702118446   -0.23741505355499    0.01408764380754
C         0.79340024916722    0.97503405009255   -0.06584573106764
C        -0.75910061361691    1.00280738628754   -0.05151707325226
H        -0.00602830966011   -0.81808042009035    0.93284636155588
H        -0.02415330470573   -0.92234696273474   -0.82957120104351
5
 energy: -7.105979300028 gnorm: 0.000220492892 xtb: 6.2.2 (9d81278992624c895f80dd42a50cac0aa55982e2)
C        -0.00410733605835   -0.23685784110318    0.01405453230805
C         0.79314813972869    0.97542618660505   -0.06586869383502
C        -0.75883505439626    1.00319052787207   -0.05154004279724
H        -0.00604894442368   -0.81877997418571    0.93232116654589
H        -0.02415580485040   -0.92297989918823   -0.82896696222169
