$hessian                                                                        
        0.2286205511   0.0073181986   0.0008947429  -0.0962280515  -0.1288289145
        0.0086763511  -0.0874078640   0.1243782724  -0.0063685328  -0.0224557201
        0.0001773682   0.0004814940  -0.0225289155  -0.0030449247  -0.0036840552
        0.0073181986   0.6405263120  -0.0167447830  -0.1289616479  -0.2162595200
        0.0145522131   0.1245613451  -0.2253332382   0.0124749194  -0.0000227657
       -0.0835505820   0.1194618067  -0.0028951302  -0.1153829719  -0.1297441562
        0.0008947429  -0.0167447830   0.3597768701   0.0086986097   0.0145489325
        0.0063218356  -0.0063951962   0.0124785913   0.0065978729   0.0008232614
        0.1384169561  -0.2023179443  -0.0040214178  -0.1486996970  -0.1703786343
       -0.0962280515  -0.1289616479   0.0086986097   0.3185707988   0.1397189492
       -0.0118117565  -0.2207571407  -0.0025776455   0.0026762065  -0.0010335336
       -0.0041532741  -0.0011283713  -0.0005520730  -0.0040263816   0.0015653115
       -0.1288289145  -0.2162595200   0.0145489325   0.1397189492   0.2455262081
       -0.0174769469   0.0105356650   0.0002406730   0.0013068811  -0.0119933531
       -0.0146066491   0.0017964673  -0.0094323467  -0.0149007121  -0.0001753339
        0.0086763511   0.0145522131   0.0063218356  -0.0118117565  -0.0174769469
       -0.0244985274   0.0019070822   0.0014405874   0.0240786508  -0.0212465517
        0.0021917071  -0.0028571321   0.0224748748  -0.0007075606  -0.0030448269
       -0.0874078640   0.1245613451  -0.0063951962  -0.2207571407   0.0105356650
        0.0019070822   0.3087803365  -0.1422750041   0.0049641559  -0.0000597130
        0.0036757876   0.0011408376  -0.0005556189   0.0035022064  -0.0016168795
        0.1243782724  -0.2253332382   0.0124785913  -0.0025776455   0.0002406730
        0.0014405874  -0.1422750041   0.2556285692  -0.0151702347   0.0115384188
       -0.0151702248   0.0015377602   0.0089359585  -0.0153657791  -0.0002867042
       -0.0063685328   0.0124749194   0.0065978729   0.0026762065   0.0013068811
        0.0240786508   0.0049641559  -0.0151702347  -0.0248052002   0.0212593687
        0.0013614560  -0.0032696783  -0.0225311983   0.0000269783  -0.0026016452
       -0.0224557201  -0.0000227657   0.0008232614  -0.0010335336  -0.0119933531
       -0.0212465517  -0.0000597130   0.0115384188   0.0212593687  -0.0074965448
        0.0007769489  -0.0001165277   0.0310455114  -0.0002992489  -0.0007195507
        0.0001773682  -0.0835505820   0.1384169561  -0.0041532741  -0.0146066491
        0.0021917071   0.0036757876  -0.0151702248   0.0013614560   0.0007769489
        0.1030768813  -0.1303320584  -0.0004768305   0.0102505746  -0.0116380608
        0.0004814940   0.1194618067  -0.2023179443  -0.0011283713   0.0017964673
       -0.0028571321   0.0011408376   0.0015377602  -0.0032696783  -0.0001165277
       -0.1303320584   0.2328135970  -0.0003774326   0.0075360243  -0.0243688422
       -0.0225289155  -0.0028951302  -0.0040214178  -0.0005520730  -0.0094323467
        0.0224748748  -0.0005556189   0.0089359585  -0.0225311983   0.0310455114
       -0.0004768305  -0.0003774326  -0.0074089040   0.0038683489   0.0044551739
       -0.0030449247  -0.1153829719  -0.1486996970  -0.0040263816  -0.0149007121
       -0.0007075606   0.0035022064  -0.0153657791   0.0000269783  -0.0002992489
        0.0102505746   0.0075360243   0.0038683489   0.1353988885   0.1418442550
       -0.0036840552  -0.1297441562  -0.1703786343   0.0015653115  -0.0001753339
       -0.0030448269  -0.0016168795  -0.0002867042  -0.0026016452  -0.0007195507
       -0.0116380608  -0.0243688422   0.0044551739   0.1418442550   0.2003939486
