 Entering Gaussian System
 *********************************************
 Gaussian 98:
 frequency output generated by the xtb code
 *********************************************
                         Standard orientation:
 --------------------------------------------------------------------
  Center     Atomic     Atomic              Coordinates (Angstroms)
  Number     Number      Type              X           Y           Z
 --------------------------------------------------------------------
    1          6             0       -0.004109   -0.236858    0.014055
    2          6             0        0.793153    0.975422   -0.065873
    3          6             0       -0.758830    1.003194   -0.051539
    4          1             0       -0.006050   -0.818778    0.932323
    5          1             0       -0.024164   -0.922981   -0.828965
 --------------------------------------------------------------------
     1 basis functions        1 primitive gaussians
     1 alpha electrons        1 beta electrons

 Harmonic frequencies (cm**-1), IR intensities (KM/Mole),
 Raman scattering activities (A**4/amu), Raman depolarization ratios,
 reduced masses (AMU), force constants (mDyne/A) and normal coordinates:
                      1                      2                      3
                        a                      a                      a 
 Frequencies -- -1058.7057              -272.9038               864.3358
 Red. masses --     2.0842                 3.9316                 3.0548
 Frc consts  --     0.0000                 0.0000                 0.0000
 IR Inten    --     0.0014                 0.2624                 0.1893
 Raman Activ --     0.0000                 0.0000                 0.0000
 Depolar     --     0.0000                 0.0000                 0.0000
 Atom AN      X      Y      Z        X      Y      Z        X      Y      Z
   1   6     0.00  -0.00  -0.00    -0.00  -0.03  -0.47     0.26  -0.01  -0.00
   2   6     0.00   0.01   0.22     0.00   0.01   0.15     0.06   0.24  -0.01
   3   6    -0.00  -0.01  -0.22     0.00   0.01   0.15     0.05  -0.24   0.01
   4   1     0.67  -0.01  -0.01     0.01   0.55   0.24    -0.64   0.01   0.01
   5   1    -0.67   0.01   0.01    -0.01  -0.52   0.31    -0.64   0.01   0.01
                      4                      5                      6
                        a                      a                      a 
 Frequencies --   907.7906              1063.0282              1123.6046
 Red. masses --    11.7217                11.9219                 1.6032
 Frc consts  --     0.0000                 0.0000                 0.0000
 IR Inten    --     0.3912                 0.0361                 0.4380
 Raman Activ --     0.0000                 0.0000                 0.0000
 Depolar     --     0.0000                 0.0000                 0.0000
 Atom AN      X      Y      Z        X      Y      Z        X      Y      Z
   1   6    -0.01  -0.43   0.03     0.63  -0.01  -0.01    -0.00  -0.19   0.01
   2   6    -0.57   0.26  -0.01    -0.31  -0.45   0.03    -0.06  -0.06   0.00
   3   6     0.58   0.24  -0.02    -0.29   0.46  -0.02     0.06  -0.07   0.00
   4   1    -0.00  -0.11   0.01    -0.06   0.00   0.00     0.01   0.58   0.37
   5   1    -0.00  -0.11   0.00    -0.06   0.00   0.00     0.01   0.53  -0.44
                      7                      8                      9
                        a                      a                      a 
 Frequencies --  1368.1430              2958.5244              2983.8588
 Red. masses --    11.7366                 2.0210                 1.5588
 Frc consts  --     0.0000                 0.0000                 0.0000
 IR Inten    --     0.7809                 0.1914                 0.2506
 Raman Activ --     0.0000                 0.0000                 0.0000
 Depolar     --     0.0000                 0.0000                 0.0000
 Atom AN      X      Y      Z        X      Y      Z        X      Y      Z
   1   6    -0.01  -0.64   0.04    -0.00  -0.02  -0.30    -0.00  -0.22   0.01
   2   6     0.41   0.34  -0.02    -0.00  -0.00  -0.00     0.01   0.00  -0.00
   3   6    -0.40   0.35  -0.02    -0.00  -0.00  -0.00    -0.01   0.00  -0.00
   4   1    -0.00  -0.08   0.08    -0.00  -0.37   0.56     0.00   0.34  -0.60
   5   1    -0.00  -0.09  -0.07     0.01   0.44   0.51     0.01   0.41   0.55
