[Molden Format]
[Title]
[Atoms] AU
C      1     6 -0.77639904289961E-02 -0.44759632162592E+00  0.26560022704248E-01
C      2     6  0.14988418381789E+01  0.18432801113088E+01 -0.12448222904301E+00
C      3     6 -0.14339807073403E+01  0.18957625109485E+01 -0.97394859447628E-01
H      4     1 -0.11432798750957E-01 -0.15472666291644E+01  0.17618342418838E+01
H      5     1 -0.45662451942660E-01 -0.17441815612028E+01 -0.15665171761007E+01
[GTO]
           1 0
 s           4   1.0000000000000000     
   51.049363095579913      -0.16312063210127389     
   8.7911227406887544      -0.19911024581000730     
  0.70640422258929825       0.31882047753655751     
  0.26922813413411617       0.12706504184240380     
 p           4   1.0000000000000000     
   5.8263656140800002       0.73716451545209605     
   1.5106896018720002       0.68216371614850257     
  0.53256483288000001       0.35783053929253711     
  0.21202323690600003        5.3983030275847881E-002

           2 0
 s           4   1.0000000000000000     
   51.049363095579913      -0.16312063210127389     
   8.7911227406887544      -0.19911024581000730     
  0.70640422258929825       0.31882047753655751     
  0.26922813413411617       0.12706504184240380     
 p           4   1.0000000000000000     
   5.8263656140800002       0.73716451545209605     
   1.5106896018720002       0.68216371614850257     
  0.53256483288000001       0.35783053929253711     
  0.21202323690600003        5.3983030275847881E-002

           3 0
 s           4   1.0000000000000000     
   51.049363095579913      -0.16312063210127389     
   8.7911227406887544      -0.19911024581000730     
  0.70640422258929825       0.31882047753655751     
  0.26922813413411617       0.12706504184240380     
 p           4   1.0000000000000000     
   5.8263656140800002       0.73716451545209605     
   1.5106896018720002       0.68216371614850257     
  0.53256483288000001       0.35783053929253711     
  0.21202323690600003        5.3983030275847881E-002

           4 0
 s           3   1.0000000000000000     
   3.3702276975336001       0.27359110588908298     
  0.61389118221497996       0.26460540653860526     
  0.16614291148415999        8.2465947534082318E-002

           5 0
 s           3   1.0000000000000000     
   3.3702276975336001       0.27359110588908298     
  0.61389118221497996       0.26460540653860526     
  0.16614291148415999        8.2465947534082318E-002

[MO]
Sym=     1a
Ene=  -0.68130258456856208     
Spin= Alpha
Occup=     2.00000000
           1  0.39833407452438385     
           2   2.9116887652410653E-003
           3  0.16784893661407096     
           4  -9.9601682640451834E-003
           5  0.37148040690612816     
           6 -0.12428437539399877     
           7  -7.9014222755551991E-002
           8   5.9539191224713944E-003
           9  0.37148020196718218     
          10  0.12146678395227119     
          11  -8.3411824586900662E-002
          12   3.6845327035135234E-003
          13   9.4774005368742531E-002
          14   9.4773863099870820E-002
Sym=     2a
Ene=  -0.59504443291483966     
Spin= Alpha
Occup=     2.00000000
           1 -0.36665182968646992     
           2   5.7821626880175418E-003
           3  0.33332594802110749     
           4  -1.9779851001276900E-002
           5  0.25457724492088762     
           6  -7.6788481200624370E-002
           7   9.8320489992037727E-002
           8  -5.0262608553698629E-003
           9  0.25457702368866481     
          10   8.0150878196597553E-002
          11   9.5512021958155058E-002
          12  -6.4759689934739319E-003
          13 -0.31339143600425717     
          14 -0.31339149767736990     
Sym=     3a
Ene=  -0.55342581484319020     
Spin= Alpha
Occup=     2.00000000
           1  -3.6813525811361073E-008
           2  0.43291367582266116     
           3  -7.7477514225632723E-003
           4  -4.0106028336027886E-003
           5  0.52058629032518988     
           6  0.17185169384547658     
           7 -0.10935977458354654     
           8   4.6959676403146170E-003
           9 -0.52058630151086405     
          10  0.17553765498998036     
          11  0.10314271154778810     
          12  -7.9140209287841528E-003
          13  -9.9424131202028560E-006
          14   1.0021752195350873E-005
Sym=     4a
Ene=  -0.53756056501782734     
Spin= Alpha
Occup=     2.00000000
           1   2.8900699240591080E-007
           2  -5.5496647516812755E-003
           3  -3.1839452700452950E-002
           4 -0.53817581648775237     
           5  -1.4552587171628353E-005
           6  -2.3247990679332435E-003
           7  -1.3327842887010558E-002
           8 -0.22531165800788006     
           9   1.4698423012919651E-005
          10  -2.3247844874029347E-003
          11  -1.3331670231362175E-002
          12 -0.22531128740731388     
          13 -0.35404831355153332     
          14  0.35404821682841936     
Sym=     5a
Ene=  -0.45479469019276575     
Spin= Alpha
Occup=     2.00000000
           1 -0.14408997022779638     
           2  -6.0531437927714834E-003
           3 -0.34892884974147292     
           4   2.0705699310607593E-002
           5  0.31075475983463452     
           6   3.1294392259855260E-002
           7  0.47407408129308021     
           8  -2.8369088139287832E-002
           9  0.31075432298539690     
          10  -1.4832527690286323E-002
          11  0.47489878927554008     
          12  -2.7942857171416195E-002
          13  0.19150175033982147     
          14  0.19150217615027376     
Sym=     6a
Ene=  -0.40627642478187420     
Spin= Alpha
Occup=     2.00000000
           1  -1.4862981445162324E-007
           2  0.52014089661038632     
           3  -9.3080498115265878E-003
           4  -4.8022207056920788E-003
           5 -0.34960931812066570     
           6 -0.22735648342598300     
           7 -0.42287483770603568     
           8   2.7369617323813725E-002
           9  0.34960887923177519     
          10 -0.21254708008643389     
          11  0.43074924278412258     
          12  -2.3284760172159590E-002
          13  -5.2728160310090844E-006
          14   5.5997012659984373E-006
Sym=     7a
Ene=  -0.39538290069674104     
Spin= Alpha
Occup=     1.99961825
           1  -1.4854666690466626E-002
           2   7.2054814823059869E-004
           3   4.1500277272386754E-002
           4  -2.4626534424833303E-003
           5  0.31614711903819109     
           6  0.59424043461957676     
           7 -0.15230112040243141     
           8   2.8925415317427529E-003
           9  0.31614842390872960     
          10 -0.59915437373634362     
          11 -0.13094413840523875     
          12   1.3914954136422511E-002
          13  -2.5086886985201336E-002
          14  -2.5087119929450327E-002
Sym=     8a
Ene=  -0.37911114193745460     
Spin= Alpha
Occup=     0.00038175
           1   4.0981670374110455E-008
           2  -1.7240089755903587E-003
           3  -9.8536369186749302E-003
           4 -0.16655922182576796     
           5   4.5020742283461906E-006
           6   6.3390821737215556E-003
           7   3.6417166122230449E-002
           8  0.61540310143596288     
           9  -4.3553269933483224E-006
          10   6.3384839849176915E-003
          11   3.6398811088510674E-002
          12  0.61540337446049120     
          13 -0.31635985534945416     
          14  0.31635942753870738     
Sym=     9a
Ene=  -0.28628314500289381     
Spin= Alpha
Occup=     0.00000000
           1  -1.1416180634145582E-006
           2   3.1013186262751606E-008
           3   5.9362822326303911E-007
           4  -4.7368767365030682E-008
           5  -1.5300052527784608E-007
           6  -7.8296281198108903E-003
           7  -4.4994931179457485E-002
           8 -0.76053799212845741     
           9  -1.5719561007302042E-007
          10   7.8296260217701509E-003
          11   4.4994639928298559E-002
          12  0.76053870572644688     
          13   2.4752902630958129E-007
          14   5.6398329913632625E-007
Sym=    10a
Ene=   -6.9358849397092109E-002
Spin= Alpha
Occup=     0.00000000
           1  -7.7113383264258527E-008
           2 -0.64070710674726350     
           3   1.1464792946386549E-002
           4   5.9088922113695493E-003
           5  -6.9713276157087695E-002
           6  0.49879520938656463     
           7 -0.60002137564837410     
           8   3.0365673124485650E-002
           9   6.9713307661638482E-002
          10  0.51929623167016981     
          11  0.58180310531205204     
          12  -3.9764184320991429E-002
          13   4.1832053791096435E-006
          14  -4.1262063693564765E-006
Sym=    11a
Ene=   0.12406913869508179     
Spin= Alpha
Occup=     0.00000000
           1  -1.1870524162630178     
           2   4.8536264651915222E-003
           3  0.27981065752988266     
           4  -1.6603402466609758E-002
           5   9.7901367447044904E-002
           6  -9.9951797688765276E-002
           7 -0.27102765529263945     
           8   1.7064295473504743E-002
           9   9.7900956077592124E-002
          10   9.0489254918757034E-002
          11 -0.27443554802179221     
          12   1.5303261115021500E-002
          13  0.68269095161404003     
          14  0.68269270878393740     
Sym=    12a
Ene=   0.16476685473191052     
Spin= Alpha
Occup=     0.00000000
           1   3.2158923355012527E-007
           2 -0.60069664840690085     
           3   1.0745279936366621E-002
           4   5.4849394835894726E-003
           5  0.59975535870416574     
           6 -0.70726064781775366     
           7 -0.32930286035041301     
           8   2.6774149260152640E-002
           9 -0.59975526296610482     
          10 -0.69540054559162456     
          11  0.35440454206103861     
          12  -1.3797276801363540E-002
          13   4.4648380311747986E-005
          14  -4.5259020242502859E-005
Sym=    13a
Ene=   0.20960512097194639     
Spin= Alpha
Occup=     0.00000000
           1   2.3200457859398005E-007
           2   1.1335176324235370E-002
           3   6.5405038860217757E-002
           4   1.1055634353704837     
           5   3.5064465462406020E-005
           6  -1.8930971698582714E-003
           7  -1.0689291734186441E-002
           8 -0.18028375963282414     
           9  -3.3068708207125474E-005
          10  -1.8911687034381397E-003
          11  -1.0643856437833544E-002
          12 -0.18028651205149013     
          13 -0.82028607068631787     
          14  0.82028245595655269     
Sym=    14a
Ene=   0.32801002992502648     
Spin= Alpha
Occup=     0.00000000
           1  0.31899627135083680     
           2   2.0079485867754151E-002
           3   1.1575401971007615     
           4  -6.8685961621695310E-002
           5 -0.40236154298222665     
           6  0.26091623642869144     
           7  0.49422705376622289     
           8  -3.1925461447337232E-002
           9 -0.40236180902790469     
          10 -0.24361339963036113     
          11  0.50325571153564719     
          12  -2.7266423472438298E-002
          13  0.37695371330368238     
          14  0.37695883315047496     
