 Entering Gaussian System, Link 0=g16
 Initial command:
 /applis/site/cecic/gaussian16/B.01/nehalem/g16/l1.exe "/bettik/tinaccil/g16/12557725_CN_2/Gau-166825.inp" -scrdir="/bettik/tinaccil/g16/12557725_CN_2/"
 Entering Link 1 = /applis/site/cecic/gaussian16/B.01/nehalem/g16/l1.exe PID=    166827.
  
 Copyright (c) 1988-2017, Gaussian, Inc.  All Rights Reserved.
  
 This is part of the Gaussian(R) 16 program.  It is based on
 the Gaussian(R) 09 system (copyright 2009, Gaussian, Inc.),
 the Gaussian(R) 03 system (copyright 2003, Gaussian, Inc.),
 the Gaussian(R) 98 system (copyright 1998, Gaussian, Inc.),
 the Gaussian(R) 94 system (copyright 1995, Gaussian, Inc.),
 the Gaussian 92(TM) system (copyright 1992, Gaussian, Inc.),
 the Gaussian 90(TM) system (copyright 1990, Gaussian, Inc.),
 the Gaussian 88(TM) system (copyright 1988, Gaussian, Inc.),
 the Gaussian 86(TM) system (copyright 1986, Carnegie Mellon
 University), and the Gaussian 82(TM) system (copyright 1983,
 Carnegie Mellon University). Gaussian is a federally registered
 trademark of Gaussian, Inc.
  
 This software contains proprietary and confidential information,
 including trade secrets, belonging to Gaussian, Inc.
  
 This software is provided under written license and may be
 used, copied, transmitted, or stored only in accord with that
 written license.
  
 The following legend is applicable only to US Government
 contracts under FAR:
  
                    RESTRICTED RIGHTS LEGEND
  
 Use, reproduction and disclosure by the US Government is
 subject to restrictions as set forth in subparagraphs (a)
 and (c) of the Commercial Computer Software - Restricted
 Rights clause in FAR 52.227-19.
  
 Gaussian, Inc.
 340 Quinnipiac St., Bldg. 40, Wallingford CT 06492
  
  
 ---------------------------------------------------------------
 Warning -- This program may not be used in any manner that
 competes with the business of Gaussian, Inc. or will provide
 assistance to any competitor of Gaussian, Inc.  The licensee
 of this program is prohibited from giving any competitor of
 Gaussian, Inc. access to this program.  By using this program,
 the user acknowledges that Gaussian, Inc. is engaged in the
 business of creating and licensing software in the field of
 computational chemistry and represents and warrants to the
 licensee that it is not a competitor of Gaussian, Inc. and that
 it will not use this program in any manner prohibited above.
 ---------------------------------------------------------------
  

 Cite this work as:
 Gaussian 16, Revision B.01,
 M. J. Frisch, G. W. Trucks, H. B. Schlegel, G. E. Scuseria, 
 M. A. Robb, J. R. Cheeseman, G. Scalmani, V. Barone, 
 G. A. Petersson, H. Nakatsuji, X. Li, M. Caricato, A. V. Marenich, 
 J. Bloino, B. G. Janesko, R. Gomperts, B. Mennucci, H. P. Hratchian, 
 J. V. Ortiz, A. F. Izmaylov, J. L. Sonnenberg, D. Williams-Young, 
 F. Ding, F. Lipparini, F. Egidi, J. Goings, B. Peng, A. Petrone, 
 T. Henderson, D. Ranasinghe, V. G. Zakrzewski, J. Gao, N. Rega, 
 G. Zheng, W. Liang, M. Hada, M. Ehara, K. Toyota, R. Fukuda, 
 J. Hasegawa, M. Ishida, T. Nakajima, Y. Honda, O. Kitao, H. Nakai, 
 T. Vreven, K. Throssell, J. A. Montgomery, Jr., J. E. Peralta, 
 F. Ogliaro, M. J. Bearpark, J. J. Heyd, E. N. Brothers, K. N. Kudin, 
 V. N. Staroverov, T. A. Keith, R. Kobayashi, J. Normand, 
 K. Raghavachari, A. P. Rendell, J. C. Burant, S. S. Iyengar, 
 J. Tomasi, M. Cossi, J. M. Millam, M. Klene, C. Adamo, R. Cammi, 
 J. W. Ochterski, R. L. Martin, K. Morokuma, O. Farkas, 
 J. B. Foresman, and D. J. Fox, Gaussian, Inc., Wallingford CT, 2016.
 
 ******************************************
 Gaussian 16:  ES64L-G16RevB.01 20-Dec-2017
                 2-Oct-2020 
 ******************************************
 %nosave
 %nproc=8
 Will use up to    8 processors via shared memory.
 %mem=2gb
 %chk=input
 --------------------------------------------------------
 #P M062X/cc-pvtz nosymm opt(noeigentest) optcyc=120 freq
 --------------------------------------------------------
 1/6=120,11=1,18=20,19=15,26=3,38=1/1,3;
 2/9=110,12=2,15=1,17=6,18=5,40=1/2;
 3/5=16,6=1,11=2,25=1,30=1,71=1,74=-55/1,2,3;
 4//1;
 5/5=2,38=5/2;
 6/7=2,8=2,9=2,10=2,28=1/1;
 7/30=1/1,2,3,16;
 1/6=120,11=1,18=20,19=15,26=3/3(2);
 2/9=110,15=1/2;
 99//99;
 2/9=110,15=1/2;
 3/5=16,6=1,11=2,25=1,30=1,71=1,74=-55/1,2,3;
 4/5=5,16=3,69=1/1;
 5/5=2,38=5/2;
 7/30=1/1,2,3,16;
 1/6=120,11=1,18=20,19=15,26=3/3(-5);
 2/9=110,15=1/2;
 6/7=2,8=2,9=2,10=2,19=2,28=1/1;
 99/9=1/99;
 Leave Link    1 at Fri Oct  2 14:52:08 2020, MaxMem=   268435456 cpu:               2.1 elap:               0.3
 (Enter /applis/site/cecic/gaussian16/B.01/nehalem/g16/l101.exe)
 -----
 Title
 -----
 Symbolic Z-matrix:
 Charge =  0 Multiplicity = 2
 C
 N                    1    B1
       Variables:
  B1                    1.19623                  
 
 ITRead=  0  0
 MicOpt= -1 -1
 NAtoms=      2 NQM=        2 NQMF=       0 NMMI=      0 NMMIF=      0
                NMic=       0 NMicF=      0.
                    Isotopes and Nuclear Properties:
 (Nuclear quadrupole moments (NQMom) in fm**2, nuclear magnetic moments (NMagM)
  in nuclear magnetons)

  Atom         1           2
 IAtWgt=          12          14
 AtmWgt=  12.0000000  14.0030740
 NucSpn=           0           2
 AtZEff=  -0.0000000  -0.0000000
 NQMom=    0.0000000   2.0440000
 NMagM=    0.0000000   0.4037610
 AtZNuc=   6.0000000   7.0000000
 Leave Link  101 at Fri Oct  2 14:52:08 2020, MaxMem=   268435456 cpu:               1.9 elap:               0.3
 (Enter /applis/site/cecic/gaussian16/B.01/nehalem/g16/l103.exe)

 GradGradGradGradGradGradGradGradGradGradGradGradGradGradGradGradGradGrad
 Berny optimization.
 Initialization pass.
                           ----------------------------
                           !    Initial Parameters    !
                           ! (Angstroms and Degrees)  !
 --------------------------                            --------------------------
 ! Name  Definition              Value          Derivative Info.                !
 --------------------------------------------------------------------------------
 ! R1    R(1,2)                  1.1962         estimate D2E/DX2                !
 --------------------------------------------------------------------------------
 Trust Radius=3.00D-01 FncErr=1.00D-07 GrdErr=1.00D-06 EigMax=2.50D+02 EigMin=1.00D-04
 Number of steps in this run=    100 maximum allowed number of steps=    100.
 GradGradGradGradGradGradGradGradGradGradGradGradGradGradGradGradGradGrad

 Leave Link  103 at Fri Oct  2 14:52:08 2020, MaxMem=   268435456 cpu:               0.5 elap:               0.2
 (Enter /applis/site/cecic/gaussian16/B.01/nehalem/g16/l202.exe)
                          Input orientation:                          
 ---------------------------------------------------------------------
 Center     Atomic      Atomic             Coordinates (Angstroms)
 Number     Number       Type             X           Y           Z
 ---------------------------------------------------------------------
      1          6           0        0.000000    0.000000    0.000000
      2          7           0        0.000000    0.000000    1.196230
 ---------------------------------------------------------------------
 Symmetry turned off by external request.
 Stoichiometry    CN(2)
 Framework group  C*V[C*(CN)]
 Deg. of freedom     1
 Full point group                 C*V     NOp   4
 Rotational constants (GHZ):           0.0000000          54.6522293          54.6522293
 Leave Link  202 at Fri Oct  2 14:52:08 2020, MaxMem=   268435456 cpu:               0.6 elap:               0.2
 (Enter /applis/site/cecic/gaussian16/B.01/nehalem/g16/l301.exe)
 Standard basis: CC-pVTZ (5D, 7F)
 Ernie: Thresh=  0.10000D-02 Tol=  0.10000D-05 Strict=F.
 Ernie:  6 primitive shells out of 52 were deleted.
    60 basis functions,   104 primitive gaussians,    70 cartesian basis functions
     7 alpha electrons        6 beta electrons
       nuclear repulsion energy        18.5795732080 Hartrees.
 IExCor= 4336 DFT=T Ex+Corr=M062X ExCW=0 ScaHFX=  0.540000
 ScaDFX=  1.000000  1.000000  1.000000  1.000000 ScalE2=  1.000000  1.000000
 IRadAn=      5 IRanWt=     -1 IRanGd=            0 ICorTp=0 IEmpDi=  4
 NAtoms=    2 NActive=    2 NUniq=    2 SFac= 1.00D+00 NAtFMM=   60 NAOKFM=F Big=F
 Integral buffers will be    131072 words long.
 Raffenetti 2 integral format.
 Two-electron integral symmetry is turned off.
 Leave Link  301 at Fri Oct  2 14:52:09 2020, MaxMem=   268435456 cpu:               0.7 elap:               0.2
 (Enter /applis/site/cecic/gaussian16/B.01/nehalem/g16/l302.exe)
 NPDir=0 NMtPBC=     1 NCelOv=     1 NCel=       1 NClECP=     1 NCelD=      1
         NCelK=      1 NCelE2=     1 NClLst=     1 CellRange=     0.0.
 One-electron integrals computed using PRISM.
 NBasis=    60 RedAO= T EigKep=  2.08D-03  NBF=    60
 NBsUse=    60 1.00D-06 EigRej= -1.00D+00 NBFU=    60
 Precomputing XC quadrature grid using
 IXCGrd= 4 IRadAn=           5 IRanWt=          -1 IRanGd=           0 AccXCQ= 0.00D+00.
 Generated NRdTot=       0 NPtTot=           0 NUsed=           0 NTot=          32
 NSgBfM=    70    70    70    70    70 MxSgAt=     2 MxSgA2=     2.
 Leave Link  302 at Fri Oct  2 14:52:09 2020, MaxMem=   268435456 cpu:               1.6 elap:               0.3
 (Enter /applis/site/cecic/gaussian16/B.01/nehalem/g16/l303.exe)
 DipDrv:  MaxL=1.
 Leave Link  303 at Fri Oct  2 14:52:09 2020, MaxMem=   268435456 cpu:               0.6 elap:               0.2
 (Enter /applis/site/cecic/gaussian16/B.01/nehalem/g16/l401.exe)
 ExpMin= 1.21D-01 ExpMax= 1.14D+04 ExpMxC= 3.89D+02 IAcc=3 IRadAn=         5 AccDes= 0.00D+00
 Harris functional with IExCor= 1009 and IRadAn=       5 diagonalized for initial guess.
 HarFok:  IExCor= 1009 AccDes= 0.00D+00 IRadAn=         5 IDoV= 1 UseB2=F ITyADJ=14
 ICtDFT=  3500011 ScaDFX=  1.000000  1.000000  1.000000  1.000000
 FoFCou: FMM=F IPFlag=           0 FMFlag=      100000 FMFlg1=           0
         NFxFlg=           0 DoJE=T BraDBF=F KetDBF=T FulRan=T
         wScrn=  0.000000 ICntrl=       500 IOpCl=  0 I1Cent=   200000004 NGrid=           0
         NMat0=    1 NMatS0=      1 NMatT0=    0 NMatD0=    1 NMtDS0=    0 NMtDT0=    0
 Symmetry not used in FoFCou.
 Harris En= -92.6213567241309    
 JPrj=0 DoOrth=F DoCkMO=F.
 Initial guess <Sx>= 0.0000 <Sy>= 0.0000 <Sz>= 0.5000 <S**2>= 0.7500 S= 0.5000
 Leave Link  401 at Fri Oct  2 14:52:10 2020, MaxMem=   268435456 cpu:               2.1 elap:               0.4
 (Enter /applis/site/cecic/gaussian16/B.01/nehalem/g16/l502.exe)
 Keep R1 and R2 ints in memory in canonical form, NReq=10503886.
 FoFCou: FMM=F IPFlag=           0 FMFlag=           0 FMFlg1=           0
         NFxFlg=           0 DoJE=F BraDBF=F KetDBF=F FulRan=T
         wScrn=  0.000000 ICntrl=       600 IOpCl=  0 I1Cent=           0 NGrid=           0
         NMat0=    1 NMatS0=   1830 NMatT0=    0 NMatD0=    1 NMtDS0=    0 NMtDT0=    0
 Symmetry not used in FoFCou.
 Two-electron integral symmetry not used.
 UHF open shell SCF:
 Using DIIS extrapolation, IDIIS=  1040.
 NGot=   268435456 LenX=   265073800 LenY=   265068459
 Requested convergence on RMS density matrix=1.00D-08 within 128 cycles.
 Requested convergence on MAX density matrix=1.00D-06.
 Requested convergence on             energy=1.00D-06.
 No special actions if energy rises.
 Integral accuracy reduced to 1.0D-05 until final iterations.

 Cycle   1  Pass 0  IDiag  1:
 E= -92.6592695191148    
 DIIS: error= 3.97D-02 at cycle   1 NSaved=   1.
 NSaved= 1 IEnMin= 1 EnMin= -92.6592695191148     IErMin= 1 ErrMin= 3.97D-02
 ErrMax= 3.97D-02  0.00D+00 EMaxC= 1.00D-01 BMatC= 2.49D-01 BMatP= 2.49D-01
 IDIUse=3 WtCom= 6.03D-01 WtEn= 3.97D-01
 Coeff-Com:  0.100D+01
 Coeff-En:   0.100D+01
 Coeff:      0.100D+01
 Gap=     0.554 Goal=   None    Shift=    0.000
 Gap=     0.168 Goal=   None    Shift=    0.000
 GapD=    0.168 DampG=1.000 DampE=0.500 DampFc=0.5000 IDamp=-1.
 Damping current iteration by 5.00D-01
 RMSDP=4.43D-03 MaxDP=8.25D-02              OVMax= 2.36D-01

 Cycle   2  Pass 0  IDiag  1:
 E= -92.6569627271065     Delta-E=        0.002306792008 Rises=F Damp=T
 DIIS: error= 2.76D-02 at cycle   2 NSaved=   2.
 NSaved= 2 IEnMin= 1 EnMin= -92.6592695191148     IErMin= 2 ErrMin= 2.76D-02
 ErrMax= 2.76D-02  0.00D+00 EMaxC= 1.00D-01 BMatC= 8.62D-02 BMatP= 2.49D-01
 IDIUse=3 WtCom= 7.24D-01 WtEn= 2.76D-01
 Coeff-Com:  0.316D+00 0.684D+00
 Coeff-En:   0.519D+00 0.481D+00
 Coeff:      0.372D+00 0.628D+00
 Gap=     0.515 Goal=   None    Shift=    0.000
 Gap=     0.215 Goal=   None    Shift=    0.000
 RMSDP=1.29D-03 MaxDP=1.70D-02 DE= 2.31D-03 OVMax= 1.95D-01

 Cycle   3  Pass 0  IDiag  1:
 E= -92.7035773363725     Delta-E=       -0.046614609266 Rises=F Damp=F
 DIIS: error= 7.80D-03 at cycle   3 NSaved=   3.
 NSaved= 3 IEnMin= 3 EnMin= -92.7035773363725     IErMin= 3 ErrMin= 7.80D-03
 ErrMax= 7.80D-03  0.00D+00 EMaxC= 1.00D-01 BMatC= 6.61D-03 BMatP= 8.62D-02
 IDIUse=3 WtCom= 9.22D-01 WtEn= 7.80D-02
 Coeff-Com:  0.138D-01 0.181D+00 0.805D+00
 Coeff-En:   0.000D+00 0.000D+00 0.100D+01
 Coeff:      0.127D-01 0.167D+00 0.820D+00
 Gap=     0.480 Goal=   None    Shift=    0.000
 Gap=     0.240 Goal=   None    Shift=    0.000
 RMSDP=5.64D-04 MaxDP=2.10D-02 DE=-4.66D-02 OVMax= 2.09D-02

 Cycle   4  Pass 0  IDiag  1:
 E= -92.7051655617540     Delta-E=       -0.001588225382 Rises=F Damp=F
 DIIS: error= 3.38D-03 at cycle   4 NSaved=   4.
 NSaved= 4 IEnMin= 4 EnMin= -92.7051655617540     IErMin= 4 ErrMin= 3.38D-03
 ErrMax= 3.38D-03  0.00D+00 EMaxC= 1.00D-01 BMatC= 5.83D-04 BMatP= 6.61D-03
 IDIUse=3 WtCom= 9.66D-01 WtEn= 3.38D-02
 Coeff-Com: -0.766D-02-0.150D-01 0.173D+00 0.849D+00
 Coeff-En:   0.000D+00 0.000D+00 0.000D+00 0.100D+01
 Coeff:     -0.740D-02-0.145D-01 0.167D+00 0.854D+00
 Gap=     0.480 Goal=   None    Shift=    0.000
 Gap=     0.244 Goal=   None    Shift=    0.000
 RMSDP=2.11D-04 MaxDP=3.97D-03 DE=-1.59D-03 OVMax= 1.63D-02

 Cycle   5  Pass 0  IDiag  1:
 E= -92.7055039734497     Delta-E=       -0.000338411696 Rises=F Damp=F
 DIIS: error= 1.45D-03 at cycle   5 NSaved=   5.
 NSaved= 5 IEnMin= 5 EnMin= -92.7055039734497     IErMin= 5 ErrMin= 1.45D-03
 ErrMax= 1.45D-03  0.00D+00 EMaxC= 1.00D-01 BMatC= 1.23D-04 BMatP= 5.83D-04
 IDIUse=3 WtCom= 9.86D-01 WtEn= 1.45D-02
 Coeff-Com: -0.471D-02 0.665D-02-0.115D+00-0.232D+00 0.135D+01
 Coeff-En:   0.000D+00 0.000D+00 0.000D+00 0.000D+00 0.100D+01
 Coeff:     -0.464D-02 0.655D-02-0.114D+00-0.228D+00 0.134D+01
 Gap=     0.480 Goal=   None    Shift=    0.000
 Gap=     0.247 Goal=   None    Shift=    0.000
 RMSDP=2.05D-04 MaxDP=3.59D-03 DE=-3.38D-04 OVMax= 1.71D-02

 Cycle   6  Pass 0  IDiag  1:
 E= -92.7057295143122     Delta-E=       -0.000225540862 Rises=F Damp=F
 DIIS: error= 1.09D-03 at cycle   6 NSaved=   6.
 NSaved= 6 IEnMin= 6 EnMin= -92.7057295143122     IErMin= 6 ErrMin= 1.09D-03
 ErrMax= 1.09D-03  0.00D+00 EMaxC= 1.00D-01 BMatC= 6.74D-05 BMatP= 1.23D-04
 IDIUse=3 WtCom= 9.89D-01 WtEn= 1.09D-02
 Coeff-Com: -0.555D-02 0.185D-01 0.235D+00 0.239D+00-0.343D+01 0.394D+01
 Coeff-En:   0.000D+00 0.000D+00 0.000D+00 0.000D+00 0.000D+00 0.100D+01
 Coeff:     -0.549D-02 0.183D-01 0.232D+00 0.237D+00-0.339D+01 0.391D+01
 Gap=     0.478 Goal=   None    Shift=    0.000
 Gap=     0.252 Goal=   None    Shift=    0.000
 RMSDP=4.68D-04 MaxDP=9.35D-03 DE=-2.26D-04 OVMax= 4.08D-02

 Cycle   7  Pass 0  IDiag  1:
 E= -92.7059903628873     Delta-E=       -0.000260848575 Rises=F Damp=F
 DIIS: error= 2.73D-04 at cycle   7 NSaved=   7.
 NSaved= 7 IEnMin= 7 EnMin= -92.7059903628873     IErMin= 7 ErrMin= 2.73D-04
 ErrMax= 2.73D-04  0.00D+00 EMaxC= 1.00D-01 BMatC= 6.79D-06 BMatP= 6.74D-05
 IDIUse=3 WtCom= 9.97D-01 WtEn= 2.73D-03
 Coeff-Com:  0.249D-02-0.434D-02 0.235D-01 0.470D-01 0.837D-02-0.165D+00
 Coeff-Com:  0.109D+01
 Coeff-En:   0.000D+00 0.000D+00 0.000D+00 0.000D+00 0.000D+00 0.000D+00
 Coeff-En:   0.100D+01
 Coeff:      0.249D-02-0.433D-02 0.234D-01 0.469D-01 0.835D-02-0.165D+00
 Coeff:      0.109D+01
 Gap=     0.478 Goal=   None    Shift=    0.000
 Gap=     0.251 Goal=   None    Shift=    0.000
 RMSDP=2.38D-05 MaxDP=6.54D-04 DE=-2.61D-04 OVMax= 2.13D-03

 Cycle   8  Pass 0  IDiag  1:
 E= -92.7059935485229     Delta-E=       -0.000003185636 Rises=F Damp=F
 DIIS: error= 5.85D-05 at cycle   8 NSaved=   8.
 NSaved= 8 IEnMin= 8 EnMin= -92.7059935485229     IErMin= 8 ErrMin= 5.85D-05
 ErrMax= 5.85D-05  0.00D+00 EMaxC= 1.00D-01 BMatC= 2.05D-07 BMatP= 6.79D-06
 IDIUse=1 WtCom= 1.00D+00 WtEn= 0.00D+00
 Coeff-Com:  0.394D-04-0.250D-03-0.354D-02-0.214D-02 0.173D-01-0.656D-01
 Coeff-Com: -0.859D-01 0.114D+01
 Coeff:      0.394D-04-0.250D-03-0.354D-02-0.214D-02 0.173D-01-0.656D-01
 Coeff:     -0.859D-01 0.114D+01
 Gap=     0.478 Goal=   None    Shift=    0.000
 Gap=     0.252 Goal=   None    Shift=    0.000
 RMSDP=2.73D-05 MaxDP=5.52D-04 DE=-3.19D-06 OVMax= 2.31D-03

 Cycle   9  Pass 0  IDiag  1:
 E= -92.7059942507536     Delta-E=       -0.000000702231 Rises=F Damp=F
 DIIS: error= 2.17D-05 at cycle   9 NSaved=   9.
 NSaved= 9 IEnMin= 9 EnMin= -92.7059942507536     IErMin= 9 ErrMin= 2.17D-05
 ErrMax= 2.17D-05  0.00D+00 EMaxC= 1.00D-01 BMatC= 3.38D-08 BMatP= 2.05D-07
 IDIUse=1 WtCom= 1.00D+00 WtEn= 0.00D+00
 Coeff-Com: -0.211D-03 0.606D-03 0.200D-02 0.437D-03-0.462D-01 0.779D-01
 Coeff-Com: -0.963D-01-0.149D+00 0.121D+01
 Coeff:     -0.211D-03 0.606D-03 0.200D-02 0.437D-03-0.462D-01 0.779D-01
 Coeff:     -0.963D-01-0.149D+00 0.121D+01
 Gap=     0.478 Goal=   None    Shift=    0.000
 Gap=     0.251 Goal=   None    Shift=    0.000
 RMSDP=2.81D-06 MaxDP=4.09D-05 DE=-7.02D-07 OVMax= 2.78D-04

 Initial convergence to 1.0D-05 achieved.  Increase integral accuracy.
 Cycle  10  Pass 1  IDiag  1:
 E= -92.7059897599380     Delta-E=        0.000004490816 Rises=F Damp=F
 DIIS: error= 1.85D-05 at cycle   1 NSaved=   1.
 NSaved= 1 IEnMin= 1 EnMin= -92.7059897599380     IErMin= 1 ErrMin= 1.85D-05
 ErrMax= 1.85D-05  0.00D+00 EMaxC= 1.00D-01 BMatC= 3.21D-08 BMatP= 3.21D-08
 IDIUse=1 WtCom= 1.00D+00 WtEn= 0.00D+00
 Coeff-Com:  0.100D+01
 Coeff:      0.100D+01
 Gap=     0.478 Goal=   None    Shift=    0.000
 Gap=     0.251 Goal=   None    Shift=    0.000
 RMSDP=2.81D-06 MaxDP=4.09D-05 DE= 4.49D-06 OVMax= 6.45D-05

 Cycle  11  Pass 1  IDiag  1:
 E= -92.7059897690465     Delta-E=       -0.000000009109 Rises=F Damp=F
 DIIS: error= 1.04D-05 at cycle   2 NSaved=   2.
 NSaved= 2 IEnMin= 2 EnMin= -92.7059897690465     IErMin= 2 ErrMin= 1.04D-05
 ErrMax= 1.04D-05  0.00D+00 EMaxC= 1.00D-01 BMatC= 3.95D-09 BMatP= 3.21D-08
 IDIUse=1 WtCom= 1.00D+00 WtEn= 0.00D+00
 Coeff-Com:  0.463D-01 0.954D+00
 Coeff:      0.463D-01 0.954D+00
 Gap=     0.478 Goal=   None    Shift=    0.000
 Gap=     0.251 Goal=   None    Shift=    0.000
 RMSDP=7.43D-07 MaxDP=1.22D-05 DE=-9.11D-09 OVMax= 6.52D-05

 Cycle  12  Pass 1  IDiag  1:
 E= -92.7059897701209     Delta-E=       -0.000000001074 Rises=F Damp=F
 DIIS: error= 1.15D-05 at cycle   3 NSaved=   3.
 NSaved= 3 IEnMin= 3 EnMin= -92.7059897701209     IErMin= 2 ErrMin= 1.04D-05
 ErrMax= 1.15D-05  0.00D+00 EMaxC= 1.00D-01 BMatC= 1.03D-08 BMatP= 3.95D-09
 IDIUse=1 WtCom= 1.00D+00 WtEn= 0.00D+00
 Coeff-Com: -0.584D-01 0.690D+00 0.368D+00
 Coeff:     -0.584D-01 0.690D+00 0.368D+00
 Gap=     0.478 Goal=   None    Shift=    0.000
 Gap=     0.251 Goal=   None    Shift=    0.000
 RMSDP=3.62D-07 MaxDP=5.72D-06 DE=-1.07D-09 OVMax= 2.27D-05

 Cycle  13  Pass 1  IDiag  1:
 E= -92.7059897726659     Delta-E=       -0.000000002545 Rises=F Damp=F
 DIIS: error= 3.57D-06 at cycle   4 NSaved=   4.
 NSaved= 4 IEnMin= 4 EnMin= -92.7059897726659     IErMin= 4 ErrMin= 3.57D-06
 ErrMax= 3.57D-06  0.00D+00 EMaxC= 1.00D-01 BMatC= 5.42D-10 BMatP= 3.95D-09
 IDIUse=1 WtCom= 1.00D+00 WtEn= 0.00D+00
 Coeff-Com:  0.185D-01-0.823D+00-0.348D+00 0.215D+01
 Coeff:      0.185D-01-0.823D+00-0.348D+00 0.215D+01
 Gap=     0.478 Goal=   None    Shift=    0.000
 Gap=     0.251 Goal=   None    Shift=    0.000
 RMSDP=6.93D-07 MaxDP=9.93D-06 DE=-2.54D-09 OVMax= 5.52D-05

 Cycle  14  Pass 1  IDiag  1:
 E= -92.7059897738824     Delta-E=       -0.000000001216 Rises=F Damp=F
 DIIS: error= 4.94D-07 at cycle   5 NSaved=   5.
 NSaved= 5 IEnMin= 5 EnMin= -92.7059897738824     IErMin= 5 ErrMin= 4.94D-07
 ErrMax= 4.94D-07  0.00D+00 EMaxC= 1.00D-01 BMatC= 1.61D-11 BMatP= 5.42D-10
 IDIUse=1 WtCom= 1.00D+00 WtEn= 0.00D+00
 Coeff-Com:  0.570D-02-0.303D-01-0.235D-01-0.731D-01 0.112D+01
 Coeff:      0.570D-02-0.303D-01-0.235D-01-0.731D-01 0.112D+01
 Gap=     0.478 Goal=   None    Shift=    0.000
 Gap=     0.251 Goal=   None    Shift=    0.000
 RMSDP=1.12D-07 MaxDP=1.52D-06 DE=-1.22D-09 OVMax= 9.00D-06

 Cycle  15  Pass 1  IDiag  1:
 E= -92.7059897739137     Delta-E=       -0.000000000031 Rises=F Damp=F
 DIIS: error= 1.21D-07 at cycle   6 NSaved=   6.
 NSaved= 6 IEnMin= 6 EnMin= -92.7059897739137     IErMin= 6 ErrMin= 1.21D-07
 ErrMax= 1.21D-07  0.00D+00 EMaxC= 1.00D-01 BMatC= 1.33D-12 BMatP= 1.61D-11
 IDIUse=1 WtCom= 1.00D+00 WtEn= 0.00D+00
 Coeff-Com:  0.460D-03 0.300D-01 0.799D-02-0.111D+00 0.190D+00 0.882D+00
 Coeff:      0.460D-03 0.300D-01 0.799D-02-0.111D+00 0.190D+00 0.882D+00
 Gap=     0.478 Goal=   None    Shift=    0.000
 Gap=     0.251 Goal=   None    Shift=    0.000
 RMSDP=1.66D-08 MaxDP=3.50D-07 DE=-3.13D-11 OVMax= 1.29D-06

 Cycle  16  Pass 1  IDiag  1:
 E= -92.7059897739145     Delta-E=       -0.000000000001 Rises=F Damp=F
 DIIS: error= 3.62D-08 at cycle   7 NSaved=   7.
 NSaved= 7 IEnMin= 7 EnMin= -92.7059897739145     IErMin= 7 ErrMin= 3.62D-08
 ErrMax= 3.62D-08  0.00D+00 EMaxC= 1.00D-01 BMatC= 1.20D-13 BMatP= 1.33D-12
 IDIUse=1 WtCom= 1.00D+00 WtEn= 0.00D+00
 Coeff-Com: -0.489D-03 0.774D-02 0.171D-02-0.763D-02-0.789D-01 0.779D-01
 Coeff-Com:  0.100D+01
 Coeff:     -0.489D-03 0.774D-02 0.171D-02-0.763D-02-0.789D-01 0.779D-01
 Coeff:      0.100D+01
 Gap=     0.478 Goal=   None    Shift=    0.000
 Gap=     0.251 Goal=   None    Shift=    0.000
 RMSDP=4.27D-09 MaxDP=8.93D-08 DE=-8.24D-13 OVMax= 3.08D-07

 SCF Done:  E(UM062X) =  -92.7059897739     A.U. after   16 cycles
            NFock= 16  Conv=0.43D-08     -V/T= 2.0073
 <Sx>= 0.0000 <Sy>= 0.0000 <Sz>= 0.5000 <S**2>= 0.7674 S= 0.5087
 <L.S>= 0.000000000000E+00
 KE= 9.203519562054D+01 PE=-2.533757740189D+02 EE= 5.005501541646D+01
 Annihilation of the first spin contaminant:
 S**2 before annihilation     0.7674,   after     0.7502
 Leave Link  502 at Fri Oct  2 14:52:12 2020, MaxMem=   268435456 cpu:              14.2 elap:               2.1
 (Enter /applis/site/cecic/gaussian16/B.01/nehalem/g16/l601.exe)
 Copying SCF densities to generalized density rwf, IOpCl= 1 IROHF=0.

 **********************************************************************

            Population analysis using the SCF Density.

 **********************************************************************

 Alpha  occ. eigenvalues --  -14.82143 -10.67057  -1.05240  -0.59014  -0.47328
 Alpha  occ. eigenvalues --   -0.45129  -0.45129
 Alpha virt. eigenvalues --    0.02703   0.02703   0.20933   0.32516   0.33385
 Alpha virt. eigenvalues --    0.33385   0.49424   0.57597   0.57597   0.62603
 Alpha virt. eigenvalues --    0.65822   0.65822   0.86064   0.86064   0.93197
 Alpha virt. eigenvalues --    1.20297   1.20297   1.28838   1.55241   1.55241
 Alpha virt. eigenvalues --    1.77635   2.01464   2.01464   2.22060   2.61896
 Alpha virt. eigenvalues --    2.61896   2.71307   2.71307   2.78851   2.80008
 Alpha virt. eigenvalues --    2.80008   2.91720   2.91720   2.93943   2.93943
 Alpha virt. eigenvalues --    3.08769   3.39175   3.39175   3.83944   3.93456
 Alpha virt. eigenvalues --    3.93456   4.36171   4.36171   4.55875   4.55876
 Alpha virt. eigenvalues --    4.78987   4.78987   4.91297   5.32854   5.40865
 Alpha virt. eigenvalues --    5.40865   5.82468  11.99040
  Beta  occ. eigenvalues --  -14.82025 -10.65748  -1.03097  -0.50544  -0.43629
  Beta  occ. eigenvalues --   -0.43629
  Beta virt. eigenvalues --   -0.18481   0.04587   0.04587   0.17388   0.31668
  Beta virt. eigenvalues --    0.32359   0.32359   0.49774   0.56913   0.56913
  Beta virt. eigenvalues --    0.66105   0.66105   0.66922   0.85817   0.85817
  Beta virt. eigenvalues --    0.91999   1.19834   1.19834   1.26729   1.54271
  Beta virt. eigenvalues --    1.54271   1.79513   2.03367   2.03367   2.25758
  Beta virt. eigenvalues --    2.62975   2.62975   2.71561   2.71561   2.79288
  Beta virt. eigenvalues --    2.82382   2.82382   2.96063   2.96063   2.96108
  Beta virt. eigenvalues --    2.96108   3.15526   3.38520   3.38520   3.84304
  Beta virt. eigenvalues --    3.91981   3.91981   4.34337   4.34338   4.53578
  Beta virt. eigenvalues --    4.53578   4.79143   4.79143   4.94294   5.34194
  Beta virt. eigenvalues --    5.39251   5.39251   5.82483  11.96134
          Condensed to atoms (all electrons):
               1          2
     1  C    5.098743   0.844086
     2  N    0.844086   6.213085
          Atomic-Atomic Spin Densities.
               1          2
     1  C    1.026482  -0.022313
     2  N   -0.022313   0.018145
 Mulliken charges and spin densities:
               1          2
     1  C    0.057171   1.004169
     2  N   -0.057171  -0.004169
 Sum of Mulliken charges =  -0.00000   1.00000
 Mulliken charges and spin densities with hydrogens summed into heavy atoms:
               1          2
     1  C    0.057171   1.004169
     2  N   -0.057171  -0.004169
 Electronic spatial extent (au):  <R**2>=             61.6111
 Charge=             -0.0000 electrons
 Dipole moment (field-independent basis, Debye):
    X=              0.0000    Y=              0.0000    Z=             -1.7626  Tot=              1.7626
 Quadrupole moment (field-independent basis, Debye-Ang):
   XX=            -11.1256   YY=            -11.1256   ZZ=            -12.5053
   XY=              0.0000   XZ=             -0.0000   YZ=              0.0000
 Traceless Quadrupole moment (field-independent basis, Debye-Ang):
   XX=              0.4599   YY=              0.4599   ZZ=             -0.9198
   XY=              0.0000   XZ=             -0.0000   YZ=              0.0000
 Octapole moment (field-independent basis, Debye-Ang**2):
  XXX=             -0.0000  YYY=              0.0000  ZZZ=            -22.9754  XYY=              0.0000
  XXY=              0.0000  XXZ=             -6.9996  XZZ=              0.0000  YZZ=              0.0000
  YYZ=             -6.9996  XYZ=             -0.0000
 Hexadecapole moment (field-independent basis, Debye-Ang**3):
 XXXX=            -11.2429 YYYY=            -11.2429 ZZZZ=            -63.7152 XXXY=              0.0000
 XXXZ=             -0.0000 YYYX=              0.0000 YYYZ=              0.0000 ZZZX=             -0.0000
 ZZZY=              0.0000 XXYY=             -3.7476 XXZZ=            -11.7700 YYZZ=            -11.7700
 XXYZ=              0.0000 YYXZ=             -0.0000 ZZXY=              0.0000
 N-N= 1.857957320803D+01 E-N=-2.533757736155D+02  KE= 9.203519562054D+01
                          Isotropic Fermi Contact Couplings
        Atom                 a.u.       MegaHertz       Gauss      10(-4) cm-1
     1  C(13)              0.74680     839.54135     299.56923     280.04085
     2  N(14)             -0.05918     -19.12111      -6.82289      -6.37812
 --------------------------------------------------------
       Center         ----  Spin Dipole Couplings  ----
                      3XX-RR        3YY-RR        3ZZ-RR
 --------------------------------------------------------
     1   Atom       -0.387455     -0.387455      0.774909
     2   Atom       -0.493477     -0.493477      0.986954
 --------------------------------------------------------
                        XY            XZ            YZ
 --------------------------------------------------------
     1   Atom       -0.000000      0.000000      0.000000
     2   Atom        0.000000     -0.000000     -0.000000
 --------------------------------------------------------


 ---------------------------------------------------------------------------------
              Anisotropic Spin Dipole Couplings in Principal Axis System
 ---------------------------------------------------------------------------------

       Atom             a.u.   MegaHertz   Gauss  10(-4) cm-1        Axes

              Baa    -0.3875   -51.993   -18.552   -17.343  0.9997  0.0230 -0.0000
     1 C(13)  Bbb    -0.3875   -51.993   -18.552   -17.343 -0.0230  0.9997 -0.0000
              Bcc     0.7749   103.985    37.105    34.686  0.0000  0.0000  1.0000
 
              Baa    -0.4935   -19.032    -6.791    -6.348 -0.1497  0.9887 -0.0000
     2 N(14)  Bbb    -0.4935   -19.032    -6.791    -6.348  0.9887  0.1497  0.0000
              Bcc     0.9870    38.065    13.582    12.697 -0.0000 -0.0000  1.0000
 

 ---------------------------------------------------------------------------------

 No NMR shielding tensors so no spin-rotation constants.
 Leave Link  601 at Fri Oct  2 14:52:12 2020, MaxMem=   268435456 cpu:               1.8 elap:               0.3
 (Enter /applis/site/cecic/gaussian16/B.01/nehalem/g16/l701.exe)
 ... and contract with generalized density number  0.
 Compute integral first derivatives.
 Leave Link  701 at Fri Oct  2 14:52:13 2020, MaxMem=   268435456 cpu:               1.2 elap:               0.2
 (Enter /applis/site/cecic/gaussian16/B.01/nehalem/g16/l702.exe)
 L702 exits ... SP integral derivatives will be done elsewhere.
 Leave Link  702 at Fri Oct  2 14:52:13 2020, MaxMem=   268435456 cpu:               0.4 elap:               0.1
 (Enter /applis/site/cecic/gaussian16/B.01/nehalem/g16/l703.exe)
 Integral derivatives from FoFJK, PRISM(SPDF).
 Compute integral first derivatives, UseDBF=F ICtDFT=           0.
 Calling FoFJK, ICntrl=      2127 FMM=F ISym2X=0 I1Cent= 0 IOpClX= 1 NMat=1 NMatS=1 NMatT=0.
 FoFJK:  IHMeth= 1 ICntrl=    2127 DoSepK=F KAlg= 0 I1Cent=           0 FoldK=F
 IRaf=         0 NMat=       1 IRICut=       1 DoRegI=T DoRafI=F ISym2E= 0 IDoP0=0 IntGTp=1.
 FoFCou: FMM=F IPFlag=           0 FMFlag=      100000 FMFlg1=         800
         NFxFlg=           0 DoJE=F BraDBF=F KetDBF=F FulRan=T
         wScrn=  0.000000 ICntrl=      2127 IOpCl=  1 I1Cent=           0 NGrid=           0
         NMat0=    1 NMatS0=      1 NMatT0=    0 NMatD0=    1 NMtDS0=    0 NMtDT0=    0
 Symmetry not used in FoFCou.
 Leave Link  703 at Fri Oct  2 14:52:14 2020, MaxMem=   268435456 cpu:               4.4 elap:               0.6
 (Enter /applis/site/cecic/gaussian16/B.01/nehalem/g16/l716.exe)
 Dipole        = 6.66123605D-16 2.07289743D-15-6.93445418D-01
 -------------------------------------------------------------------
 Center     Atomic                   Forces (Hartrees/Bohr)
 Number     Number              X              Y              Z
 -------------------------------------------------------------------
      1        6          -0.000000000    0.000000000    0.086513335
      2        7           0.000000000   -0.000000000   -0.086513335
 -------------------------------------------------------------------
 Cartesian Forces:  Max     0.086513335 RMS     0.049948497
 Leave Link  716 at Fri Oct  2 14:52:14 2020, MaxMem=   268435456 cpu:               0.5 elap:               0.1
 (Enter /applis/site/cecic/gaussian16/B.01/nehalem/g16/l103.exe)

 GradGradGradGradGradGradGradGradGradGradGradGradGradGradGradGradGradGrad
 Berny optimization.
 FormGI is forming the generalized inverse of G from B-inverse, IUseBI=4.
 Internal  Forces:  Max     0.086513335 RMS     0.086513335
 Search for a local minimum.
 Step number   1 out of a maximum of  100
 All quantities printed in internal units (Hartrees-Bohrs-Radians)
 RMS Force = .86513D-01 SwitMx=.10000D-02 MixMth= 1
 Mixed Optimization -- RFO/linear search
 Second derivative matrix not updated -- first step.
 The second derivative matrix:
                          R1
           R1           1.06740
 ITU=  0
     Eigenvalues ---    1.06740
 RFO step:  Lambda=-6.96645551D-03 EMin= 1.06740445D+00
 Linear search not attempted -- first point.
 Iteration  1 RMS(Cart)=  0.05693952 RMS(Int)=  0.00000000
 Iteration  2 RMS(Cart)=  0.00000000 RMS(Int)=  0.00000000
 ITry= 1 IFail=0 DXMaxC= 4.03D-02 DCOld= 1.00D+10 DXMaxT= 3.00D-01 DXLimC= 3.00D+00 Rises=F
 Variable       Old X    -DE/DX   Delta X   Delta X   Delta X     New X
                                 (Linear)    (Quad)   (Total)
    R1        2.26055  -0.08651   0.00000  -0.08052  -0.08052   2.18002
         Item               Value     Threshold  Converged?
 Maximum Force            0.086513     0.000450     NO 
 RMS     Force            0.086513     0.000300     NO 
 Maximum Displacement     0.040262     0.001800     NO 
 RMS     Displacement     0.056940     0.001200     NO 
 Predicted change in Energy=-3.505814D-03
 Lowest energy point so far.  Saving SCF results.
 GradGradGradGradGradGradGradGradGradGradGradGradGradGradGradGradGradGrad

 Leave Link  103 at Fri Oct  2 14:52:14 2020, MaxMem=   268435456 cpu:               0.7 elap:               0.1
 (Enter /applis/site/cecic/gaussian16/B.01/nehalem/g16/l202.exe)
                          Input orientation:                          
 ---------------------------------------------------------------------
 Center     Atomic      Atomic             Coordinates (Angstroms)
 Number     Number       Type             X           Y           Z
 ---------------------------------------------------------------------
      1          6           0        0.000000    0.000000    0.021306
      2          7           0        0.000000    0.000000    1.174924
 ---------------------------------------------------------------------
 Symmetry turned off by external request.
 Stoichiometry    CN(2)
 Framework group  C*V[C*(CN)]
 Deg. of freedom     1
 Full point group                 C*V     NOp   4
 Rotational constants (GHZ):           0.0000000          58.7642325          58.7642325
 Leave Link  202 at Fri Oct  2 14:52:14 2020, MaxMem=   268435456 cpu:               0.1 elap:               0.0
 (Enter /applis/site/cecic/gaussian16/B.01/nehalem/g16/l301.exe)
 Standard basis: CC-pVTZ (5D, 7F)
 Ernie: Thresh=  0.10000D-02 Tol=  0.10000D-05 Strict=F.
 Ernie:  6 primitive shells out of 52 were deleted.
    60 basis functions,   104 primitive gaussians,    70 cartesian basis functions
     7 alpha electrons        6 beta electrons
       nuclear repulsion energy        19.2658567500 Hartrees.
 IExCor= 4336 DFT=T Ex+Corr=M062X ExCW=0 ScaHFX=  0.540000
 ScaDFX=  1.000000  1.000000  1.000000  1.000000 ScalE2=  1.000000  1.000000
 IRadAn=      5 IRanWt=     -1 IRanGd=            0 ICorTp=0 IEmpDi=  4
 NAtoms=    2 NActive=    2 NUniq=    2 SFac= 1.00D+00 NAtFMM=   60 NAOKFM=F Big=F
 Integral buffers will be    131072 words long.
 Raffenetti 2 integral format.
 Two-electron integral symmetry is turned off.
 Leave Link  301 at Fri Oct  2 14:52:14 2020, MaxMem=   268435456 cpu:               0.4 elap:               0.1
 (Enter /applis/site/cecic/gaussian16/B.01/nehalem/g16/l302.exe)
 NPDir=0 NMtPBC=     1 NCelOv=     1 NCel=       1 NClECP=     1 NCelD=      1
         NCelK=      1 NCelE2=     1 NClLst=     1 CellRange=     0.0.
 One-electron integrals computed using PRISM.
 NBasis=    60 RedAO= T EigKep=  1.93D-03  NBF=    60
 NBsUse=    60 1.00D-06 EigRej= -1.00D+00 NBFU=    60
 Precomputing XC quadrature grid using
 IXCGrd= 4 IRadAn=           5 IRanWt=          -1 IRanGd=           0 AccXCQ= 0.00D+00.
 Generated NRdTot=       0 NPtTot=           0 NUsed=           0 NTot=          32
 NSgBfM=    70    70    70    70    70 MxSgAt=     2 MxSgA2=     2.
 Leave Link  302 at Fri Oct  2 14:52:14 2020, MaxMem=   268435456 cpu:               1.0 elap:               0.2
 (Enter /applis/site/cecic/gaussian16/B.01/nehalem/g16/l303.exe)
 DipDrv:  MaxL=1.
 Leave Link  303 at Fri Oct  2 14:52:14 2020, MaxMem=   268435456 cpu:               0.3 elap:               0.1
 (Enter /applis/site/cecic/gaussian16/B.01/nehalem/g16/l401.exe)
 Initial guess from the checkpoint file:  "input.chk"
 B after Tr=     0.000000    0.000000   -0.003097
         Rot=    1.000000    0.000000    0.000000    0.000000 Ang=   0.00 deg.
 Guess basis will be translated and rotated to current coordinates.
 JPrj=2 DoOrth=T DoCkMO=T.
 Initial guess <Sx>= 0.0000 <Sy>= 0.0000 <Sz>= 0.5000 <S**2>= 0.7668 S= 0.5083
 Generating alternative initial guess.
 ExpMin= 1.21D-01 ExpMax= 1.14D+04 ExpMxC= 3.89D+02 IAcc=3 IRadAn=         5 AccDes= 0.00D+00
 Harris functional with IExCor= 1009 and IRadAn=       5 diagonalized for initial guess.
 HarFok:  IExCor= 1009 AccDes= 0.00D+00 IRadAn=         5 IDoV= 1 UseB2=F ITyADJ=14
 ICtDFT=  3500011 ScaDFX=  1.000000  1.000000  1.000000  1.000000
 FoFCou: FMM=F IPFlag=           0 FMFlag=      100000 FMFlg1=           0
         NFxFlg=           0 DoJE=T BraDBF=F KetDBF=T FulRan=T
         wScrn=  0.000000 ICntrl=       500 IOpCl=  0 I1Cent=   200000004 NGrid=           0
         NMat0=    1 NMatS0=      1 NMatT0=    0 NMatD0=    1 NMtDS0=    0 NMtDT0=    0
 Symmetry not used in FoFCou.
 Harris En= -92.6286835488919    
 Leave Link  401 at Fri Oct  2 14:52:15 2020, MaxMem=   268435456 cpu:               2.1 elap:               0.3
 (Enter /applis/site/cecic/gaussian16/B.01/nehalem/g16/l502.exe)
 Keep R1 and R2 ints in memory in canonical form, NReq=10503886.
 FoFCou: FMM=F IPFlag=           0 FMFlag=           0 FMFlg1=           0
         NFxFlg=           0 DoJE=F BraDBF=F KetDBF=F FulRan=T
         wScrn=  0.000000 ICntrl=       600 IOpCl=  0 I1Cent=           0 NGrid=           0
         NMat0=    1 NMatS0=   1830 NMatT0=    0 NMatD0=    1 NMtDS0=    0 NMtDT0=    0
 Symmetry not used in FoFCou.
 Two-electron integral symmetry not used.
 UHF open shell SCF:
 Using DIIS extrapolation, IDIIS=  1040.
 NGot=   268435456 LenX=   265073800 LenY=   265068459
 Requested convergence on RMS density matrix=1.00D-08 within 128 cycles.
 Requested convergence on MAX density matrix=1.00D-06.
 Requested convergence on             energy=1.00D-06.
 No special actions if energy rises.
 Integral accuracy reduced to 1.0D-05 until final iterations.

 Cycle   1  Pass 0  IDiag  1:
 E= -92.7083541431006    
 DIIS: error= 5.35D-03 at cycle   1 NSaved=   1.
 NSaved= 1 IEnMin= 1 EnMin= -92.7083541431006     IErMin= 1 ErrMin= 5.35D-03
 ErrMax= 5.35D-03  0.00D+00 EMaxC= 1.00D-01 BMatC= 5.37D-03 BMatP= 5.37D-03
 IDIUse=3 WtCom= 9.47D-01 WtEn= 5.35D-02
 Coeff-Com:  0.100D+01
 Coeff-En:   0.100D+01
 Coeff:      0.100D+01
 Gap=     2.707 Goal=   None    Shift=    0.000
 DSYEVD-2 returned Info=         121 IAlg= 4 N=    60 NDim=    60 NE2=     4417806 trying  DSYEV.
 Gap=     2.281 Goal=   None    Shift=    0.000
 GapD=    2.281 DampG=2.000 DampE=1.000 DampFc=2.0000 IDamp=-1.
 RMSDP=5.49D-04 MaxDP=8.65D-03              OVMax= 2.01D-02

 Cycle   2  Pass 0  IDiag  1:
 E= -92.7092808780200     Delta-E=       -0.000926734919 Rises=F Damp=F
 DIIS: error= 3.35D-03 at cycle   2 NSaved=   2.
 NSaved= 2 IEnMin= 2 EnMin= -92.7092808780200     IErMin= 2 ErrMin= 3.35D-03
 ErrMax= 3.35D-03  0.00D+00 EMaxC= 1.00D-01 BMatC= 1.84D-03 BMatP= 5.37D-03
 IDIUse=3 WtCom= 9.67D-01 WtEn= 3.35D-02
 Coeff-Com:  0.336D+00 0.664D+00
 Coeff-En:   0.000D+00 0.100D+01
 Coeff:      0.325D+00 0.675D+00
 Gap=     0.504 Goal=   None    Shift=    0.000
 Gap=     0.261 Goal=   None    Shift=    0.000
 RMSDP=2.41D-04 MaxDP=3.43D-03 DE=-9.27D-04 OVMax= 9.56D-03

 Cycle   3  Pass 0  IDiag  1:
 E= -92.7094619267865     Delta-E=       -0.000181048767 Rises=F Damp=F
 DIIS: error= 3.14D-03 at cycle   3 NSaved=   3.
 NSaved= 3 IEnMin= 3 EnMin= -92.7094619267865     IErMin= 3 ErrMin= 3.14D-03
 ErrMax= 3.14D-03  0.00D+00 EMaxC= 1.00D-01 BMatC= 8.45D-04 BMatP= 1.84D-03
 IDIUse=3 WtCom= 9.69D-01 WtEn= 3.14D-02
 Coeff-Com:  0.109D+00 0.401D+00 0.490D+00
 Coeff-En:   0.000D+00 0.317D+00 0.683D+00
 Coeff:      0.106D+00 0.398D+00 0.496D+00
 Gap=     0.505 Goal=   None    Shift=    0.000
 Gap=     0.264 Goal=   None    Shift=    0.000
 RMSDP=1.40D-04 MaxDP=2.66D-03 DE=-1.81D-04 OVMax= 9.72D-03

 Cycle   4  Pass 0  IDiag  1:
 E= -92.7096356959227     Delta-E=       -0.000173769136 Rises=F Damp=F
 DIIS: error= 1.19D-03 at cycle   4 NSaved=   4.
 NSaved= 4 IEnMin= 4 EnMin= -92.7096356959227     IErMin= 4 ErrMin= 1.19D-03
 ErrMax= 1.19D-03  0.00D+00 EMaxC= 1.00D-01 BMatC= 1.16D-04 BMatP= 8.45D-04
 IDIUse=3 WtCom= 9.88D-01 WtEn= 1.19D-02
 Coeff-Com: -0.296D-01-0.111D-01 0.268D+00 0.773D+00
 Coeff-En:   0.000D+00 0.000D+00 0.769D-01 0.923D+00
 Coeff:     -0.292D-01-0.110D-01 0.266D+00 0.774D+00
 Gap=     0.505 Goal=   None    Shift=    0.000
 Gap=     0.263 Goal=   None    Shift=    0.000
 RMSDP=6.18D-05 MaxDP=8.34D-04 DE=-1.74D-04 OVMax= 3.39D-03

 Cycle   5  Pass 0  IDiag  1:
 E= -92.7096747611494     Delta-E=       -0.000039065227 Rises=F Damp=F
 DIIS: error= 4.50D-04 at cycle   5 NSaved=   5.
 NSaved= 5 IEnMin= 5 EnMin= -92.7096747611494     IErMin= 5 ErrMin= 4.50D-04
 ErrMax= 4.50D-04  0.00D+00 EMaxC= 1.00D-01 BMatC= 5.68D-06 BMatP= 1.16D-04
 IDIUse=3 WtCom= 9.96D-01 WtEn= 4.50D-03
 Coeff-Com:  0.109D-01-0.500D-01-0.170D+00-0.405D+00 0.161D+01
 Coeff-En:   0.000D+00 0.000D+00 0.000D+00 0.000D+00 0.100D+01
 Coeff:      0.108D-01-0.497D-01-0.170D+00-0.403D+00 0.161D+01
 Gap=     0.504 Goal=   None    Shift=    0.000
 Gap=     0.263 Goal=   None    Shift=    0.000
 RMSDP=5.97D-05 MaxDP=1.30D-03 DE=-3.91D-05 OVMax= 5.83D-03

 Cycle   6  Pass 0  IDiag  1:
 E= -92.7096861984609     Delta-E=       -0.000011437311 Rises=F Damp=F
 DIIS: error= 1.47D-04 at cycle   6 NSaved=   6.
 NSaved= 6 IEnMin= 6 EnMin= -92.7096861984609     IErMin= 6 ErrMin= 1.47D-04
 ErrMax= 1.47D-04  0.00D+00 EMaxC= 1.00D-01 BMatC= 1.13D-06 BMatP= 5.68D-06
 IDIUse=3 WtCom= 9.99D-01 WtEn= 1.47D-03
 Coeff-Com:  0.120D-02 0.186D-01 0.291D-01-0.235D-01-0.603D+00 0.158D+01
 Coeff-En:   0.000D+00 0.000D+00 0.000D+00 0.000D+00 0.000D+00 0.100D+01
 Coeff:      0.120D-02 0.186D-01 0.291D-01-0.234D-01-0.602D+00 0.158D+01
 Gap=     0.504 Goal=   None    Shift=    0.000
 Gap=     0.263 Goal=   None    Shift=    0.000
 RMSDP=3.20D-05 MaxDP=6.34D-04 DE=-1.14D-05 OVMax= 3.09D-03

 Cycle   7  Pass 0  IDiag  1:
 E= -92.7096884353937     Delta-E=       -0.000002236933 Rises=F Damp=F
 DIIS: error= 4.78D-05 at cycle   7 NSaved=   7.
 NSaved= 7 IEnMin= 7 EnMin= -92.7096884353937     IErMin= 7 ErrMin= 4.78D-05
 ErrMax= 4.78D-05  0.00D+00 EMaxC= 1.00D-01 BMatC= 1.20D-07 BMatP= 1.13D-06
 IDIUse=1 WtCom= 1.00D+00 WtEn= 0.00D+00
 Coeff-Com: -0.158D-02-0.619D-02 0.180D-02 0.487D-01 0.200D+00-0.831D+00
 Coeff-Com:  0.159D+01
 Coeff:     -0.158D-02-0.619D-02 0.180D-02 0.487D-01 0.200D+00-0.831D+00
 Coeff:      0.159D+01
 Gap=     0.504 Goal=   None    Shift=    0.000
 Gap=     0.263 Goal=   None    Shift=    0.000
 RMSDP=7.11D-06 MaxDP=1.06D-04 DE=-2.24D-06 OVMax= 3.93D-04

 Initial convergence to 1.0D-05 achieved.  Increase integral accuracy.
 Cycle   8  Pass 1  IDiag  1:
 E= -92.7096936444663     Delta-E=       -0.000005209073 Rises=F Damp=F
 DIIS: error= 2.82D-05 at cycle   1 NSaved=   1.
 NSaved= 1 IEnMin= 1 EnMin= -92.7096936444663     IErMin= 1 ErrMin= 2.82D-05
 ErrMax= 2.82D-05  0.00D+00 EMaxC= 1.00D-01 BMatC= 8.38D-08 BMatP= 8.38D-08
 IDIUse=1 WtCom= 1.00D+00 WtEn= 0.00D+00
 Coeff-Com:  0.100D+01
 Coeff:      0.100D+01
 Gap=     0.504 Goal=   None    Shift=    0.000
 Gap=     0.263 Goal=   None    Shift=    0.000
 RMSDP=7.11D-06 MaxDP=1.06D-04 DE=-5.21D-06 OVMax= 1.24D-04

 Cycle   9  Pass 1  IDiag  1:
 E= -92.7096936946693     Delta-E=       -0.000000050203 Rises=F Damp=F
 DIIS: error= 2.02D-05 at cycle   2 NSaved=   2.
 NSaved= 2 IEnMin= 2 EnMin= -92.7096936946693     IErMin= 2 ErrMin= 2.02D-05
 ErrMax= 2.02D-05  0.00D+00 EMaxC= 1.00D-01 BMatC= 1.90D-08 BMatP= 8.38D-08
 IDIUse=1 WtCom= 1.00D+00 WtEn= 0.00D+00
 Coeff-Com: -0.346D-01 0.103D+01
 Coeff:     -0.346D-01 0.103D+01
 Gap=     0.504 Goal=   None    Shift=    0.000
 Gap=     0.263 Goal=   None    Shift=    0.000
 RMSDP=1.63D-06 MaxDP=3.08D-05 DE=-5.02D-08 OVMax= 9.32D-05

 Cycle  10  Pass 1  IDiag  1:
 E= -92.7096937165492     Delta-E=       -0.000000021880 Rises=F Damp=F
 DIIS: error= 2.46D-05 at cycle   3 NSaved=   3.
 NSaved= 3 IEnMin= 3 EnMin= -92.7096937165492     IErMin= 2 ErrMin= 2.02D-05
 ErrMax= 2.46D-05  0.00D+00 EMaxC= 1.00D-01 BMatC= 2.19D-08 BMatP= 1.90D-08
 IDIUse=1 WtCom= 1.00D+00 WtEn= 0.00D+00
 Coeff-Com: -0.145D+00 0.630D+00 0.515D+00
 Coeff:     -0.145D+00 0.630D+00 0.515D+00
 Gap=     0.504 Goal=   None    Shift=    0.000
 Gap=     0.263 Goal=   None    Shift=    0.000
 RMSDP=8.80D-07 MaxDP=1.68D-05 DE=-2.19D-08 OVMax= 6.23D-05

 Cycle  11  Pass 1  IDiag  1:
 E= -92.7096937272951     Delta-E=       -0.000000010746 Rises=F Damp=F
 DIIS: error= 1.19D-05 at cycle   4 NSaved=   4.
 NSaved= 4 IEnMin= 4 EnMin= -92.7096937272951     IErMin= 4 ErrMin= 1.19D-05
 ErrMax= 1.19D-05  0.00D+00 EMaxC= 1.00D-01 BMatC= 6.64D-09 BMatP= 1.90D-08
 IDIUse=1 WtCom= 1.00D+00 WtEn= 0.00D+00
 Coeff-Com: -0.113D-01-0.112D+01 0.170D+00 0.196D+01
 Coeff:     -0.113D-01-0.112D+01 0.170D+00 0.196D+01
 Gap=     0.504 Goal=   None    Shift=    0.000
 Gap=     0.263 Goal=   None    Shift=    0.000
 RMSDP=2.63D-06 MaxDP=3.99D-05 DE=-1.07D-08 OVMax= 1.46D-04

 Cycle  12  Pass 1  IDiag  1:
 E= -92.7096937429720     Delta-E=       -0.000000015677 Rises=F Damp=F
 DIIS: error= 2.03D-06 at cycle   5 NSaved=   5.
 NSaved= 5 IEnMin= 5 EnMin= -92.7096937429720     IErMin= 5 ErrMin= 2.03D-06
 ErrMax= 2.03D-06  0.00D+00 EMaxC= 1.00D-01 BMatC= 2.58D-10 BMatP= 6.64D-09
 IDIUse=1 WtCom= 1.00D+00 WtEn= 0.00D+00
 Coeff-Com:  0.141D-01-0.955D-01-0.806D-01 0.112D+00 0.105D+01
 Coeff:      0.141D-01-0.955D-01-0.806D-01 0.112D+00 0.105D+01
 Gap=     0.504 Goal=   None    Shift=    0.000
 Gap=     0.263 Goal=   None    Shift=    0.000
 RMSDP=4.07D-07 MaxDP=8.10D-06 DE=-1.57D-08 OVMax= 2.77D-05

 Cycle  13  Pass 1  IDiag  1:
 E= -92.7096937433606     Delta-E=       -0.000000000389 Rises=F Damp=F
 DIIS: error= 9.03D-07 at cycle   6 NSaved=   6.
 NSaved= 6 IEnMin= 6 EnMin= -92.7096937433606     IErMin= 6 ErrMin= 9.03D-07
 ErrMax= 9.03D-07  0.00D+00 EMaxC= 1.00D-01 BMatC= 3.06D-11 BMatP= 2.58D-10
 IDIUse=1 WtCom= 1.00D+00 WtEn= 0.00D+00
 Coeff-Com: -0.258D-02 0.793D-01-0.768D-02-0.105D+00-0.231D+00 0.127D+01
 Coeff:     -0.258D-02 0.793D-01-0.768D-02-0.105D+00-0.231D+00 0.127D+01
 Gap=     0.504 Goal=   None    Shift=    0.000
 Gap=     0.263 Goal=   None    Shift=    0.000
 RMSDP=1.08D-07 MaxDP=2.04D-06 DE=-3.89D-10 OVMax= 1.04D-05

 Cycle  14  Pass 1  IDiag  1:
 E= -92.7096937434077     Delta-E=       -0.000000000047 Rises=F Damp=F
 DIIS: error= 3.80D-07 at cycle   7 NSaved=   7.
 NSaved= 7 IEnMin= 7 EnMin= -92.7096937434077     IErMin= 7 ErrMin= 3.80D-07
 ErrMax= 3.80D-07  0.00D+00 EMaxC= 1.00D-01 BMatC= 8.90D-12 BMatP= 3.06D-11
 IDIUse=1 WtCom= 1.00D+00 WtEn= 0.00D+00
 Coeff-Com: -0.476D-02 0.962D-02 0.170D-01 0.778D-02-0.317D+00 0.154D+00
 Coeff-Com:  0.113D+01
 Coeff:     -0.476D-02 0.962D-02 0.170D-01 0.778D-02-0.317D+00 0.154D+00
 Coeff:      0.113D+01
 Gap=     0.504 Goal=   None    Shift=    0.000
 Gap=     0.263 Goal=   None    Shift=    0.000
 RMSDP=6.42D-08 MaxDP=1.32D-06 DE=-4.70D-11 OVMax= 6.22D-06

 Cycle  15  Pass 1  IDiag  1:
 E= -92.7096937434194     Delta-E=       -0.000000000012 Rises=F Damp=F
 DIIS: error= 8.61D-08 at cycle   8 NSaved=   8.
 NSaved= 8 IEnMin= 8 EnMin= -92.7096937434194     IErMin= 8 ErrMin= 8.61D-08
 ErrMax= 8.61D-08  0.00D+00 EMaxC= 1.00D-01 BMatC= 7.98D-13 BMatP= 8.90D-12
 IDIUse=1 WtCom= 1.00D+00 WtEn= 0.00D+00
 Coeff-Com:  0.308D-03-0.153D-01-0.149D-02 0.250D-01 0.232D-01-0.158D+00
 Coeff-Com: -0.126D+00 0.125D+01
 Coeff:      0.308D-03-0.153D-01-0.149D-02 0.250D-01 0.232D-01-0.158D+00
 Coeff:     -0.126D+00 0.125D+01
 Gap=     0.504 Goal=   None    Shift=    0.000
 Gap=     0.263 Goal=   None    Shift=    0.000
 RMSDP=2.45D-08 MaxDP=4.96D-07 DE=-1.17D-11 OVMax= 2.28D-06

 Cycle  16  Pass 1  IDiag  1:
 E= -92.7096937434201     Delta-E=       -0.000000000001 Rises=F Damp=F
 DIIS: error= 1.45D-08 at cycle   9 NSaved=   9.
 NSaved= 9 IEnMin= 9 EnMin= -92.7096937434201     IErMin= 9 ErrMin= 1.45D-08
 ErrMax= 1.45D-08  0.00D+00 EMaxC= 1.00D-01 BMatC= 1.68D-14 BMatP= 7.98D-13
 IDIUse=1 WtCom= 1.00D+00 WtEn= 0.00D+00
 Coeff-Com:  0.141D-03-0.145D-03-0.904D-05-0.136D-02 0.111D-01 0.552D-02
 Coeff-Com: -0.366D-01-0.272D-01 0.105D+01
 Coeff:      0.141D-03-0.145D-03-0.904D-05-0.136D-02 0.111D-01 0.552D-02
 Coeff:     -0.366D-01-0.272D-01 0.105D+01
 Gap=     0.504 Goal=   None    Shift=    0.000
 Gap=     0.263 Goal=   None    Shift=    0.000
 RMSDP=1.03D-09 MaxDP=1.96D-08 DE=-7.11D-13 OVMax= 3.33D-08

 SCF Done:  E(UM062X) =  -92.7096937434     A.U. after   16 cycles
            NFock= 16  Conv=0.10D-08     -V/T= 2.0051
 <Sx>= 0.0000 <Sy>= 0.0000 <Sz>= 0.5000 <S**2>= 0.7652 S= 0.5076
 <L.S>= 0.000000000000E+00
 KE= 9.223571865162D+01 PE=-2.549356786215D+02 EE= 5.072440947648D+01
 Annihilation of the first spin contaminant:
 S**2 before annihilation     0.7652,   after     0.7502
 Leave Link  502 at Fri Oct  2 14:52:17 2020, MaxMem=   268435456 cpu:              18.8 elap:               2.6
 (Enter /applis/site/cecic/gaussian16/B.01/nehalem/g16/l701.exe)
 ... and contract with generalized density number  0.
 Compute integral first derivatives.
 Leave Link  701 at Fri Oct  2 14:52:18 2020, MaxMem=   268435456 cpu:               1.2 elap:               0.2
 (Enter /applis/site/cecic/gaussian16/B.01/nehalem/g16/l702.exe)
 L702 exits ... SP integral derivatives will be done elsewhere.
 Leave Link  702 at Fri Oct  2 14:52:18 2020, MaxMem=   268435456 cpu:               0.6 elap:               0.1
 (Enter /applis/site/cecic/gaussian16/B.01/nehalem/g16/l703.exe)
 Integral derivatives from FoFJK, PRISM(SPDF).
 Compute integral first derivatives, UseDBF=F ICtDFT=           0.
 Calling FoFJK, ICntrl=      2127 FMM=F ISym2X=0 I1Cent= 0 IOpClX= 1 NMat=1 NMatS=1 NMatT=0.
 FoFJK:  IHMeth= 1 ICntrl=    2127 DoSepK=F KAlg= 0 I1Cent=           0 FoldK=F
 IRaf=         0 NMat=       1 IRICut=       1 DoRegI=T DoRafI=F ISym2E= 0 IDoP0=0 IntGTp=1.
 FoFCou: FMM=F IPFlag=           0 FMFlag=      100000 FMFlg1=         800
         NFxFlg=           0 DoJE=F BraDBF=F KetDBF=F FulRan=T
         wScrn=  0.000000 ICntrl=      2127 IOpCl=  1 I1Cent=           0 NGrid=           0
         NMat0=    1 NMatS0=      1 NMatT0=    0 NMatD0=    1 NMtDS0=    0 NMtDT0=    0
 Symmetry not used in FoFCou.
 Leave Link  703 at Fri Oct  2 14:52:18 2020, MaxMem=   268435456 cpu:               4.2 elap:               0.6
 (Enter /applis/site/cecic/gaussian16/B.01/nehalem/g16/l716.exe)
 Dipole        = 2.10045163D-15-1.80129282D-16-7.21092644D-01
 -------------------------------------------------------------------
 Center     Atomic                   Forces (Hartrees/Bohr)
 Number     Number              X              Y              Z
 -------------------------------------------------------------------
      1        6           0.000000000    0.000000000    0.001191021
      2        7          -0.000000000   -0.000000000   -0.001191021
 -------------------------------------------------------------------
 Cartesian Forces:  Max     0.001191021 RMS     0.000687636
 Leave Link  716 at Fri Oct  2 14:52:19 2020, MaxMem=   268435456 cpu:               0.7 elap:               0.1
 (Enter /applis/site/cecic/gaussian16/B.01/nehalem/g16/l103.exe)

 GradGradGradGradGradGradGradGradGradGradGradGradGradGradGradGradGradGrad
 Berny optimization.
 Using GEDIIS/GDIIS optimizer.
 Red2BG is reusing G-inverse.
 Internal  Forces:  Max     0.001191021 RMS     0.001191021
 Search for a local minimum.
 Step number   2 out of a maximum of  100
 All quantities printed in internal units (Hartrees-Bohrs-Radians)
 RMS Force = .11910D-02 SwitMx=.10000D-02 MixMth= 1
 Mixed Optimization -- RFO/linear search
 Update second derivatives using D2CorX and points    1    2
 DE= -3.70D-03 DEPred=-3.51D-03 R= 1.06D+00
 TightC=F SS=  1.41D+00  RLast= 8.05D-02 DXNew= 5.0454D-01 2.4157D-01
 Trust test= 1.06D+00 RLast= 8.05D-02 DXMaxT set to 3.00D-01
 The second derivative matrix:
                          R1
           R1           1.05958
 ITU=  1  0
 Use linear search instead of GDIIS.
     Eigenvalues ---    1.05958
 RFO step:  Lambda= 0.00000000D+00 EMin= 1.05958015D+00
 Quartic linear search produced a step of  0.01207.
 Iteration  1 RMS(Cart)=  0.00068717 RMS(Int)=  0.00000000
 Iteration  2 RMS(Cart)=  0.00000000 RMS(Int)=  0.00000000
 ITry= 1 IFail=0 DXMaxC= 4.86D-04 DCOld= 1.00D+10 DXMaxT= 3.00D-01 DXLimC= 3.00D+00 Rises=F
 Variable       Old X    -DE/DX   Delta X   Delta X   Delta X     New X
                                 (Linear)    (Quad)   (Total)
    R1        2.18002  -0.00119  -0.00097   0.00000  -0.00097   2.17905
         Item               Value     Threshold  Converged?
 Maximum Force            0.001191     0.000450     NO 
 RMS     Force            0.001191     0.000300     NO 
 Maximum Displacement     0.000486     0.001800     YES
 RMS     Displacement     0.000687     0.001200     YES
 Predicted change in Energy=-6.571042D-07
 Lowest energy point so far.  Saving SCF results.
 GradGradGradGradGradGradGradGradGradGradGradGradGradGradGradGradGradGrad

 Leave Link  103 at Fri Oct  2 14:52:19 2020, MaxMem=   268435456 cpu:               3.5 elap:               0.5
 (Enter /applis/site/cecic/gaussian16/B.01/nehalem/g16/l202.exe)
                          Input orientation:                          
 ---------------------------------------------------------------------
 Center     Atomic      Atomic             Coordinates (Angstroms)
 Number     Number       Type             X           Y           Z
 ---------------------------------------------------------------------
      1          6           0        0.000000    0.000000    0.021563
      2          7           0        0.000000    0.000000    1.174667
 ---------------------------------------------------------------------
 Symmetry turned off by external request.
 Stoichiometry    CN(2)
 Framework group  C*V[C*(CN)]
 Deg. of freedom     1
 Full point group                 C*V     NOp   4
 Rotational constants (GHZ):           0.0000000          58.8166593          58.8166593
 Leave Link  202 at Fri Oct  2 14:52:19 2020, MaxMem=   268435456 cpu:               0.3 elap:               0.1
 (Enter /applis/site/cecic/gaussian16/B.01/nehalem/g16/l301.exe)
 Standard basis: CC-pVTZ (5D, 7F)
 Ernie: Thresh=  0.10000D-02 Tol=  0.10000D-05 Strict=F.
 Ernie:  6 primitive shells out of 52 were deleted.
    60 basis functions,   104 primitive gaussians,    70 cartesian basis functions
     7 alpha electrons        6 beta electrons
       nuclear repulsion energy        19.2744489028 Hartrees.
 IExCor= 4336 DFT=T Ex+Corr=M062X ExCW=0 ScaHFX=  0.540000
 ScaDFX=  1.000000  1.000000  1.000000  1.000000 ScalE2=  1.000000  1.000000
 IRadAn=      5 IRanWt=     -1 IRanGd=            0 ICorTp=0 IEmpDi=  4
 NAtoms=    2 NActive=    2 NUniq=    2 SFac= 1.00D+00 NAtFMM=   60 NAOKFM=F Big=F
 Integral buffers will be    131072 words long.
 Raffenetti 2 integral format.
 Two-electron integral symmetry is turned off.
 Leave Link  301 at Fri Oct  2 14:52:19 2020, MaxMem=   268435456 cpu:               0.7 elap:               0.1
 (Enter /applis/site/cecic/gaussian16/B.01/nehalem/g16/l302.exe)
 NPDir=0 NMtPBC=     1 NCelOv=     1 NCel=       1 NClECP=     1 NCelD=      1
         NCelK=      1 NCelE2=     1 NClLst=     1 CellRange=     0.0.
 One-electron integrals computed using PRISM.
 GSVD:  received Info=                   1 from GESDD.
 NBasis=    60 RedAO= T EigKep=  1.93D-03  NBF=    60
 NBsUse=    60 1.00D-06 EigRej= -1.00D+00 NBFU=    60
 Precomputing XC quadrature grid using
 IXCGrd= 4 IRadAn=           5 IRanWt=          -1 IRanGd=           0 AccXCQ= 0.00D+00.
 Generated NRdTot=       0 NPtTot=           0 NUsed=           0 NTot=          32
 NSgBfM=    70    70    70    70    70 MxSgAt=     2 MxSgA2=     2.
 Leave Link  302 at Fri Oct  2 14:52:20 2020, MaxMem=   268435456 cpu:               1.2 elap:               0.2
 (Enter /applis/site/cecic/gaussian16/B.01/nehalem/g16/l303.exe)
 DipDrv:  MaxL=1.
 Leave Link  303 at Fri Oct  2 14:52:20 2020, MaxMem=   268435456 cpu:               0.5 elap:               0.1
 (Enter /applis/site/cecic/gaussian16/B.01/nehalem/g16/l401.exe)
 Initial guess from the checkpoint file:  "input.chk"
 B after Tr=     0.000000    0.000000   -0.000037
         Rot=    1.000000    0.000000    0.000000    0.000000 Ang=   0.00 deg.
 Guess basis will be translated and rotated to current coordinates.
 JPrj=2 DoOrth=T DoCkMO=T.
 Initial guess <Sx>= 0.0000 <Sy>= 0.0000 <Sz>= 0.5000 <S**2>= 0.7652 S= 0.5076
 Leave Link  401 at Fri Oct  2 14:52:20 2020, MaxMem=   268435456 cpu:               1.1 elap:               0.2
 (Enter /applis/site/cecic/gaussian16/B.01/nehalem/g16/l502.exe)
 Keep R1 and R2 ints in memory in canonical form, NReq=10503886.
 FoFCou: FMM=F IPFlag=           0 FMFlag=           0 FMFlg1=           0
         NFxFlg=           0 DoJE=F BraDBF=F KetDBF=F FulRan=T
         wScrn=  0.000000 ICntrl=       600 IOpCl=  0 I1Cent=           0 NGrid=           0
         NMat0=    1 NMatS0=   1830 NMatT0=    0 NMatD0=    1 NMtDS0=    0 NMtDT0=    0
 Symmetry not used in FoFCou.
 Two-electron integral symmetry not used.
 UHF open shell SCF:
 Using DIIS extrapolation, IDIIS=  1040.
 NGot=   268435456 LenX=   265073800 LenY=   265068459
 Requested convergence on RMS density matrix=1.00D-08 within 128 cycles.
 Requested convergence on MAX density matrix=1.00D-06.
 Requested convergence on             energy=1.00D-06.
 No special actions if energy rises.

 Cycle   1  Pass 1  IDiag  1:
 E= -92.7096941230012    
 DIIS: error= 6.22D-05 at cycle   1 NSaved=   1.
 NSaved= 1 IEnMin= 1 EnMin= -92.7096941230012     IErMin= 1 ErrMin= 6.22D-05
 ErrMax= 6.22D-05  0.00D+00 EMaxC= 1.00D-01 BMatC= 8.41D-07 BMatP= 8.41D-07
 IDIUse=1 WtCom= 1.00D+00 WtEn= 0.00D+00
 Coeff-Com:  0.100D+01
 Coeff:      0.100D+01
 Gap=     2.662 Goal=   None    Shift=    0.000
 Gap=     2.001 Goal=   None    Shift=    0.000
 RMSDP=6.77D-06 MaxDP=1.05D-04              OVMax= 2.48D-04

 Cycle   2  Pass 1  IDiag  1:
 E= -92.7096942636325     Delta-E=       -0.000000140631 Rises=F Damp=F
 DIIS: error= 4.02D-05 at cycle   2 NSaved=   2.
 NSaved= 2 IEnMin= 2 EnMin= -92.7096942636325     IErMin= 2 ErrMin= 4.02D-05
 ErrMax= 4.02D-05  0.00D+00 EMaxC= 1.00D-01 BMatC= 2.73D-07 BMatP= 8.41D-07
 IDIUse=1 WtCom= 1.00D+00 WtEn= 0.00D+00
 Coeff-Com:  0.328D+00 0.672D+00
 Coeff:      0.328D+00 0.672D+00
 Gap=     0.505 Goal=   None    Shift=    0.000
 Gap=     0.263 Goal=   None    Shift=    0.000
 RMSDP=2.93D-06 MaxDP=4.14D-05 DE=-1.41D-07 OVMax= 1.13D-04

 Cycle   3  Pass 1  IDiag  1:
 E= -92.7096942914817     Delta-E=       -0.000000027849 Rises=F Damp=F
 DIIS: error= 3.57D-05 at cycle   3 NSaved=   3.
 NSaved= 3 IEnMin= 3 EnMin= -92.7096942914817     IErMin= 3 ErrMin= 3.57D-05
 ErrMax= 3.57D-05  0.00D+00 EMaxC= 1.00D-01 BMatC= 1.18D-07 BMatP= 2.73D-07
 IDIUse=1 WtCom= 1.00D+00 WtEn= 0.00D+00
 Coeff-Com:  0.105D+00 0.394D+00 0.501D+00
 Coeff:      0.105D+00 0.394D+00 0.501D+00
 Gap=     0.505 Goal=   None    Shift=    0.000
 Gap=     0.263 Goal=   None    Shift=    0.000
 RMSDP=1.65D-06 MaxDP=3.04D-05 DE=-2.78D-08 OVMax= 1.11D-04

 Cycle   4  Pass 1  IDiag  1:
 E= -92.7096943153057     Delta-E=       -0.000000023824 Rises=F Damp=F
 DIIS: error= 1.32D-05 at cycle   4 NSaved=   4.
 NSaved= 4 IEnMin= 4 EnMin= -92.7096943153057     IErMin= 4 ErrMin= 1.32D-05
 ErrMax= 1.32D-05  0.00D+00 EMaxC= 1.00D-01 BMatC= 1.59D-08 BMatP= 1.18D-07
 IDIUse=1 WtCom= 1.00D+00 WtEn= 0.00D+00
 Coeff-Com: -0.281D-01-0.748D-02 0.268D+00 0.767D+00
 Coeff:     -0.281D-01-0.748D-02 0.268D+00 0.767D+00
 Gap=     0.505 Goal=   None    Shift=    0.000
 Gap=     0.263 Goal=   None    Shift=    0.000
 RMSDP=6.93D-07 MaxDP=9.22D-06 DE=-2.38D-08 OVMax= 3.35D-05

 Cycle   5  Pass 1  IDiag  1:
 E= -92.7096943202374     Delta-E=       -0.000000004932 Rises=F Damp=F
 DIIS: error= 4.31D-06 at cycle   5 NSaved=   5.
 NSaved= 5 IEnMin= 5 EnMin= -92.7096943202374     IErMin= 5 ErrMin= 4.31D-06
 ErrMax= 4.31D-06  0.00D+00 EMaxC= 1.00D-01 BMatC= 6.14D-10 BMatP= 1.59D-08
 IDIUse=1 WtCom= 1.00D+00 WtEn= 0.00D+00
 Coeff-Com:  0.798D-02-0.456D-01-0.144D+00-0.337D+00 0.152D+01
 Coeff:      0.798D-02-0.456D-01-0.144D+00-0.337D+00 0.152D+01
 Gap=     0.505 Goal=   None    Shift=    0.000
 Gap=     0.263 Goal=   None    Shift=    0.000
 RMSDP=5.71D-07 MaxDP=1.25D-05 DE=-4.93D-09 OVMax= 5.41D-05

 Cycle   6  Pass 1  IDiag  1:
 E= -92.7096943213130     Delta-E=       -0.000000001076 Rises=F Damp=F
 DIIS: error= 1.51D-06 at cycle   6 NSaved=   6.
 NSaved= 6 IEnMin= 6 EnMin= -92.7096943213130     IErMin= 6 ErrMin= 1.51D-06
 ErrMax= 1.51D-06  0.00D+00 EMaxC= 1.00D-01 BMatC= 1.11D-10 BMatP= 6.14D-10
 IDIUse=1 WtCom= 1.00D+00 WtEn= 0.00D+00
 Coeff-Com:  0.161D-02 0.162D-01 0.197D-01-0.321D-01-0.577D+00 0.157D+01
 Coeff:      0.161D-02 0.162D-01 0.197D-01-0.321D-01-0.577D+00 0.157D+01
 Gap=     0.505 Goal=   None    Shift=    0.000
 Gap=     0.263 Goal=   None    Shift=    0.000
 RMSDP=3.11D-07 MaxDP=6.11D-06 DE=-1.08D-09 OVMax= 3.00D-05

 Cycle   7  Pass 1  IDiag  1:
 E= -92.7096943215334     Delta-E=       -0.000000000220 Rises=F Damp=F
 DIIS: error= 4.95D-07 at cycle   7 NSaved=   7.
 NSaved= 7 IEnMin= 7 EnMin= -92.7096943215334     IErMin= 7 ErrMin= 4.95D-07
 ErrMax= 4.95D-07  0.00D+00 EMaxC= 1.00D-01 BMatC= 1.21D-11 BMatP= 1.11D-10
 IDIUse=1 WtCom= 1.00D+00 WtEn= 0.00D+00
 Coeff-Com: -0.142D-02-0.314D-02 0.745D-02 0.446D-01 0.124D+00-0.718D+00
 Coeff-Com:  0.155D+01
 Coeff:     -0.142D-02-0.314D-02 0.745D-02 0.446D-01 0.124D+00-0.718D+00
 Coeff:      0.155D+01
 Gap=     0.505 Goal=   None    Shift=    0.000
 Gap=     0.263 Goal=   None    Shift=    0.000
 RMSDP=8.07D-08 MaxDP=1.42D-06 DE=-2.20D-10 OVMax= 5.53D-06

 Cycle   8  Pass 1  IDiag  1:
 E= -92.7096943215585     Delta-E=       -0.000000000025 Rises=F Damp=F
 DIIS: error= 2.24D-07 at cycle   8 NSaved=   8.
 NSaved= 8 IEnMin= 8 EnMin= -92.7096943215585     IErMin= 8 ErrMin= 2.24D-07
 ErrMax= 2.24D-07  0.00D+00 EMaxC= 1.00D-01 BMatC= 2.97D-12 BMatP= 1.21D-11
 IDIUse=1 WtCom= 1.00D+00 WtEn= 0.00D+00
 Coeff-Com:  0.457D-03-0.489D-02-0.132D-01-0.206D-01 0.148D+00-0.973D-01
 Coeff-Com: -0.923D+00 0.191D+01
 Coeff:      0.457D-03-0.489D-02-0.132D-01-0.206D-01 0.148D+00-0.973D-01
 Coeff:     -0.923D+00 0.191D+01
 Gap=     0.505 Goal=   None    Shift=    0.000
 Gap=     0.263 Goal=   None    Shift=    0.000
 RMSDP=5.44D-08 MaxDP=8.09D-07 DE=-2.51D-11 OVMax= 2.94D-06

 Cycle   9  Pass 1  IDiag  1:
 E= -92.7096943215659     Delta-E=       -0.000000000007 Rises=F Damp=F
 DIIS: error= 4.61D-08 at cycle   9 NSaved=   9.
 NSaved= 9 IEnMin= 9 EnMin= -92.7096943215659     IErMin= 9 ErrMin= 4.61D-08
 ErrMax= 4.61D-08  0.00D+00 EMaxC= 1.00D-01 BMatC= 1.06D-13 BMatP= 2.97D-12
 IDIUse=1 WtCom= 1.00D+00 WtEn= 0.00D+00
 Coeff-Com:  0.849D-04 0.580D-03 0.470D-03-0.225D-02-0.256D-01 0.631D-01
 Coeff-Com: -0.717D-01-0.125D+00 0.116D+01
 Coeff:      0.849D-04 0.580D-03 0.470D-03-0.225D-02-0.256D-01 0.631D-01
 Coeff:     -0.717D-01-0.125D+00 0.116D+01
 Gap=     0.505 Goal=   None    Shift=    0.000
 Gap=     0.263 Goal=   None    Shift=    0.000
 RMSDP=1.16D-08 MaxDP=2.10D-07 DE=-7.38D-12 OVMax= 7.29D-07

 Cycle  10  Pass 1  IDiag  1:
 E= -92.7096943215661     Delta-E=       -0.000000000000 Rises=F Damp=F
 DIIS: error= 5.75D-09 at cycle  10 NSaved=  10.
 NSaved=10 IEnMin=10 EnMin= -92.7096943215661     IErMin=10 ErrMin= 5.75D-09
 ErrMax= 5.75D-09  0.00D+00 EMaxC= 1.00D-01 BMatC= 3.61D-15 BMatP= 1.06D-13
 IDIUse=1 WtCom= 1.00D+00 WtEn= 0.00D+00
 Coeff-Com: -0.156D-04 0.702D-04 0.183D-03 0.854D-03-0.659D-03-0.358D-02
 Coeff-Com:  0.359D-01-0.430D-01-0.128D+00 0.114D+01
 Coeff:     -0.156D-04 0.702D-04 0.183D-03 0.854D-03-0.659D-03-0.358D-02
 Coeff:      0.359D-01-0.430D-01-0.128D+00 0.114D+01
 Gap=     0.505 Goal=   None    Shift=    0.000
 Gap=     0.263 Goal=   None    Shift=    0.000
 RMSDP=7.85D-10 MaxDP=1.52D-08 DE=-2.42D-13 OVMax= 4.13D-08

 SCF Done:  E(UM062X) =  -92.7096943216     A.U. after   10 cycles
            NFock= 10  Conv=0.79D-09     -V/T= 2.0051
 <Sx>= 0.0000 <Sy>= 0.0000 <Sz>= 0.5000 <S**2>= 0.7651 S= 0.5075
 <L.S>= 0.000000000000E+00
 KE= 9.223836281832D+01 PE=-2.549552459623D+02 EE= 5.073273991962D+01
 Annihilation of the first spin contaminant:
 S**2 before annihilation     0.7651,   after     0.7502
 Leave Link  502 at Fri Oct  2 14:52:22 2020, MaxMem=   268435456 cpu:              13.7 elap:               1.9
 (Enter /applis/site/cecic/gaussian16/B.01/nehalem/g16/l701.exe)
 ... and contract with generalized density number  0.
 Compute integral first derivatives.
 Leave Link  701 at Fri Oct  2 14:52:22 2020, MaxMem=   268435456 cpu:               1.1 elap:               0.2
 (Enter /applis/site/cecic/gaussian16/B.01/nehalem/g16/l702.exe)
 L702 exits ... SP integral derivatives will be done elsewhere.
 Leave Link  702 at Fri Oct  2 14:52:22 2020, MaxMem=   268435456 cpu:               0.4 elap:               0.1
 (Enter /applis/site/cecic/gaussian16/B.01/nehalem/g16/l703.exe)
 Integral derivatives from FoFJK, PRISM(SPDF).
 Compute integral first derivatives, UseDBF=F ICtDFT=           0.
 Calling FoFJK, ICntrl=      2127 FMM=F ISym2X=0 I1Cent= 0 IOpClX= 1 NMat=1 NMatS=1 NMatT=0.
 FoFJK:  IHMeth= 1 ICntrl=    2127 DoSepK=F KAlg= 0 I1Cent=           0 FoldK=F
 IRaf=         0 NMat=       1 IRICut=       1 DoRegI=T DoRafI=F ISym2E= 0 IDoP0=0 IntGTp=1.
 FoFCou: FMM=F IPFlag=           0 FMFlag=      100000 FMFlg1=         800
         NFxFlg=           0 DoJE=F BraDBF=F KetDBF=F FulRan=T
         wScrn=  0.000000 ICntrl=      2127 IOpCl=  1 I1Cent=           0 NGrid=           0
         NMat0=    1 NMatS0=      1 NMatT0=    0 NMatD0=    1 NMtDS0=    0 NMtDT0=    0
 Symmetry not used in FoFCou.
 Leave Link  703 at Fri Oct  2 14:52:23 2020, MaxMem=   268435456 cpu:               3.9 elap:               0.5
 (Enter /applis/site/cecic/gaussian16/B.01/nehalem/g16/l716.exe)
 Dipole        = 1.18219202D-14 1.15491096D-15-7.21385064D-01
 -------------------------------------------------------------------
 Center     Atomic                   Forces (Hartrees/Bohr)
 Number     Number              X              Y              Z
 -------------------------------------------------------------------
      1        6          -0.000000000   -0.000000000   -0.000001885
      2        7           0.000000000    0.000000000    0.000001885
 -------------------------------------------------------------------
 Cartesian Forces:  Max     0.000001885 RMS     0.000001088
 Leave Link  716 at Fri Oct  2 14:52:23 2020, MaxMem=   268435456 cpu:               0.6 elap:               0.1
 (Enter /applis/site/cecic/gaussian16/B.01/nehalem/g16/l103.exe)

 GradGradGradGradGradGradGradGradGradGradGradGradGradGradGradGradGradGrad
 Berny optimization.
 Using GEDIIS/GDIIS optimizer.
 Red2BG is reusing G-inverse.
 Internal  Forces:  Max     0.000001885 RMS     0.000001885
 Search for a local minimum.
 Step number   3 out of a maximum of  100
 All quantities printed in internal units (Hartrees-Bohrs-Radians)
 RMS Force = .18847D-05 SwitMx=.10000D-02 MixMth= 2
 Mixed Optimization -- En-DIIS/RFO-DIIS
 Update second derivatives using D2CorX and points    3
 DE= -5.78D-07 DEPred=-6.57D-07 R= 8.80D-01
 Trust test= 8.80D-01 RLast= 9.72D-04 DXMaxT set to 3.00D-01
 The second derivative matrix:
                          R1
           R1           1.05958
 ITU=  0  1
 Use linear search instead of GDIIS.
     Eigenvalues ---    1.05958
 RFO step:  Lambda= 0.00000000D+00 EMin= 1.05958015D+00
 Quartic linear search produced a step of -0.00158.
 Iteration  1 RMS(Cart)=  0.00000108 RMS(Int)=  0.00000000
 Iteration  2 RMS(Cart)=  0.00000000 RMS(Int)=  0.00000000
 ITry= 1 IFail=0 DXMaxC= 7.66D-07 DCOld= 1.00D+10 DXMaxT= 3.00D-01 DXLimC= 3.00D+00 Rises=F
 Variable       Old X    -DE/DX   Delta X   Delta X   Delta X     New X
                                 (Linear)    (Quad)   (Total)
    R1        2.17905   0.00000   0.00000   0.00000   0.00000   2.17905
         Item               Value     Threshold  Converged?
 Maximum Force            0.000002     0.000450     YES
 RMS     Force            0.000002     0.000300     YES
 Maximum Displacement     0.000001     0.001800     YES
 RMS     Displacement     0.000001     0.001200     YES
 Predicted change in Energy=-1.644129D-12
 Optimization completed.
    -- Stationary point found.
                           ----------------------------
                           !   Optimized Parameters   !
                           ! (Angstroms and Degrees)  !
 --------------------------                            --------------------------
 ! Name  Definition              Value          Derivative Info.                !
 --------------------------------------------------------------------------------
 ! R1    R(1,2)                  1.1531         -DE/DX =    0.0                 !
 --------------------------------------------------------------------------------
 Lowest energy point so far.  Saving SCF results.
 Largest change from initial coordinates is atom    1       0.022 Angstoms.
 GradGradGradGradGradGradGradGradGradGradGradGradGradGradGradGradGradGrad

 Leave Link  103 at Fri Oct  2 14:52:23 2020, MaxMem=   268435456 cpu:               0.7 elap:               0.1
 (Enter /applis/site/cecic/gaussian16/B.01/nehalem/g16/l202.exe)
                          Input orientation:                          
 ---------------------------------------------------------------------
 Center     Atomic      Atomic             Coordinates (Angstroms)
 Number     Number       Type             X           Y           Z
 ---------------------------------------------------------------------
      1          6           0        0.000000    0.000000    0.021563
      2          7           0        0.000000    0.000000    1.174667
 ---------------------------------------------------------------------
 Symmetry turned off by external request.
 Stoichiometry    CN(2)
 Framework group  C*V[C*(CN)]
 Deg. of freedom     1
 Full point group                 C*V     NOp   4
 Rotational constants (GHZ):           0.0000000          58.8166593          58.8166593
 Leave Link  202 at Fri Oct  2 14:52:23 2020, MaxMem=   268435456 cpu:               0.2 elap:               0.1
 (Enter /applis/site/cecic/gaussian16/B.01/nehalem/g16/l601.exe)
 Copying SCF densities to generalized density rwf, IOpCl= 1 IROHF=0.

 **********************************************************************

            Population analysis using the SCF Density.

 **********************************************************************

 Alpha  occ. eigenvalues --  -14.80756 -10.65800  -1.06836  -0.58171  -0.47258
 Alpha  occ. eigenvalues --   -0.46149  -0.46149
 Alpha virt. eigenvalues --    0.04314   0.04314   0.21076   0.32272   0.33282
 Alpha virt. eigenvalues --    0.33282   0.49679   0.57891   0.57891   0.65782
 Alpha virt. eigenvalues --    0.65782   0.67204   0.87716   0.87716   0.94089
 Alpha virt. eigenvalues --    1.21559   1.21559   1.33870   1.57115   1.57115
 Alpha virt. eigenvalues --    1.79815   2.00962   2.00962   2.24471   2.61766
 Alpha virt. eigenvalues --    2.61766   2.73423   2.73423   2.77600   2.81859
 Alpha virt. eigenvalues --    2.81859   2.91851   2.91851   2.96688   2.96688
 Alpha virt. eigenvalues --    3.11975   3.42115   3.42115   3.94896   3.94896
 Alpha virt. eigenvalues --    3.95718   4.42145   4.42146   4.57981   4.57982
 Alpha virt. eigenvalues --    4.82482   4.82482   4.99044   5.35878   5.52103
 Alpha virt. eigenvalues --    5.52103   6.06228  12.75148
  Beta  occ. eigenvalues --  -14.80633 -10.64435  -1.04719  -0.49881  -0.44571
  Beta  occ. eigenvalues --   -0.44571
  Beta virt. eigenvalues --   -0.18270   0.06103   0.06103   0.17201   0.31013
  Beta virt. eigenvalues --    0.32191   0.32191   0.50149   0.57192   0.57192
  Beta virt. eigenvalues --    0.66038   0.66038   0.70369   0.87019   0.87019
  Beta virt. eigenvalues --    0.92945   1.21078   1.21078   1.31316   1.55825
  Beta virt. eigenvalues --    1.55825   1.81777   2.02932   2.02932   2.27459
  Beta virt. eigenvalues --    2.62847   2.62847   2.73656   2.73656   2.77794
  Beta virt. eigenvalues --    2.85400   2.85400   2.96010   2.96011   2.97199
  Beta virt. eigenvalues --    2.97199   3.17374   3.40338   3.40338   3.93466
  Beta virt. eigenvalues --    3.93466   3.95739   4.40141   4.40141   4.55990
  Beta virt. eigenvalues --    4.55990   4.82451   4.82451   5.01555   5.37118
  Beta virt. eigenvalues --    5.50094   5.50094   6.06278  12.71438
          Condensed to atoms (all electrons):
               1          2
     1  C    5.081170   0.886084
     2  N    0.886084   6.146663
          Atomic-Atomic Spin Densities.
               1          2
     1  C    1.053275  -0.026940
     2  N   -0.026940   0.000605
 Mulliken charges and spin densities:
               1          2
     1  C    0.032746   1.026335
     2  N   -0.032746  -0.026335
 Sum of Mulliken charges =  -0.00000   1.00000
 Mulliken charges and spin densities with hydrogens summed into heavy atoms:
               1          2
     1  C    0.032746   1.026335
     2  N   -0.032746  -0.026335
 Electronic spatial extent (au):  <R**2>=             60.1966
 Charge=             -0.0000 electrons
 Dipole moment (field-independent basis, Debye):
    X=              0.0000    Y=              0.0000    Z=             -1.8336  Tot=              1.8336
 Quadrupole moment (field-independent basis, Debye-Ang):
   XX=            -10.9670   YY=            -10.9670   ZZ=            -12.6255
   XY=              0.0000   XZ=              0.0000   YZ=              0.0000
 Traceless Quadrupole moment (field-independent basis, Debye-Ang):
   XX=              0.5529   YY=              0.5529   ZZ=             -1.1057
   XY=              0.0000   XZ=              0.0000   YZ=              0.0000
 Octapole moment (field-independent basis, Debye-Ang**2):
  XXX=              0.0000  YYY=             -0.0000  ZZZ=            -23.2470  XYY=              0.0000
  XXY=             -0.0000  XXZ=             -6.9285  XZZ=              0.0000  YZZ=              0.0000
  YYZ=             -6.9285  XYZ=             -0.0000
 Hexadecapole moment (field-independent basis, Debye-Ang**3):
 XXXX=            -10.9412 YYYY=            -10.9412 ZZZZ=            -62.6669 XXXY=              0.0000
 XXXZ=             -0.0000 YYYX=              0.0000 YYYZ=             -0.0000 ZZZX=              0.0000
 ZZZY=             -0.0000 XXYY=             -3.6471 XXZZ=            -11.4088 YYZZ=            -11.4088
 XXYZ=             -0.0000 YYXZ=             -0.0000 ZZXY=             -0.0000
 N-N= 1.927444890283D+01 E-N=-2.549552460207D+02  KE= 9.223836281832D+01
                          Isotropic Fermi Contact Couplings
        Atom                 a.u.       MegaHertz       Gauss      10(-4) cm-1
     1  C(13)              0.78285     880.06894     314.03048     293.55940
     2  N(14)             -0.04484     -14.48705      -5.16934      -4.83236
 --------------------------------------------------------
       Center         ----  Spin Dipole Couplings  ----
                      3XX-RR        3YY-RR        3ZZ-RR
 --------------------------------------------------------
     1   Atom       -0.398329     -0.398329      0.796658
     2   Atom       -0.454371     -0.454371      0.908742
 --------------------------------------------------------
                        XY            XZ            YZ
 --------------------------------------------------------
     1   Atom        0.000000     -0.000000      0.000000
     2   Atom        0.000000      0.000000      0.000000
 --------------------------------------------------------


 ---------------------------------------------------------------------------------
              Anisotropic Spin Dipole Couplings in Principal Axis System
 ---------------------------------------------------------------------------------

       Atom             a.u.   MegaHertz   Gauss  10(-4) cm-1        Axes

              Baa    -0.3983   -53.452   -19.073   -17.830  0.9983 -0.0581  0.0000
     1 C(13)  Bbb    -0.3983   -53.452   -19.073   -17.830  0.0581  0.9983  0.0000
              Bcc     0.7967   106.904    38.146    35.659 -0.0000  0.0000  1.0000
 
              Baa    -0.4544   -17.524    -6.253    -5.845  0.9888 -0.1491 -0.0000
     2 N(14)  Bbb    -0.4544   -17.524    -6.253    -5.845  0.1491  0.9888 -0.0000
              Bcc     0.9087    35.048    12.506    11.691  0.0000  0.0000  1.0000
 

 ---------------------------------------------------------------------------------

 No NMR shielding tensors so no spin-rotation constants.
 Leave Link  601 at Fri Oct  2 14:52:23 2020, MaxMem=   268435456 cpu:               1.7 elap:               0.2
 (Enter /applis/site/cecic/gaussian16/B.01/nehalem/g16/l9999.exe)
 B after Tr=     0.000000    0.000000    0.003134
         Rot=    1.000000    0.000000    0.000000    0.000000 Ang=   0.00 deg.
 Final structure in terms of initial Z-matrix:
 C
 N,1,B1
      Variables:
 B1=1.15310393
 1\1\GINC-DAHU123\FOpt\UM062X\CC-pVTZ\C1N1(2)\TINACCIL\02-Oct-2020\0\\#
 P M062X/cc-pvtz nosymm opt(noeigentest) optcyc=120 freq\\Title\\0,2\C,
 0.,0.,0.0215630329\N,0.,0.,1.1746669671\\Version=ES64L-G16RevB.01\HF=-
 92.7096943\S2=0.765142\S2-1=0.\S2A=0.750156\RMSD=7.854e-10\RMSF=1.088e
 -06\Dipole=0.,0.,-0.7213851\Quadrupole=0.4110314,0.4110314,-0.8220628,
 0.,0.,0.\PG=C*V [C*(C1N1)]\\@


 TIMES HAVE CHANGED. IN THE BIBLE WHEN AN ASS
 SPOKE IT WAS CONSIDERED A MIRACLE.
 Leave Link 9999 at Fri Oct  2 14:52:24 2020, MaxMem=   268435456 cpu:               0.7 elap:               0.2
 Job cpu time:       0 days  0 hours  1 minutes 33.2 seconds.
 Elapsed time:       0 days  0 hours  0 minutes 14.8 seconds.
 File lengths (MBytes):  RWF=     15 Int=      0 D2E=      0 Chk=      2 Scr=      1
 Normal termination of Gaussian 16 at Fri Oct  2 14:52:24 2020.
 (Enter /applis/site/cecic/gaussian16/B.01/nehalem/g16/l1.exe)
 Link1:  Proceeding to internal job step number  2.
 -------------------------------------------------------------------
 #P Geom=AllCheck Guess=TCheck SCRF=Check GenChk UM062X/CC-pVTZ Freq
 -------------------------------------------------------------------
 1/6=120,10=4,11=1,29=7,30=1,38=1,40=1/1,3;
 2/12=2,15=1,40=1/2;
 3/5=16,6=1,11=2,14=-4,25=1,30=1,70=2,71=2,74=-55,116=2,140=1/1,2,3;
 4/5=101/1;
 5/5=2,38=6,98=1/2;
 8/6=4,10=90,11=11/1;
 11/6=1,8=1,9=11,15=111,16=1,31=1/1,2,10;
 10/6=1,31=1/2;
 6/7=2,8=2,9=2,10=2,28=1/1;
 7/8=1,10=1,25=1,30=1/1,2,3,16;
 1/6=120,10=4,11=1,30=1/3;
 99//99;
 Leave Link    1 at Fri Oct  2 14:52:24 2020, MaxMem=   268435456 cpu:               0.3 elap:               0.0
 (Enter /applis/site/cecic/gaussian16/B.01/nehalem/g16/l101.exe)
 Structure from the checkpoint file:  "input.chk"
 -----
 Title
 -----
 Charge =  0 Multiplicity = 2
 Redundant internal coordinates found in file.  (old form).
 C,0,0.,0.,0.0215630329
 N,0,0.,0.,1.1746669671
 Recover connectivity data from disk.
 ITRead=  0  0
 MicOpt= -1 -1
 NAtoms=      2 NQM=        2 NQMF=       0 NMMI=      0 NMMIF=      0
                NMic=       0 NMicF=      0.
                    Isotopes and Nuclear Properties:
 (Nuclear quadrupole moments (NQMom) in fm**2, nuclear magnetic moments (NMagM)
  in nuclear magnetons)

  Atom         1           2
 IAtWgt=          12          14
 AtmWgt=  12.0000000  14.0030740
 NucSpn=           0           2
 AtZEff=   3.6000000   4.5500000
 NQMom=    0.0000000   2.0440000
 NMagM=    0.0000000   0.4037610
 AtZNuc=   6.0000000   7.0000000
 Leave Link  101 at Fri Oct  2 14:52:24 2020, MaxMem=   268435456 cpu:               1.7 elap:               0.2
 (Enter /applis/site/cecic/gaussian16/B.01/nehalem/g16/l103.exe)

 GradGradGradGradGradGradGradGradGradGradGradGradGradGradGradGradGradGrad
 Berny optimization.
 Initialization pass.
[...]
 DIIS: error= 3.30D-08 at cycle  13 NSaved=  13.
 NSaved=13 IEnMin=13 EnMin= -92.2213954304013     IErMin=13 ErrMin= 3.30D-08
 ErrMax= 3.30D-08  0.00D+00 EMaxC= 1.00D-01 BMatC= 7.82D-14 BMatP= 1.38D-12
 IDIUse=1 WtCom= 1.00D+00 WtEn= 0.00D+00
 Coeff-Com: -0.119D-05 0.315D-05 0.112D-04 0.576D-04-0.198D-03-0.771D-03
 Coeff-Com:  0.157D-03 0.345D-02 0.106D-02-0.292D-01-0.364D-01 0.133D+00
 Coeff-Com:  0.928D+00
 Coeff:     -0.119D-05 0.315D-05 0.112D-04 0.576D-04-0.198D-03-0.771D-03
 Coeff:      0.157D-03 0.345D-02 0.106D-02-0.292D-01-0.364D-01 0.133D+00
 Coeff:      0.928D+00
 Gap=     0.298 Goal=   None    Shift=    0.000
 RMSDP=2.97D-08 MaxDP=1.01D-06 DE=-2.17D-12 OVMax= 3.14D-07

 Cycle  14  Pass 1  IDiag  1:
 E= -92.2213954304015     Delta-E=       -0.000000000000 Rises=F Damp=F
 DIIS: error= 1.06D-08 at cycle  14 NSaved=  14.
 NSaved=14 IEnMin=14 EnMin= -92.2213954304015     IErMin=14 ErrMin= 1.06D-08
 ErrMax= 1.06D-08  0.00D+00 EMaxC= 1.00D-01 BMatC= 3.91D-15 BMatP= 7.82D-14
 IDIUse=1 WtCom= 1.00D+00 WtEn= 0.00D+00
 Coeff-Com: -0.134D-06-0.183D-06 0.103D-05 0.141D-04-0.306D-06-0.141D-03
 Coeff-Com: -0.913D-04 0.679D-03 0.682D-03-0.270D-02-0.901D-02-0.352D-01
 Coeff-Com:  0.128D+00 0.918D+00
 Coeff:     -0.134D-06-0.183D-06 0.103D-05 0.141D-04-0.306D-06-0.141D-03
 Coeff:     -0.913D-04 0.679D-03 0.682D-03-0.270D-02-0.901D-02-0.352D-01
 Coeff:      0.128D+00 0.918D+00
 Gap=     0.298 Goal=   None    Shift=    0.000
 RMSDP=5.78D-09 MaxDP=2.21D-07 DE=-2.27D-13 OVMax= 8.68D-08

 SCF Done:  E(ROHF) =  -92.2213954304     A.U. after   14 cycles
            NFock= 14  Conv=0.58D-08     -V/T= 2.0018
 <Sx>= 0.0000 <Sy>= 0.0000 <Sz>= 0.5000 <S**2>= 0.7500 S= 0.5000
 <L.S>= 0.000000000000E+00
 KE= 9.205122830239D+01 PE=-2.545937232766D+02 EE= 5.104665064099D+01
 Annihilation of the first spin contaminant:
 S**2 before annihilation     0.7500,   after     0.7500
 Leave Link  502 at Fri Oct  2 14:52:34 2020, MaxMem=   327680000 cpu:               6.8 elap:               1.0
 (Enter /applis/site/cecic/gaussian16/B.01/nehalem/g16/l801.exe)
 Windowed orbitals will be sorted by symmetry type.
 An orbital has undefined symmetry, so N**3 symmetry is turned off.
 GenMOA:  NOpAll=  4 NOp2=4 NOpUse=  4 JSym2X=1
 FoFJK:  IHMeth= 1 ICntrl=       0 DoSepK=F KAlg= 0 I1Cent=           0 FoldK=F
 IRaf=         0 NMat=       1 IRICut=       1 DoRegI=T DoRafI=F ISym2E= 1 IDoP0=0 IntGTp=1.
 FoFCou: FMM=F IPFlag=           0 FMFlag=      100000 FMFlg1=           0
         NFxFlg=           0 DoJE=F BraDBF=F KetDBF=F FulRan=T
         wScrn=  0.000000 ICntrl=         0 IOpCl=  1 I1Cent=           0 NGrid=           0
         NMat0=    1 NMatS0=      1 NMatT0=    0 NMatD0=    1 NMtDS0=    0 NMtDT0=    0
 Petite list used in FoFCou.
 <Sx>= 0.0000 <Sy>= 0.0000 <Sz>= 0.5000 <S**2>= 0.7500 S= 0.5000
 ExpMin= 3.57D-02 ExpMax= 1.14D+04 ExpMxC= 3.89D+02 IAcc=3 IRadAn=         5 AccDes= 0.00D+00
 HarFok:  IExCor=  205 AccDes= 0.00D+00 IRadAn=         5 IDoV=-2 UseB2=F ITyADJ=14
 ICtDFT= 12500011 ScaDFX=  1.000000  1.000000  1.000000  1.000000
 Largest valence mixing into a core orbital is  1.89D-04
 Largest core mixing into a valence orbital is  3.69D-05
 Largest valence mixing into a core orbital is  2.08D-04
 Largest core mixing into a valence orbital is  4.24D-05
 Range of M.O.s used for correlation:     3    92
 NBasis=    92 NAE=     7 NBE=     6 NFC=     2 NFV=     0
 NROrb=     90 NOA=     5 NOB=     4 NVA=    85 NVB=    86

 **** Warning!!: The largest alpha MO coefficient is  0.16961630D+02


 **** Warning!!: The largest beta MO coefficient is  0.16916032D+02

 Singles contribution to E2=   -0.2635195855D-02
 Leave Link  801 at Fri Oct  2 14:52:35 2020, MaxMem=   327680000 cpu:               4.0 elap:               0.6
 (Enter /applis/site/cecic/gaussian16/B.01/nehalem/g16/l804.exe)
 Open-shell transformation, MDV=   327680000 ITran=4 ISComp=1.
 Unit  1 TFree=        261635 TCopy=        387003.
 Semi-Direct transformation.
 ModeAB=           2 MOrb=             5 LenV=     327257250
 LASXX=      1737880 LTotXX=     1737880 LenRXX=     1737880
 LTotAB=     1801800 MaxLAS=     2747250 LenRXY=     2747250
 NonZer=     3475760 LenScr=     5767168 LnRSAI=           0
 LnScr1=           0 LExtra=           0 Total=     10252298
 MaxDsk=          -1 SrtSym=           F ITran=            4
 DoSDTr:  NPSUse=  8
 JobTyp=1 Pass  1:  I=   1 to   5.
 (rs|ai) integrals will be sorted in core.
 Complete sort for first half transformation.
 First half transformation complete.
 Complete sort for second half transformation.
 Second half transformation complete.
 ModeAB=           2 MOrb=             4 LenV=     327257250
 LASXX=      1399671 LTotXX=     1399671 LenRXX=     2197800
 LTotAB=     1293870 MaxLAS=     2197800 LenRXY=     1293870
 NonZer=     2799342 LenScr=     4718592 LnRSAI=           0
 LnScr1=           0 LExtra=           0 Total=      8210262
 MaxDsk=          -1 SrtSym=           F ITran=            4
 DoSDTr:  NPSUse=  8
 JobTyp=2 Pass  1:  I=   1 to   4.
 (rs|ai) integrals will be sorted in core.
 Complete sort for first half transformation.
 First half transformation complete.
 Complete sort for second half transformation.
 Second half transformation complete.
 SymMOI:  orbitals are not symmetric.
 Spin components of T(2) and E(2):
     alpha-alpha T2 =       0.1610140029D-01 E2=     -0.4483911554D-01
     alpha-beta  T2 =       0.8629106044D-01 E2=     -0.2384291453D+00
     beta-beta   T2 =       0.1494767232D-01 E2=     -0.3763401603D-01
 ANorm=    0.1058210830D+01
 E2 =    -0.3235374727D+00 EUMP2 =    -0.92544932903112D+02
 (S**2,0)=  0.75000D+00           (S**2,1)=  0.75000D+00
 E(PUHF)=      -0.92221395430D+02        E(PMP2)=      -0.92544932903D+02
 Leave Link  804 at Fri Oct  2 14:52:37 2020, MaxMem=   327680000 cpu:              13.5 elap:               1.9
 (Enter /applis/site/cecic/gaussian16/B.01/nehalem/g16/l913.exe)
 CIDS:  MDV=   327680000.
 Frozen-core window:  NFC=   2 NFV=   0.
 IFCWin=0 IBDFC=1 NFBD=     0     0 NFCmp=     0     0 NFFFC=     0     0
 Using original routines for 1st iteration.
 Using DD4UQ or CC4UQ for 2nd and later iterations.
 Keep R2 and R3 ints in memory in symmetry-blocked form, NReq=13090016.
 FoFCou: FMM=F IPFlag=           0 FMFlag=           0 FMFlg1=           0
         NFxFlg=           0 DoJE=F BraDBF=F KetDBF=F FulRan=T
         wScrn=  0.000000 ICntrl=       600 IOpCl=  0 I1Cent=           0 NGrid=           0
         NMat0=    1 NMatS0=   4278 NMatT0=    0 NMatD0=    1 NMtDS0=    0 NMtDT0=    0
 Petite list used in FoFCou.
 CIDS: In Core Option IDoMem=           1.
 CCSD(T)
 =======
 Iterations=  50 Convergence= 0.100D-06
 Produce multiple copies of IABC intergrals
 Iteration Nr.   1
 **********************
 DD1Dir will call FoFMem   1 times, MxPair=        56
 NAB=    20 NAA=    10 NBB=     6.
 DD1Dir will call FoFMem   1 times, MxPair=        56
 NAB=    20 NAA=    10 NBB=     6.
 MP4(R+Q)=  0.48144899D-02
 Maximum subspace dimension=  5
 A-vector RMS=  6.3005245D-04 Max=  2.3213097D-03 conv= 1.00D-05.
 RLE energy=       -0.3142959729
 E3=        0.45216565D-02        EROMP3=      -0.92540411247D+02
 E4(SDQ)=  -0.94540077D-02        ROMP4(SDQ)=  -0.92549865254D+02
 VARIATIONAL ENERGIES WITH THE FIRST-ORDER WAVEFUNCTION:
 DE(Corr)= -0.31401868     E(Corr)=     -92.535414111    
 NORM(A)=   0.10539833D+01
 Iteration Nr.   2
 **********************
 DD1Dir will call FoFMem   1 times, MxPair=        56
 NAB=    20 NAA=    10 NBB=     6.
 A-vector RMS=  6.5501555D-03 Max=  5.7628302D-02 conv= 1.00D-05.
 RLE energy=       -0.3132870063
 DE(Corr)= -0.30943624     E(CORR)=     -92.530831668     Delta= 4.58D-03
 NORM(A)=   0.10536837D+01
 Iteration Nr.   3
 **********************
 DD1Dir will call FoFMem   1 times, MxPair=        56
 NAB=    20 NAA=    10 NBB=     6.
 A-vector RMS=  5.2789302D-03 Max=  4.7829814D-02 conv= 1.00D-05.
 RLE energy=       -0.3202341074
 DE(Corr)= -0.31267784     E(CORR)=     -92.534073274     Delta=-3.24D-03
 NORM(A)=   0.10592343D+01
 Iteration Nr.   4
 **********************
 DD1Dir will call FoFMem   1 times, MxPair=        56
 NAB=    20 NAA=    10 NBB=     6.
 A-vector RMS=  3.8329702D-03 Max=  3.9867094D-02 conv= 1.00D-05.
 RLE energy=       -0.3343153336
 DE(Corr)= -0.31836523     E(CORR)=     -92.539760659     Delta=-5.69D-03
 NORM(A)=   0.10961070D+01
 Iteration Nr.   5
 **********************
 DD1Dir will call FoFMem   1 times, MxPair=        56
 NAB=    20 NAA=    10 NBB=     6.
 A-vector RMS=  2.4755756D-03 Max=  1.4879085D-02 conv= 1.00D-05.
 RLE energy=       -0.3326398468
 DE(Corr)= -0.33655832     E(CORR)=     -92.557953755     Delta=-1.82D-02
 NORM(A)=   0.10930924D+01
 Iteration Nr.   6
 **********************
 DD1Dir will call FoFMem   1 times, MxPair=        56
 NAB=    20 NAA=    10 NBB=     6.
 A-vector RMS=  9.6721270D-04 Max=  3.5599708D-03 conv= 1.00D-05.
 RLE energy=       -0.3302574617
 DE(Corr)= -0.33298188     E(CORR)=     -92.554377311     Delta= 3.58D-03
 NORM(A)=   0.10891516D+01
 Iteration Nr.   7
 **********************
 DD1Dir will call FoFMem   1 times, MxPair=        56
 NAB=    20 NAA=    10 NBB=     6.
 A-vector RMS=  3.3511588D-04 Max=  3.1248441D-03 conv= 1.00D-05.
 RLE energy=       -0.3301805796
 DE(Corr)= -0.33007933     E(CORR)=     -92.551474759     Delta= 2.90D-03
 NORM(A)=   0.10921479D+01
 Iteration Nr.   8
 **********************
 DD1Dir will call FoFMem   1 times, MxPair=        56
 NAB=    20 NAA=    10 NBB=     6.
 A-vector RMS=  1.3983499D-04 Max=  9.8385054D-04 conv= 1.00D-05.
 RLE energy=       -0.3303432118
 DE(Corr)= -0.33040951     E(CORR)=     -92.551804941     Delta=-3.30D-04
 NORM(A)=   0.10928309D+01
 Iteration Nr.   9
 **********************
 DD1Dir will call FoFMem   1 times, MxPair=        56
 NAB=    20 NAA=    10 NBB=     6.
 A-vector RMS=  6.3565392D-05 Max=  3.6430622D-04 conv= 1.00D-05.
 RLE energy=       -0.3303516689
 DE(Corr)= -0.33028819     E(CORR)=     -92.551683617     Delta= 1.21D-04
 NORM(A)=   0.10932322D+01
 Iteration Nr.  10
 **********************
 DD1Dir will call FoFMem   1 times, MxPair=        56
 NAB=    20 NAA=    10 NBB=     6.
 A-vector RMS=  2.9147960D-05 Max=  1.6073779D-04 conv= 1.00D-05.
 RLE energy=       -0.3303096763
 DE(Corr)= -0.33033652     E(CORR)=     -92.551731950     Delta=-4.83D-05
 NORM(A)=   0.10931231D+01
 Iteration Nr.  11
 **********************
 DD1Dir will call FoFMem   1 times, MxPair=        56
 NAB=    20 NAA=    10 NBB=     6.
 A-vector RMS=  1.0405736D-05 Max=  5.5519437D-05 conv= 1.00D-05.
 RLE energy=       -0.3303360762
 DE(Corr)= -0.33032227     E(CORR)=     -92.551717704     Delta= 1.42D-05
 NORM(A)=   0.10931752D+01
 Iteration Nr.  12
 **********************
 DD1Dir will call FoFMem   1 times, MxPair=        56
 NAB=    20 NAA=    10 NBB=     6.
 A-vector RMS=  7.2108004D-06 Max=  2.8305824D-05 conv= 1.00D-05.
 RLE energy=       -0.3303177385
 DE(Corr)= -0.33032100     E(CORR)=     -92.551716433     Delta= 1.27D-06
 NORM(A)=   0.10931761D+01
 Iteration Nr.  13
 **********************
 DD1Dir will call FoFMem   1 times, MxPair=        56
 NAB=    20 NAA=    10 NBB=     6.
 A-vector RMS=  4.4091769D-06 Max=  1.9488050D-05 conv= 1.00D-05.
 RLE energy=       -0.3303274839
 DE(Corr)= -0.33032552     E(CORR)=     -92.551720954     Delta=-4.52D-06
 NORM(A)=   0.10931969D+01
 Iteration Nr.  14
 **********************
 DD1Dir will call FoFMem   1 times, MxPair=        56
 NAB=    20 NAA=    10 NBB=     6.
 A-vector RMS=  1.8579591D-06 Max=  9.6141650D-06 conv= 1.00D-05.
 RLE energy=       -0.3303258305
 DE(Corr)= -0.33032550     E(CORR)=     -92.551720926     Delta= 2.80D-08
 NORM(A)=   0.10932016D+01
 CI/CC converged in   14 iterations to DelEn= 2.80D-08 Conv= 1.00D-07 ErrA1= 1.86D-06 Conv= 1.00D-05
 Wavefunction amplitudes converged. E(Corr)=     -92.551720926    
 Dominant configurations:
 ***********************
 Spin Case        I    J    A    B          Value
    BB            4         7           -0.204601D+00
 Largest amplitude= 2.05D-01
 Time for triples=       98.53 seconds.
 T4(CCSD)= -0.23213525D-01
 T5(CCSD)=  0.34423571D-02
 CCSD(T)= -0.92571492094D+02
 Discarding MO integrals.
 Leave Link  913 at Fri Oct  2 14:53:08 2020, MaxMem=   327680000 cpu:             230.7 elap:              30.6
 (Enter /applis/site/cecic/gaussian16/B.01/nehalem/g16/l601.exe)
 Copying SCF densities to generalized density rwf, IOpCl= 0 IROHF=1.

 **********************************************************************

            Population analysis using the SCF Density.

 **********************************************************************

 Orbital symmetries:
       Occupied  (SG) (SG) (SG) (SG) (PI) (PI) (SG)
       Virtual   (SG) (SG) (PI) (PI) (PI) (PI) (SG) (PI) (PI) (SG)
                 (DLTA) (DLTA) (SG) (PI) (PI) (PI) (PI) (SG) (SG)
                 (DLTA) (DLTA) (PI) (PI) (SG) (SG) (DLTA) (DLTA)
                 (PI) (PI) (PHI) (PHI) (PI) (PI) (SG) (DLTA) (DLTA)
                 (SG) (SG) (PI) (PI) (PHI) (PHI) (DLTA) (DLTA)
                 (PI) (PI) (SG) (PI) (PI) (DLTA) (DLTA) (SG) (SG)
                 (PI) (PI) (SG) (DLTA) (DLTA) (PHI) (PHI) (PI)
                 (PI) (DLTA) (DLTA) (SG) (PI) (PI) (SG) (PI) (PI)
                 (SG) (PHI) (PHI) (DLTA) (DLTA) (DLTA) (DLTA) (PI)
                 (PI) (SG) (PI) (PI) (SG) (SG) (SG)
 The electronic state is 2-SG.
 Alpha  occ. eigenvalues --  -15.62621 -11.36394  -1.27655  -0.72653  -0.58948
 Alpha  occ. eigenvalues --   -0.52871  -0.52871
 Alpha virt. eigenvalues --    0.06719   0.07319   0.07391   0.07391   0.13521
 Alpha virt. eigenvalues --    0.13521   0.15598   0.18792   0.18792   0.25533
 Alpha virt. eigenvalues --    0.29176   0.29176   0.35499   0.40064   0.40064
 Alpha virt. eigenvalues --    0.46787   0.46824   0.46824   0.53860   0.55670
 Alpha virt. eigenvalues --    0.55670   0.66272   0.66272   0.70596   0.93948
 Alpha virt. eigenvalues --    1.00561   1.00561   1.01906   1.01906   1.07006
 Alpha virt. eigenvalues --    1.07006   1.10255   1.10255   1.12419   1.20581
 Alpha virt. eigenvalues --    1.20581   1.23895   1.34913   1.43718   1.43718
 Alpha virt. eigenvalues --    1.64380   1.64380   1.66832   1.66832   1.86649
 Alpha virt. eigenvalues --    1.86649   1.87432   2.10749   2.10749   2.11392
 Alpha virt. eigenvalues --    2.11392   2.22254   2.50836   2.77629   2.77629
 Alpha virt. eigenvalues --    3.28180   3.35812   3.35812   3.41348   3.41348
 Alpha virt. eigenvalues --    3.41497   3.41497   3.55933   3.55933   3.62295
 Alpha virt. eigenvalues --    3.66184   3.66184   3.67972   4.46537   4.46537
 Alpha virt. eigenvalues --    4.60586   4.95424   4.95424   5.16701   5.16701
 Alpha virt. eigenvalues --    5.36595   5.36595   5.53309   5.53309   5.98535
 Alpha virt. eigenvalues --    6.02747   6.02747   6.15839  11.14964  16.06374
          Condensed to atoms (all electrons):
               1          2
     1  C    5.128603   0.709883
     2  N    0.709883   6.451630
          Atomic-Atomic Spin Densities.
               1          2
     1  C    0.834414   0.040799
     2  N    0.040799   0.083988
 Mulliken charges and spin densities:
               1          2
     1  C    0.161513   0.875213
     2  N   -0.161513   0.124787
 Sum of Mulliken charges =  -0.00000   1.00000
 Mulliken charges and spin densities with hydrogens summed into heavy atoms:
               1          2
     1  C    0.161513   0.875213
     2  N   -0.161513   0.124787
 Electronic spatial extent (au):  <R**2>=             39.4377
 Charge=             -0.0000 electrons
 Dipole moment (field-independent basis, Debye):
    X=              0.0000    Y=             -0.0000    Z=             -2.3117  Tot=              2.3117
 Quadrupole moment (field-independent basis, Debye-Ang):
   XX=            -11.1174   YY=            -11.1174   ZZ=            -10.1767
   XY=              0.0000   XZ=              0.0000   YZ=              0.0000
 Traceless Quadrupole moment (field-independent basis, Debye-Ang):
   XX=             -0.3136   YY=             -0.3136   ZZ=              0.6272
   XY=              0.0000   XZ=              0.0000   YZ=              0.0000
 Octapole moment (field-independent basis, Debye-Ang**2):
  XXX=              0.0000  YYY=             -0.0000  ZZZ=             -2.0634  XYY=              0.0000
  XXY=             -0.0000  XXZ=             -0.1546  XZZ=              0.0000  YZZ=             -0.0000
  YYZ=             -0.1546  XYZ=              0.0000
 Hexadecapole moment (field-independent basis, Debye-Ang**3):
 XXXX=            -11.5211 YYYY=            -11.5211 ZZZZ=            -32.2572 XXXY=              0.0000
 XXXZ=              0.0000 YYYX=              0.0000 YYYZ=              0.0000 ZZZX=              0.0000
 ZZZY=              0.0000 XXYY=             -3.8404 XXZZ=             -7.0145 YYZZ=             -7.0145
 XXYZ=              0.0000 YYXZ=              0.0000 ZZXY=              0.0000
 N-N= 1.927444890283D+01 E-N=-2.545937233580D+02  KE= 9.205122830239D+01
                          Isotropic Fermi Contact Couplings
        Atom                 a.u.       MegaHertz       Gauss      10(-4) cm-1
     1  C(13)              0.83713     941.09631     335.80656     313.91594
     2  N(14)              0.04351      14.05676       5.01580       4.68883
 --------------------------------------------------------
       Center         ----  Spin Dipole Couplings  ----
                      3XX-RR        3YY-RR        3ZZ-RR
 --------------------------------------------------------
     1   Atom       -0.456357     -0.456357      0.912713
     2   Atom       -0.195714     -0.195714      0.391428
 --------------------------------------------------------
                        XY            XZ            YZ
 --------------------------------------------------------
     1   Atom        0.000000      0.000000      0.000000
     2   Atom        0.000000      0.000000      0.000000
 --------------------------------------------------------


 ---------------------------------------------------------------------------------
              Anisotropic Spin Dipole Couplings in Principal Axis System
 ---------------------------------------------------------------------------------

       Atom             a.u.   MegaHertz   Gauss  10(-4) cm-1        Axes

              Baa    -0.4564   -61.239   -21.851   -20.427  1.0000  0.0000  0.0000
     1 C(13)  Bbb    -0.4564   -61.239   -21.851   -20.427 -0.0000  1.0000  0.0000
              Bcc     0.9127   122.477    43.703    40.854  0.0000  0.0000  1.0000
 
              Baa    -0.1957    -7.548    -2.693    -2.518  1.0000  0.0000  0.0000
     2 N(14)  Bbb    -0.1957    -7.548    -2.693    -2.518 -0.0000  1.0000  0.0000
              Bcc     0.3914    15.096     5.387     5.036  0.0000  0.0000  1.0000
 

 ---------------------------------------------------------------------------------

 No NMR shielding tensors so no spin-rotation constants.
 Leave Link  601 at Fri Oct  2 14:53:08 2020, MaxMem=   327680000 cpu:               1.8 elap:               0.3
 (Enter /applis/site/cecic/gaussian16/B.01/nehalem/g16/l9999.exe)
 1\1\GINC-DAHU123\SP\ROCCSD(T)-FC\Aug-CC-pVTZ\C1N1(2)\TINACCIL\02-Oct-2
 020\0\\#P ROCCSD(T)/aug-cc-pvtz geom=allcheck guess=read\\Title\\0,2\C
 ,0,0.,0.,0.0215630329\N,0,0.,0.,1.1746669671\\Version=ES64L-G16RevB.01
 \State=2-SG\HF=-92.2213954\MP2=-92.5449329\MP3=-92.5404112\PUHF=-92.22
 13954\PMP2-0=-92.5449329\MP4SDQ=-92.5498653\CCSD=-92.5517209\CCSD(T)=-
 92.5714921\RMSD=5.784e-09\PG=C*V [C*(C1N1)]\\@


 A politician is a person who can make waves and then
 make you think he's the only one who can save the ship.
 -- Ivern Ball
 Job cpu time:       0 days  0 hours  4 minutes 23.4 seconds.
 Elapsed time:       0 days  0 hours  0 minutes 35.5 seconds.
 File lengths (MBytes):  RWF=    327 Int=      0 D2E=      0 Chk=      2 Scr=      1
 Normal termination of Gaussian 16 at Fri Oct  2 14:53:08 2020.
