2
 energy: -4.428374815809 gnorm: 0.000563490412 xtb: 6.2.2 (9d81278992624c895f80dd42a50cac0aa55982e2)
O         0.48189265513171   -0.00000252318404   -0.00000168212269
H        -0.48189265513171    0.00000252318404    0.00000168212269
