[Molden Format]
[Title]
[Atoms] AU
N      1     7 -0.30055005290884E-02 -0.17861280340808E-01  0.51953750416380E+00
H      2     1  0.17556948147300E+01 -0.31425412952301E+00 -0.17403524616108E+00
H      3     1 -0.11535089842947E+01 -0.13526235306111E+01 -0.22656580309521E+00
H      4     1 -0.59917844018028E+00  0.16847389404650E+01 -0.11893645491411E+00
[GTO]
           1 0
 s           4   1.0000000000000000     
   63.594024466941008      -0.19234388414721629     
   10.951417231523665      -0.23478107924953728     
  0.87999310257376984       0.37593753901700888     
  0.33538715296521110       0.14982889271862770     
 p           4   1.0000000000000000     
   7.2965040481495080       0.97658666315667420     
   1.8918745450712575       0.90372226730345739     
  0.66694432110824120       0.47404958461536373     
  0.26552202674130870        7.1516067715011844E-002

           2 0
 s           3   1.0000000000000000     
   3.3702276975336001       0.27359110588908298     
  0.61389118221497996       0.26460540653860526     
  0.16614291148415999        8.2465947534082318E-002

           3 0
 s           3   1.0000000000000000     
   3.3702276975336001       0.27359110588908298     
  0.61389118221497996       0.26460540653860526     
  0.16614291148415999        8.2465947534082318E-002

           4 0
 s           3   1.0000000000000000     
   3.3702276975336001       0.27359110588908298     
  0.61389118221497996       0.26460540653860526     
  0.16614291148415999        8.2465947534082318E-002

[MO]
Sym=     1a
Ene=  -0.59483071277651289     
Spin= Alpha
Occup=     2.00000000
           1 -0.60438797030295022     
           2  -8.3830650643705465E-004
           3  -4.9811834866837663E-003
           4  0.14488956225200247     
           5 -0.22996631856893363     
           6 -0.22996632697594832     
           7 -0.22996632151305529     
Sym=     2a
Ene=  -0.50106394686231059     
Spin= Alpha
Occup=     2.00000000
           1   6.6802842224247793E-009
           2  0.37022656333970433     
           3  0.51970439279340241     
           4   2.0009093955625036E-002
           5  0.19409064216992419     
           6 -0.45572347204031621     
           7  0.26163283277728555     
Sym=     3a
Ene=  -0.50106394633038942     
Spin= Alpha
Occup=     2.00000000
           1   3.4576135572200815E-009
           2  0.52007633503441142     
           3 -0.37011748099638908     
           4  -9.7152509464058841E-003
           5  0.41416585434861919     
           6  -3.8995501139920355E-002
           7 -0.37517035232545842     
Sym=     4a
Ene=  -0.38597749701819861     
Spin= Alpha
Occup=     2.00000000
           1 -0.45424654825561461     
           2   5.1217988351783018E-003
           3   3.0433364334861695E-002
           4 -0.88522628056566222     
           5  0.10182704311270027     
           6  0.10182704649295446     
           7  0.10182704427488551     
Sym=     5a
Ene=    6.3595705442720460E-002
Spin= Alpha
Occup=     0.00000000
           1   1.0495435251518634     
           2   3.0676640958633684E-003
           3   1.8227896132991035E-002
           4 -0.53020148267992706     
           5 -0.58906814538615804     
           6 -0.58906815759221010     
           7 -0.58906815247485333     
Sym=     6a
Ene=   0.21500771516194306     
Spin= Alpha
Occup=     0.00000000
           1  -3.0688988600975166E-009
           2 -0.20104409777015442     
           3 -0.98793936364701707     
           4  -3.5127769952058102E-002
           5   2.0239733544623915E-002
           6 -0.87654370162406614     
           7  0.85630397418774595     
Sym=     7a
Ene=   0.21500771674964206     
Spin= Alpha
Occup=     0.00000000
           1  -7.6874186154506013E-009
           2 -0.98854646783175726     
           3  0.20112515362886968     
           4   1.1949281855626907E-003
           5   1.0004600770287624     
           6 -0.48270191022934356     
           7 -0.51775815352436583     
