 Entering Gaussian System
 *********************************************
 Gaussian 98:
 frequency output generated by the xtb code
 *********************************************
                         Standard orientation:
 --------------------------------------------------------------------
  Center     Atomic     Atomic              Coordinates (Angstroms)
  Number     Number      Type              X           Y           Z
 --------------------------------------------------------------------
    1          7             0       -0.001590   -0.009452    0.274927
    2          1             0        0.929074   -0.166296   -0.092095
    3          1             0       -0.610411   -0.715778   -0.119893
    4          1             0       -0.317072    0.891526   -0.062938
 --------------------------------------------------------------------
     1 basis functions        1 primitive gaussians
     1 alpha electrons        1 beta electrons

 Harmonic frequencies (cm**-1), IR intensities (KM/Mole),
 Raman scattering activities (A**4/amu), Raman depolarization ratios,
 reduced masses (AMU), force constants (mDyne/A) and normal coordinates:
                      1                      2                      3
                        a                      a                      a 
 Frequencies --  1160.3021              1592.5356              1592.7789
 Red. masses --     3.1011                 1.8306                 1.8306
 Frc consts  --     0.0000                 0.0000                 0.0000
 IR Inten    --     0.6747                 0.2200                 0.2202
 Raman Activ --     0.0000                 0.0000                 0.0000
 Depolar     --     0.0000                 0.0000                 0.0000
 Atom AN      X      Y      Z        X      Y      Z        X      Y      Z
   1   7     0.00   0.01  -0.40    -0.21   0.15   0.00    -0.15  -0.21  -0.01
   2   1     0.17  -0.05   0.50    -0.16  -0.28  -0.23     0.07   0.67  -0.08
   3   1    -0.12  -0.15   0.49     0.56  -0.49   0.01    -0.13  -0.06   0.24
   4   1    -0.06   0.15   0.50     0.37   0.23   0.21     0.60   0.15  -0.13
                      4                      5                      6
                        a                      a                      a 
 Frequencies --  3424.9877              3476.9662              3477.2106
 Red. masses --     1.2227                 2.0340                 2.0340
 Frc consts  --     0.0000                 0.0000                 0.0000
 IR Inten    --     0.0805                 0.0171                 0.0170
 Raman Activ --     0.0000                 0.0000                 0.0000
 Depolar     --     0.0000                 0.0000                 0.0000
 Atom AN      X      Y      Z        X      Y      Z        X      Y      Z
   1   7     0.00   0.00  -0.13     0.13   0.25   0.01     0.25  -0.13  -0.00
   2   1    -0.54   0.09   0.16    -0.21   0.07   0.08    -0.69   0.11   0.26
   3   1     0.36   0.41   0.18    -0.47  -0.53  -0.29    -0.08  -0.15  -0.07
   4   1     0.18  -0.52   0.14     0.19  -0.47   0.17    -0.16   0.52  -0.18
