4
 energy: -4.424195410516 gnorm: 0.044882636457 xtb: 6.2.2 (9d81278992624c895f80dd42a50cac0aa55982e2)
N        -0.00170600000000   -0.01013400000000    0.29474600000000
H         0.95241400000000   -0.17031600000000   -0.09871000000000
H        -0.62569900000000   -0.73359400000000   -0.12721200000000
H        -0.32500800000000    0.91404400000000   -0.06882400000000
4
 energy: -4.426047257585 gnorm: 0.013226869894 xtb: 6.2.2 (9d81278992624c895f80dd42a50cac0aa55982e2)
N        -0.00168817114799   -0.01002755632517    0.29165622519785
H         0.92904026753915   -0.16608712147911   -0.09766876896943
H        -0.61033022119151   -0.71553693679929   -0.12547106360525
H        -0.31702087519965    0.89165161460357   -0.06851639262317
4
 energy: -4.426235256383 gnorm: 0.001589896883 xtb: 6.2.2 (9d81278992624c895f80dd42a50cac0aa55982e2)
N        -0.00161413480746   -0.00958755542376    0.27886253614664
H         0.92683846009526   -0.16583648854591   -0.09340316303436
H        -0.60892247494830   -0.71399800069497   -0.12114027723252
H        -0.31630085033949    0.88942204466464   -0.06431909587976
4
 energy: -4.426243365632 gnorm: 0.000462553181 xtb: 6.2.2 (9d81278992624c895f80dd42a50cac0aa55982e2)
N        -0.00158562101408   -0.00941820577815    0.27393687657036
H         0.92972864493942   -0.16642211802878   -0.09176268311700
H        -0.61083980472965   -0.71629955828821   -0.11958662315646
H        -0.31730221919569    0.89213988209513   -0.06258757029689
4
 energy: -4.426244035614 gnorm: 0.000038667259 xtb: 6.2.2 (9d81278992624c895f80dd42a50cac0aa55982e2)
N        -0.00159135272324   -0.00945227155712    0.27492741087054
H         0.92907496363512   -0.16629111385195   -0.09209254185697
H        -0.61040655737239   -0.71578060057518   -0.11989685088620
H        -0.31707605353949    0.89152398598425   -0.06293801812737
