$hessian                                                                        
        0.5909725347  -0.0000744893   0.0021452707  -0.3360039459   0.0468392347
        0.1507994381  -0.1721817061  -0.1410742953  -0.1045824998  -0.0827868827
        0.0943095499  -0.0483622091
       -0.0000744893   0.5904995135   0.0128164975   0.0485534918  -0.0579146726
       -0.0267159233  -0.1419352289  -0.2138062814  -0.1223554484   0.0934562265
       -0.3187785595   0.1362548743
        0.0021452707   0.0128164975   0.2181060779   0.1028726419  -0.0179683796
       -0.0726500449  -0.0730422545  -0.0852090405  -0.0804858004  -0.0319756580
        0.0903609227  -0.0649702326
       -0.3360039459   0.0485534918   0.1028726419   0.3775348997  -0.0547245246
       -0.1220374986  -0.0267176936   0.0027689154   0.0115507295  -0.0148132601
        0.0034021174   0.0076141271
        0.0468392347  -0.0579146726  -0.0179683796  -0.0547245246   0.0631876098
        0.0219138625  -0.0273101825   0.0030221583   0.0090773334   0.0351954723
       -0.0082950955  -0.0130228163
        0.1507994381  -0.0267159233  -0.0726500449  -0.1220374986   0.0219138625
        0.0639569052  -0.0159991324  -0.0002147874   0.0046376761  -0.0127628072
        0.0050168482   0.0040554635
       -0.1721817061  -0.1419352289  -0.0730422545  -0.0267176936  -0.0273101825
       -0.0159991324   0.1924774247   0.1607861072   0.0865113760   0.0064219750
        0.0084593041   0.0025300109
       -0.1410742953  -0.2138062814  -0.0852090405   0.0027689154   0.0030221583
       -0.0002147874   0.1607861072   0.2405764685   0.1014286709  -0.0224807274
       -0.0297923453  -0.0160048430
       -0.1045824998  -0.1223554484  -0.0804858004   0.0115507295   0.0090773334
        0.0046376761   0.0865113760   0.1014286709   0.0715430182   0.0065203942
        0.0118494441   0.0043051061
       -0.0827868827   0.0934562265  -0.0319756580  -0.0148132601   0.0351954723
       -0.0127628072   0.0064219750  -0.0224807274   0.0065203942   0.0911781679
       -0.1061709714   0.0382180710
        0.0943095499  -0.3187785595   0.0903609227   0.0034021174  -0.0082950955
        0.0050168482   0.0084593041  -0.0297923453   0.0118494441  -0.1061709714
        0.3568660003  -0.1072272150
       -0.0483622091   0.1362548743  -0.0649702326   0.0076141271  -0.0130228163
        0.0040554635   0.0025300109  -0.0160048430   0.0043051061   0.0382180710
       -0.1072272150   0.0566096630
