4
 energy: -4.426244035643 gnorm: 0.000038661543 xtb: 6.2.2 (9d81278992624c895f80dd42a50cac0aa55982e2)
N        -0.00159044253491   -0.00945178339084    0.27492743292064
H         0.92907377145505   -0.16629613920467   -0.09209549470695
H        -0.61041072369446   -0.71577761374031   -0.11989347089162
H        -0.31707160522567    0.89152553633059   -0.06293846732556
