3
 energy: -5.367670148593 gnorm: 0.303280898737 xtb: 6.2.2 (9d81278992624c895f80dd42a50cac0aa55982e2)
C         1.10774500000000   -0.15324400000000    0.00000000000000
N        -0.20495600000000    0.46515800000000    0.00000000000000
H        -0.90278900000000   -0.31191400000000    0.00000000000000
3
 energy: -5.437178853934 gnorm: 0.140978217410 xtb: 6.2.2 (9d81278992624c895f80dd42a50cac0aa55982e2)
C         1.01186091822098   -0.10682466258816    0.00000000000000
N        -0.12515020704043    0.39848483287668    0.00000000000000
H        -0.88671071118055   -0.29166017028852    0.00000000000000
3
 energy: -5.436672598385 gnorm: 0.389817070612 xtb: 6.2.2 (9d81278992624c895f80dd42a50cac0aa55982e2)
C         0.99667827571833   -0.02945394853965    0.00000000000000
N        -0.04196554113960    0.26474938845973   -0.00000000000000
H        -0.95471273457873   -0.23529543992008    0.00000000000000
3
 energy: -5.462633942365 gnorm: 0.054119516086 xtb: 6.2.2 (9d81278992624c895f80dd42a50cac0aa55982e2)
C         1.08084900037586   -0.01954577147131    0.00000000000000
N        -0.06788644358284    0.22647695723924   -0.00000000000000
H        -1.01296255679302   -0.20693118576793    0.00000000000000
3
 energy: -5.466806813730 gnorm: 0.048996983582 xtb: 6.2.2 (9d81278992624c895f80dd42a50cac0aa55982e2)
C         1.10356668568937    0.00653112787726    0.00000000000000
N        -0.06208225325742    0.16297522567648   -0.00000000000000
H        -1.04148443243195   -0.16950635355374    0.00000000000000
3
 energy: -5.470610926080 gnorm: 0.045843919544 xtb: 6.2.2 (9d81278992624c895f80dd42a50cac0aa55982e2)
C         1.10467179623803    0.03181000130443    0.00000000000000
N        -0.06726919896884    0.08461934841915   -0.00000000000000
H        -1.03740259726919   -0.11642934972358    0.00000000000000
3
 energy: -5.471608872827 gnorm: 0.031249153695 xtb: 6.2.2 (9d81278992624c895f80dd42a50cac0aa55982e2)
C         1.11497751904580    0.05847645330116    0.00000000000000
N        -0.05424725329622    0.02463420871784   -0.00000000000000
H        -1.06073026574958   -0.08311066201900    0.00000000000000
3
 energy: -5.472121398488 gnorm: 0.004253851099 xtb: 6.2.2 (9d81278992624c895f80dd42a50cac0aa55982e2)
C         1.10284323580201    0.06199526028277    0.00000000000000
N        -0.05373250055644    0.01231030334614   -0.00000000000000
H        -1.04911073524557   -0.07430556362891    0.00000000000000
3
 energy: -5.472157242603 gnorm: 0.001615026965 xtb: 6.2.2 (9d81278992624c895f80dd42a50cac0aa55982e2)
C         1.10302345028155    0.06637170563480    0.00000000000000
N        -0.05332247263078    0.00019884354462   -0.00000000000000
H        -1.04970097765078   -0.06657054917942    0.00000000000000
3
 energy: -5.472159332275 gnorm: 0.000749444293 xtb: 6.2.2 (9d81278992624c895f80dd42a50cac0aa55982e2)
C         1.10263563285041    0.06800110016322    0.00000000000000
N        -0.05360296321351   -0.00489614260350   -0.00000000000000
H        -1.04903266963690   -0.06310495755972    0.00000000000000
