$hessian                                                                        
        1.2046952525   0.0751785925  -0.0000020715  -1.1752213085  -0.0726068059
        0.0000039663  -0.0295342973  -0.0028065019  -0.0000001107
        0.0751785925   0.0124523212  -0.0000001298  -0.0728370907  -0.0211608357
        0.0000002492  -0.0023453208   0.0086997520  -0.0000000074
       -0.0000020715  -0.0000001298   0.0076827155   0.0000020003   0.0000001248
       -0.0165321421   0.0000000714   0.0000000060   0.0088672115
       -1.1752213085  -0.0728370907   0.0000020003   1.5898028656   0.0957228628
       -0.0000054403  -0.4145165545  -0.0226735171   0.0000008518
       -0.0726068059  -0.0211608357   0.0000001248   0.0957228628   0.0414695190
       -0.0000003345  -0.0231118865  -0.0203033064   0.0000000511
        0.0000039663   0.0000002492  -0.0165321421  -0.0000054403  -0.0000003345
        0.0355018478   0.0000014738   0.0000000843  -0.0189813129
       -0.0295342973  -0.0023453208   0.0000000714  -0.4145165545  -0.0231118865
        0.0000014738   0.4440462027   0.0254796674  -0.0000007411
       -0.0028065019   0.0086997520   0.0000000060  -0.0226735171  -0.0203033064
        0.0000000843   0.0254796674   0.0116069400  -0.0000000437
       -0.0000001107  -0.0000000074   0.0088672115   0.0000008518   0.0000000511
       -0.0189813129  -0.0000007411  -0.0000000437   0.0101079238
