[Molden Format]
[Title]
[Atoms] AU
C      1     6  0.20836798408176E+01  0.12849253343863E+00 -0.74976932264023E-05
N      2     7 -0.10129495898701E+00 -0.92518373502464E-02  0.36973436848023E-06
H      3     1 -0.19823848818306E+01 -0.11924069608838E+00  0.71279588574850E-05
[GTO]
           1 0
 s           4   1.0000000000000000     
   51.049363095579913      -0.16312063210127389     
   8.7911227406887544      -0.19911024581000730     
  0.70640422258929825       0.31882047753655751     
  0.26922813413411617       0.12706504184240380     
 p           4   1.0000000000000000     
   5.8263656140800002       0.73716451545209605     
   1.5106896018720002       0.68216371614850257     
  0.53256483288000001       0.35783053929253711     
  0.21202323690600003        5.3983030275847881E-002

           2 0
 s           4   1.0000000000000000     
   63.594024466941008      -0.19234388414721629     
   10.951417231523665      -0.23478107924953728     
  0.87999310257376984       0.37593753901700888     
  0.33538715296521110       0.14982889271862770     
 p           4   1.0000000000000000     
   7.2965040481495080       0.97658666315667420     
   1.8918745450712575       0.90372226730345739     
  0.66694432110824120       0.47404958461536373     
  0.26552202674130870        7.1516067715011844E-002

           3 0
 s           3   1.0000000000000000     
   3.3702276975336001       0.27359110588908298     
  0.61389118221497996       0.26460540653860526     
  0.16614291148415999        8.2465947534082318E-002

[MO]
Sym=     1a
Ene=  -0.66438651930260517     
Spin= Alpha
Occup=     2.00000000
           1 -0.45771793062163435     
           2  0.18951792307487597     
           3   1.1884593218847992E-002
           4  -6.8637357658190928E-007
           5 -0.56629816212065065     
           6 -0.17595225780245607     
           7  -1.1299268511871139E-002
           8   6.2717561343109091E-007
           9  -9.9344530414268467E-002
Sym=     2a
Ene=  -0.58865910237107366     
Spin= Alpha
Occup=     2.00000000
           1 -0.37169765991541914     
           2  -2.8569263110747759E-002
           3  -1.3387272607903729E-003
           4   9.9056801593291871E-008
           5  0.36028914517795335     
           6 -0.48052467289354517     
           7  -2.8844510068362490E-002
           8   1.7249976820687220E-006
           9  0.40595638057448002     
Sym=     3a
Ene=  -0.49999979207415091     
Spin= Alpha
Occup=     2.00000000
           1   1.9764629681713239E-003
           2  -2.8601483981964958E-002
           3  0.47368236872141956     
           4   3.0812254212881162E-006
           5  -2.2161000929697507E-003
           6  -4.6961771132572327E-002
           7  0.76380396548934837     
           8   4.9717649304814595E-006
           9   7.7190566021564759E-004
Sym=     4a
Ene=  -0.49999950074250743     
Spin= Alpha
Occup=     2.00000000
           1   2.5124691269645493E-008
           2  -1.8852820327706895E-006
           3   2.9729751438087093E-006
           4 -0.47454722640969682     
           5  -1.6237424068668317E-008
           6  -3.0458020601708232E-006
           7   4.7938393425831148E-006
           8 -0.76524988243641900     
           9   7.1101217918405345E-009
Sym=     5a
Ene=  -0.43645066910382635     
Spin= Alpha
Occup=     2.00000000
           1  0.66016451038340140     
           2  0.63443535815077223     
           3   3.8258272373675045E-002
           4  -2.2771979935539822E-006
           5 -0.16838845605008718     
           6 -0.25110719477924665     
           7  -1.7366338859435365E-002
           8   9.0902913663818895E-007
           9  0.26626187324352468     
Sym=     6a
Ene=  -0.22336667716342765     
Spin= Alpha
Occup=     0.00000000
           1   3.2188290331678081E-004
           2  -5.6552091041506922E-002
           3  0.91891364999610736     
           4  -1.3109530184636763E-006
           5   2.6855866716438059E-003
           6   4.1740086789326121E-002
           7 -0.69673362399063588     
           8   9.9796756915638622E-007
           9  -2.4869012626545766E-003
Sym=     7a
Ene=  -0.22336491245764700     
Spin= Alpha
Occup=     0.00000000
           1  -1.7469578784052324E-009
           2   3.2177474393138146E-006
           3   1.5114689003278599E-006
           4  0.92065393443654830     
           5  -8.7502382487861933E-010
           6  -2.4397980710049147E-006
           7  -1.1459339131422778E-006
           8 -0.69799094156241526     
           9   1.8134248563205011E-009
Sym=     8a
Ene=    5.3392743627046560E-002
Spin= Alpha
Occup=     0.00000000
           1 -0.12490496084791435     
           2  0.43905489310814233     
           3   2.5322596681753927E-002
           4  -1.5757675487234691E-006
           5  0.97403573181374781     
           6 -0.43800907582714144     
           7  -2.2802029045342908E-002
           8   1.5670977230662440E-006
           9  -1.0515323324049997     
Sym=     9a
Ene=    1.0151465037942455     
Spin= Alpha
Occup=     0.00000000
           1 -0.92178727164286667     
           2   1.0352005409621465     
           3   6.5624654363844376E-002
           4  -3.7284625255871724E-006
           5  0.62590031138790081     
           6   1.2598394771671120     
           7   7.7873499546157202E-002
           8  -4.5337660291458582E-006
           9  0.57037730482381910     
