 Entering Gaussian System, Link 0=g16
 Initial command:
 /applis/site/cecic/gaussian16/B.01/nehalem/g16/l1.exe "/bettik/tinaccil/g16/12212906_C5H6_1Ap/Gau-35145.inp" -scrdir="/bettik/tinaccil/g16/12212906_C5H6_1Ap/"
 Entering Link 1 = /applis/site/cecic/gaussian16/B.01/nehalem/g16/l1.exe PID=     35147.
  
 Copyright (c) 1988-2017, Gaussian, Inc.  All Rights Reserved.
  
 This is part of the Gaussian(R) 16 program.  It is based on
 the Gaussian(R) 09 system (copyright 2009, Gaussian, Inc.),
 the Gaussian(R) 03 system (copyright 2003, Gaussian, Inc.),
 the Gaussian(R) 98 system (copyright 1998, Gaussian, Inc.),
 the Gaussian(R) 94 system (copyright 1995, Gaussian, Inc.),
 the Gaussian 92(TM) system (copyright 1992, Gaussian, Inc.),
 the Gaussian 90(TM) system (copyright 1990, Gaussian, Inc.),
 the Gaussian 88(TM) system (copyright 1988, Gaussian, Inc.),
 the Gaussian 86(TM) system (copyright 1986, Carnegie Mellon
 University), and the Gaussian 82(TM) system (copyright 1983,
 Carnegie Mellon University). Gaussian is a federally registered
 trademark of Gaussian, Inc.
  
 This software contains proprietary and confidential information,
 including trade secrets, belonging to Gaussian, Inc.
  
 This software is provided under written license and may be
 used, copied, transmitted, or stored only in accord with that
 written license.
  
 The following legend is applicable only to US Government
 contracts under FAR:
  
                    RESTRICTED RIGHTS LEGEND
  
 Use, reproduction and disclosure by the US Government is
 subject to restrictions as set forth in subparagraphs (a)
 and (c) of the Commercial Computer Software - Restricted
 Rights clause in FAR 52.227-19.
  
 Gaussian, Inc.
 340 Quinnipiac St., Bldg. 40, Wallingford CT 06492
  
  
 ---------------------------------------------------------------
 Warning -- This program may not be used in any manner that
 competes with the business of Gaussian, Inc. or will provide
 assistance to any competitor of Gaussian, Inc.  The licensee
 of this program is prohibited from giving any competitor of
 Gaussian, Inc. access to this program.  By using this program,
 the user acknowledges that Gaussian, Inc. is engaged in the
 business of creating and licensing software in the field of
 computational chemistry and represents and warrants to the
 licensee that it is not a competitor of Gaussian, Inc. and that
 it will not use this program in any manner prohibited above.
 ---------------------------------------------------------------
  

 Cite this work as:
 Gaussian 16, Revision B.01,
 M. J. Frisch, G. W. Trucks, H. B. Schlegel, G. E. Scuseria, 
 M. A. Robb, J. R. Cheeseman, G. Scalmani, V. Barone, 
 G. A. Petersson, H. Nakatsuji, X. Li, M. Caricato, A. V. Marenich, 
 J. Bloino, B. G. Janesko, R. Gomperts, B. Mennucci, H. P. Hratchian, 
 J. V. Ortiz, A. F. Izmaylov, J. L. Sonnenberg, D. Williams-Young, 
 F. Ding, F. Lipparini, F. Egidi, J. Goings, B. Peng, A. Petrone, 
 T. Henderson, D. Ranasinghe, V. G. Zakrzewski, J. Gao, N. Rega, 
 G. Zheng, W. Liang, M. Hada, M. Ehara, K. Toyota, R. Fukuda, 
 J. Hasegawa, M. Ishida, T. Nakajima, Y. Honda, O. Kitao, H. Nakai, 
 T. Vreven, K. Throssell, J. A. Montgomery, Jr., J. E. Peralta, 
 F. Ogliaro, M. J. Bearpark, J. J. Heyd, E. N. Brothers, K. N. Kudin, 
 V. N. Staroverov, T. A. Keith, R. Kobayashi, J. Normand, 
 K. Raghavachari, A. P. Rendell, J. C. Burant, S. S. Iyengar, 
 J. Tomasi, M. Cossi, J. M. Millam, M. Klene, C. Adamo, R. Cammi, 
 J. W. Ochterski, R. L. Martin, K. Morokuma, O. Farkas, 
 J. B. Foresman, and D. J. Fox, Gaussian, Inc., Wallingford CT, 2016.
 
 ******************************************
 Gaussian 16:  ES64L-G16RevB.01 20-Dec-2017
                26-Sep-2020 
 ******************************************
 %nosave
 %nproc=8
 Will use up to    8 processors via shared memory.
 %mem=2gb
 %chk=input
 --------------------------------------------------------
 #P M062X/cc-pvtz nosymm opt(noeigentest) optcyc=120 freq
 --------------------------------------------------------
 1/6=120,11=1,18=20,19=15,26=3,38=1/1,3;
 2/9=110,12=2,15=1,17=6,18=5,40=1/2;
 3/5=16,6=1,11=2,25=1,30=1,71=1,74=-55/1,2,3;
 4//1;
 5/5=2,38=5/2;
 6/7=2,8=2,9=2,10=2,28=1/1;
 7/30=1/1,2,3,16;
 1/6=120,11=1,18=20,19=15,26=3/3(2);
 2/9=110,15=1/2;
 99//99;
 2/9=110,15=1/2;
 3/5=16,6=1,11=2,25=1,30=1,71=1,74=-55/1,2,3;
 4/5=5,16=3,69=1/1;
 5/5=2,38=5/2;
 7/30=1/1,2,3,16;
 1/6=120,11=1,18=20,19=15,26=3/3(-5);
 2/9=110,15=1/2;
 6/7=2,8=2,9=2,10=2,19=2,28=1/1;
 99/9=1/99;
 Leave Link    1 at Sat Sep 26 00:09:55 2020, MaxMem=   268435456 cpu:               0.6 elap:               0.2
 (Enter /applis/site/cecic/gaussian16/B.01/nehalem/g16/l101.exe)
 -----
 Title
 -----
 Symbolic Z-matrix:
 Charge =  0 Multiplicity = 1
 C
 H                    1    B1
 H                    1    B2       2    A2
 H                    1    B3       2    A3       3    D3       0
 C                    1    B4       2    A4       3    D4       0
 H                    5    B5       1    A5       2    D5       0
 C                    5    B6       1    A6       2    D6       0
 H                    7    B7       5    A7       1    D7       0
 C                    7    B8       5    A8       1    D8       0
 C                    2    B9       1    A9       3    D9       0
 H                    2    B10      1    A10      3    D10      0
       Variables:
  B1                    1.10207                  
  B2                    1.10207                  
  A2                  108.51389                  
  B3                    1.10044                  
  A3                  109.04547                  
  D3                  118.66302                  
  B4                    1.48051                  
  A4                  109.88918                  
  D4                  239.8229                   
  B5                    1.0714                   
  A5                  118.68101                  
  D5                   59.66967                  
  B6                    1.3229                   
  A6                  121.14125                  
  D6                  239.66967                  
  B7                    1.0631                   
  A7                  121.4752                   
  D7                    0.00001                  
  B8                    1.40275                  
  A8                  121.13081                  
  D8                  179.99987                  
  B9                    5.47349                  
  A9                   53.36732                  
  D9                  133.1962                   
  B10                   6.45513                  
  A10                  55.85868                  
  D10                 130.96318                  
 
 ITRead=  0  0  0  0  0  0  0  0  0  0  0
 MicOpt= -1 -1 -1 -1 -1 -1 -1 -1 -1 -1 -1
 NAtoms=     11 NQM=       11 NQMF=       0 NMMI=      0 NMMIF=      0
                NMic=       0 NMicF=      0.
                    Isotopes and Nuclear Properties:
 (Nuclear quadrupole moments (NQMom) in fm**2, nuclear magnetic moments (NMagM)
  in nuclear magnetons)

  Atom         1           2           3           4           5           6           7           8           9          10
 IAtWgt=          12           1           1           1          12           1          12           1          12          12
 AtmWgt=  12.0000000   1.0078250   1.0078250   1.0078250  12.0000000   1.0078250  12.0000000   1.0078250  12.0000000  12.0000000
 NucSpn=           0           1           1           1           0           1           0           1           0           0
 AtZEff=  -0.0000000  -0.0000000  -0.0000000  -0.0000000  -0.0000000  -0.0000000  -0.0000000  -0.0000000  -0.0000000  -0.0000000
 NQMom=    0.0000000   0.0000000   0.0000000   0.0000000   0.0000000   0.0000000   0.0000000   0.0000000   0.0000000   0.0000000
 NMagM=    0.0000000   2.7928460   2.7928460   2.7928460   0.0000000   2.7928460   0.0000000   2.7928460   0.0000000   0.0000000
 AtZNuc=   6.0000000   1.0000000   1.0000000   1.0000000   6.0000000   1.0000000   6.0000000   1.0000000   6.0000000   6.0000000

  Atom        11
 IAtWgt=           1
 AtmWgt=   1.0078250
 NucSpn=           1
 AtZEff=  -0.0000000
 NQMom=    0.0000000
 NMagM=    2.7928460
 AtZNuc=   1.0000000
 Leave Link  101 at Sat Sep 26 00:09:55 2020, MaxMem=   268435456 cpu:               2.1 elap:               0.4
 (Enter /applis/site/cecic/gaussian16/B.01/nehalem/g16/l103.exe)

 GradGradGradGradGradGradGradGradGradGradGradGradGradGradGradGradGradGrad
 Berny optimization.
 Initialization pass.
                           ----------------------------
                           !    Initial Parameters    !
                           ! (Angstroms and Degrees)  !
 --------------------------                            --------------------------
 ! Name  Definition              Value          Derivative Info.                !
 --------------------------------------------------------------------------------
 ! R1    R(1,2)                  1.1021         estimate D2E/DX2                !
 ! R2    R(1,3)                  1.1021         estimate D2E/DX2                !
 ! R3    R(1,4)                  1.1004         estimate D2E/DX2                !
 ! R4    R(1,5)                  1.4805         estimate D2E/DX2                !
 ! R5    R(5,6)                  1.0714         estimate D2E/DX2                !
 ! R6    R(5,7)                  1.3229         estimate D2E/DX2                !
 ! R7    R(7,8)                  1.0631         estimate D2E/DX2                !
 ! R8    R(7,9)                  1.4027         estimate D2E/DX2                !
 ! R9    R(9,10)                 1.193          estimate D2E/DX2                !
 ! R10   R(10,11)                1.0325         estimate D2E/DX2                !
 ! A1    A(2,1,3)              108.5139         estimate D2E/DX2                !
 ! A2    A(2,1,4)              109.0455         estimate D2E/DX2                !
 ! A3    A(2,1,5)              109.8892         estimate D2E/DX2                !
 ! A4    A(3,1,4)              109.0455         estimate D2E/DX2                !
 ! A5    A(3,1,5)              109.8892         estimate D2E/DX2                !
 ! A6    A(4,1,5)              110.421          estimate D2E/DX2                !
 ! A7    A(1,5,6)              118.681          estimate D2E/DX2                !
 ! A8    A(1,5,7)              121.1412         estimate D2E/DX2                !
 ! A9    A(6,5,7)              120.1777         estimate D2E/DX2                !
 ! A10   A(5,7,8)              121.4752         estimate D2E/DX2                !
 ! A11   A(5,7,9)              121.1308         estimate D2E/DX2                !
 ! A12   A(8,7,9)              117.394          estimate D2E/DX2                !
 ! A13   L(7,9,10,6,-1)        180.7018         estimate D2E/DX2                !
 ! A14   L(9,10,11,6,-1)       179.9733         estimate D2E/DX2                !
 ! A15   L(7,9,10,6,-2)        179.9993         estimate D2E/DX2                !
 ! A16   L(9,10,11,6,-2)       180.0015         estimate D2E/DX2                !
 ! D1    D(2,1,5,6)             59.6697         estimate D2E/DX2                !
 ! D2    D(2,1,5,7)           -120.3303         estimate D2E/DX2                !
 ! D3    D(3,1,5,6)            -59.6697         estimate D2E/DX2                !
 ! D4    D(3,1,5,7)            120.3303         estimate D2E/DX2                !
 ! D5    D(4,1,5,6)           -180.0            estimate D2E/DX2                !
 ! D6    D(4,1,5,7)              0.0            estimate D2E/DX2                !
 ! D7    D(1,5,7,8)              0.0            estimate D2E/DX2                !
 ! D8    D(1,5,7,9)            179.9999         estimate D2E/DX2                !
 ! D9    D(6,5,7,8)           -180.0            estimate D2E/DX2                !
 ! D10   D(6,5,7,9)             -0.0001         estimate D2E/DX2                !
 --------------------------------------------------------------------------------
 Trust Radius=3.00D-01 FncErr=1.00D-07 GrdErr=1.00D-06 EigMax=2.50D+02 EigMin=1.00D-04
 Number of steps in this run=    100 maximum allowed number of steps=    100.
 GradGradGradGradGradGradGradGradGradGradGradGradGradGradGradGradGradGrad

 Leave Link  103 at Sat Sep 26 00:09:55 2020, MaxMem=   268435456 cpu:               0.4 elap:               0.2
 (Enter /applis/site/cecic/gaussian16/B.01/nehalem/g16/l202.exe)
                          Input orientation:                          
 ---------------------------------------------------------------------
 Center     Atomic      Atomic             Coordinates (Angstroms)
 Number     Number       Type             X           Y           Z
 ---------------------------------------------------------------------
      1          6           0        0.000000    0.000000    0.000000
      2          1           0        0.000000    0.000000    1.102070
      3          1           0        1.045034    0.000000   -0.349945
      4          1           0       -0.498940   -0.912731   -0.359094
      5          6           0       -0.699824    1.203524   -0.503672
      6          1           0       -0.322710    2.168935   -0.232259
      7          6           0       -1.770272    1.100252   -1.274088
      8          1           0       -2.161974    0.153005   -1.556000
      9          6           0       -2.433173    2.240713   -1.751183
     10          6           0       -3.006559    3.202086   -2.163867
     11          1           0       -3.502486    4.034383   -2.520781
 ---------------------------------------------------------------------
                    Distance matrix (angstroms):
                    1          2          3          4          5
     1  C    0.000000
     2  H    1.102070   0.000000
     3  H    1.102070   1.788979   0.000000
     4  H    1.100440   1.793605   1.793605   0.000000
     5  C    1.480510   2.125237   2.125237   2.130679   0.000000
     6  H    2.205077   2.566876   2.566876   3.089306   1.071400
     7  C    2.442891   3.160782   3.160782   2.550608   1.322900
     8  H    2.668085   3.429705   3.429705   2.309558   2.085393
     9  C    3.742695   4.368315   4.368316   3.952642   2.374140
    10  C    4.896434   5.473490   5.473488   5.145588   3.474409
    11  H    5.907452   6.455130   6.455131   6.178035   4.465132
                    6          7          8          9         10
     6  H    0.000000
     7  C    2.079165   0.000000
     8  H    3.033011   1.063100   0.000000
     9  C    2.601218   1.402750   2.114278   0.000000
    10  C    3.464326   2.595730   3.221757   1.193029   0.000000
    11  H    4.339148   3.628213   4.218159   2.225525   1.032497
                   11
    11  H    0.000000
 Symmetry turned off by external request.
 Stoichiometry    C5H6
 Framework group  C1[X(C5H6)]
 Deg. of freedom    27
 Full point group                 C1      NOp   1
 Rotational constants (GHZ):          37.6138245           2.3573881           2.2502152
 Leave Link  202 at Sat Sep 26 00:09:56 2020, MaxMem=   268435456 cpu:               0.8 elap:               0.2
 (Enter /applis/site/cecic/gaussian16/B.01/nehalem/g16/l301.exe)
 Standard basis: CC-pVTZ (5D, 7F)
 Ernie: Thresh=  0.10000D-02 Tol=  0.10000D-05 Strict=F.
 Ernie:  15 primitive shells out of 178 were deleted.
   234 basis functions,   362 primitive gaussians,   265 cartesian basis functions
    18 alpha electrons       18 beta electrons
       nuclear repulsion energy       140.4134643103 Hartrees.
 IExCor= 4336 DFT=T Ex+Corr=M062X ExCW=0 ScaHFX=  0.540000
 ScaDFX=  1.000000  1.000000  1.000000  1.000000 ScalE2=  1.000000  1.000000
 IRadAn=      5 IRanWt=     -1 IRanGd=            0 ICorTp=0 IEmpDi=  4
 NAtoms=   11 NActive=   11 NUniq=   11 SFac= 1.00D+00 NAtFMM=   60 NAOKFM=F Big=F
 Integral buffers will be    131072 words long.
 Raffenetti 2 integral format.
 Two-electron integral symmetry is turned off.
 Leave Link  301 at Sat Sep 26 00:09:56 2020, MaxMem=   268435456 cpu:               0.6 elap:               0.2
 (Enter /applis/site/cecic/gaussian16/B.01/nehalem/g16/l302.exe)
 NPDir=0 NMtPBC=     1 NCelOv=     1 NCel=       1 NClECP=     1 NCelD=      1
         NCelK=      1 NCelE2=     1 NClLst=     1 CellRange=     0.0.
 One-electron integrals computed using PRISM.
 NBasis=   234 RedAO= T EigKep=  3.06D-05  NBF=   234
 NBsUse=   234 1.00D-06 EigRej= -1.00D+00 NBFU=   234
 Precomputing XC quadrature grid using
 IXCGrd= 4 IRadAn=           5 IRanWt=          -1 IRanGd=           0 AccXCQ= 0.00D+00.
 Generated NRdTot=       0 NPtTot=           0 NUsed=           0 NTot=          32
 NSgBfM=   265   265   265   265   265 MxSgAt=    11 MxSgA2=    11.
 Leave Link  302 at Sat Sep 26 00:09:56 2020, MaxMem=   268435456 cpu:               2.8 elap:               0.5
 (Enter /applis/site/cecic/gaussian16/B.01/nehalem/g16/l303.exe)
 DipDrv:  MaxL=1.
 Leave Link  303 at Sat Sep 26 00:09:57 2020, MaxMem=   268435456 cpu:               0.7 elap:               0.3
 (Enter /applis/site/cecic/gaussian16/B.01/nehalem/g16/l401.exe)
 ExpMin= 1.03D-01 ExpMax= 8.24D+03 ExpMxC= 2.81D+02 IAcc=3 IRadAn=         5 AccDes= 0.00D+00
 Harris functional with IExCor= 1009 and IRadAn=       5 diagonalized for initial guess.
 HarFok:  IExCor= 1009 AccDes= 0.00D+00 IRadAn=         5 IDoV= 1 UseB2=F ITyADJ=14
 ICtDFT=  3500011 ScaDFX=  1.000000  1.000000  1.000000  1.000000
 FoFCou: FMM=F IPFlag=           0 FMFlag=      100000 FMFlg1=           0
         NFxFlg=           0 DoJE=T BraDBF=F KetDBF=T FulRan=T
         wScrn=  0.000000 ICntrl=       500 IOpCl=  0 I1Cent=   200000004 NGrid=           0
         NMat0=    1 NMatS0=      1 NMatT0=    0 NMatD0=    1 NMtDS0=    0 NMtDT0=    0
 Symmetry not used in FoFCou.
 Harris En= -194.018584996955    
 JPrj=0 DoOrth=F DoCkMO=F.
 Leave Link  401 at Sat Sep 26 00:09:58 2020, MaxMem=   268435456 cpu:               7.4 elap:               1.1
 (Enter /applis/site/cecic/gaussian16/B.01/nehalem/g16/l502.exe)
 Two-electron integral symmetry not used.
 Closed shell SCF:
 Using DIIS extrapolation, IDIIS=  1040.
 NGot=   268435456 LenX=   268291054 LenY=   268220388
 Requested convergence on RMS density matrix=1.00D-08 within 128 cycles.
 Requested convergence on MAX density matrix=1.00D-06.
 Requested convergence on             energy=1.00D-06.
 No special actions if energy rises.
 Fock matrices will be formed incrementally for  20 cycles.
 Integral accuracy reduced to 1.0D-05 until final iterations.

 Cycle   1  Pass 0  IDiag  1:
 FoFJK:  IHMeth= 1 ICntrl=       0 DoSepK=F KAlg= 0 I1Cent=           0 FoldK=F
 IRaf= 960000000 NMat=       1 IRICut=       1 DoRegI=T DoRafI=F ISym2E= 0 IDoP0=0 IntGTp=1.
 FoFCou: FMM=F IPFlag=           0 FMFlag=      100000 FMFlg1=           0
         NFxFlg=           0 DoJE=F BraDBF=F KetDBF=F FulRan=T
         wScrn=  0.000000 ICntrl=         0 IOpCl=  0 I1Cent=           0 NGrid=           0
         NMat0=    1 NMatS0=      1 NMatT0=    0 NMatD0=    1 NMtDS0=    0 NMtDT0=    0
 Symmetry not used in FoFCou.
 E= -193.834430685977    
 DIIS: error= 3.19D-02 at cycle   1 NSaved=   1.
 NSaved= 1 IEnMin= 1 EnMin= -193.834430685977     IErMin= 1 ErrMin= 3.19D-02
 ErrMax= 3.19D-02  0.00D+00 EMaxC= 1.00D-01 BMatC= 2.13D-01 BMatP= 2.13D-01
 IDIUse=3 WtCom= 6.81D-01 WtEn= 3.19D-01
 Coeff-Com:  0.100D+01
 Coeff-En:   0.100D+01
 Coeff:      0.100D+01
 Gap=     0.301 Goal=   None    Shift=    0.000
 GapD=    0.301 DampG=1.000 DampE=0.500 DampFc=0.5000 IDamp=-1.
 Damping current iteration by 5.00D-01
 RMSDP=2.42D-03 MaxDP=4.76D-02              OVMax= 1.51D-01

 Cycle   2  Pass 0  IDiag  1:
 RMSU=  1.20D-03    CP:  9.84D-01
 E= -193.940001396660     Delta-E=       -0.105570710684 Rises=F Damp=T
 DIIS: error= 6.91D-03 at cycle   2 NSaved=   2.
 NSaved= 2 IEnMin= 2 EnMin= -193.940001396660     IErMin= 2 ErrMin= 6.91D-03
 ErrMax= 6.91D-03  0.00D+00 EMaxC= 1.00D-01 BMatC= 1.35D-02 BMatP= 2.13D-01
 IDIUse=3 WtCom= 9.31D-01 WtEn= 6.91D-02
 Coeff-Com: -0.210D+00 0.121D+01
 Coeff-En:   0.000D+00 0.100D+01
 Coeff:     -0.195D+00 0.120D+01
 Gap=     0.369 Goal=   None    Shift=    0.000
 RMSDP=8.06D-04 MaxDP=1.75D-02 DE=-1.06D-01 OVMax= 6.58D-02

 Cycle   3  Pass 0  IDiag  1:
 RMSU=  7.43D-04    CP:  9.83D-01  1.26D+00
 E= -194.028718640851     Delta-E=       -0.088717244190 Rises=F Damp=F
 DIIS: error= 3.21D-03 at cycle   3 NSaved=   3.
 NSaved= 3 IEnMin= 3 EnMin= -194.028718640851     IErMin= 3 ErrMin= 3.21D-03
 ErrMax= 3.21D-03  0.00D+00 EMaxC= 1.00D-01 BMatC= 1.23D-03 BMatP= 1.35D-02
 IDIUse=3 WtCom= 9.68D-01 WtEn= 3.21D-02
 Coeff-Com: -0.689D-01 0.278D+00 0.791D+00
 Coeff-En:   0.000D+00 0.000D+00 0.100D+01
 Coeff:     -0.667D-01 0.269D+00 0.797D+00
 Gap=     0.305 Goal=   None    Shift=    0.000
 RMSDP=1.60D-04 MaxDP=5.31D-03 DE=-8.87D-02 OVMax= 2.25D-02

 Cycle   4  Pass 0  IDiag  1:
 RMSU=  1.57D-04    CP:  9.83D-01  1.26D+00  9.58D-01
 E= -194.029025278849     Delta-E=       -0.000306637998 Rises=F Damp=F
 DIIS: error= 2.85D-03 at cycle   4 NSaved=   4.
 NSaved= 4 IEnMin= 4 EnMin= -194.029025278849     IErMin= 4 ErrMin= 2.85D-03
 ErrMax= 2.85D-03  0.00D+00 EMaxC= 1.00D-01 BMatC= 9.69D-04 BMatP= 1.23D-03
 IDIUse=3 WtCom= 9.71D-01 WtEn= 2.85D-02
 Coeff-Com: -0.240D-01 0.713D-01 0.481D+00 0.471D+00
 Coeff-En:   0.000D+00 0.000D+00 0.437D+00 0.563D+00
 Coeff:     -0.234D-01 0.693D-01 0.480D+00 0.474D+00
 Gap=     0.303 Goal=   None    Shift=    0.000
 RMSDP=7.70D-05 MaxDP=3.16D-03 DE=-3.07D-04 OVMax= 1.26D-02

 Cycle   5  Pass 0  IDiag  1:
 RMSU=  4.57D-05    CP:  9.83D-01  1.26D+00  9.94D-01  6.45D-01
 E= -194.029969493246     Delta-E=       -0.000944214397 Rises=F Damp=F
 DIIS: error= 3.56D-04 at cycle   5 NSaved=   5.
 NSaved= 5 IEnMin= 5 EnMin= -194.029969493246     IErMin= 5 ErrMin= 3.56D-04
 ErrMax= 3.56D-04  0.00D+00 EMaxC= 1.00D-01 BMatC= 2.06D-05 BMatP= 9.69D-04
 IDIUse=3 WtCom= 9.96D-01 WtEn= 3.56D-03
 Coeff-Com: -0.528D-02 0.129D-01 0.162D+00 0.203D+00 0.627D+00
 Coeff-En:   0.000D+00 0.000D+00 0.000D+00 0.000D+00 0.100D+01
 Coeff:     -0.526D-02 0.129D-01 0.162D+00 0.202D+00 0.629D+00
 Gap=     0.303 Goal=   None    Shift=    0.000
 RMSDP=1.38D-05 MaxDP=3.85D-04 DE=-9.44D-04 OVMax= 1.86D-03

 Cycle   6  Pass 0  IDiag  1:
 RMSU=  1.25D-05    CP:  9.83D-01  1.26D+00  9.99D-01  6.69D-01  9.50D-01
 E= -194.029986715873     Delta-E=       -0.000017222627 Rises=F Damp=F
 DIIS: error= 1.34D-04 at cycle   6 NSaved=   6.
 NSaved= 6 IEnMin= 6 EnMin= -194.029986715873     IErMin= 6 ErrMin= 1.34D-04
 ErrMax= 1.34D-04  0.00D+00 EMaxC= 1.00D-01 BMatC= 2.68D-06 BMatP= 2.06D-05
 IDIUse=3 WtCom= 9.99D-01 WtEn= 1.34D-03
 Coeff-Com:  0.533D-03-0.221D-02 0.163D-01 0.356D-01 0.297D+00 0.653D+00
 Coeff-En:   0.000D+00 0.000D+00 0.000D+00 0.000D+00 0.335D-01 0.966D+00
 Coeff:      0.532D-03-0.221D-02 0.163D-01 0.355D-01 0.296D+00 0.654D+00
 Gap=     0.303 Goal=   None    Shift=    0.000
 RMSDP=5.95D-06 MaxDP=1.55D-04 DE=-1.72D-05 OVMax= 8.04D-04

 Initial convergence to 1.0D-05 achieved.  Increase integral accuracy.
 Cycle   7  Pass 1  IDiag  1:
 E= -194.029995476165     Delta-E=       -0.000008760292 Rises=F Damp=F
 DIIS: error= 8.49D-05 at cycle   1 NSaved=   1.
 NSaved= 1 IEnMin= 1 EnMin= -194.029995476165     IErMin= 1 ErrMin= 8.49D-05
 ErrMax= 8.49D-05  0.00D+00 EMaxC= 1.00D-01 BMatC= 6.61D-07 BMatP= 6.61D-07
 IDIUse=1 WtCom= 1.00D+00 WtEn= 0.00D+00
 Coeff-Com:  0.100D+01
 Coeff:      0.100D+01
 Gap=     0.303 Goal=   None    Shift=    0.000
 RMSDP=5.95D-06 MaxDP=1.55D-04 DE=-8.76D-06 OVMax= 3.74D-04

 Cycle   8  Pass 1  IDiag  1:
 RMSU=  4.38D-05    CP:  1.00D+00
 E= -194.029995566053     Delta-E=       -0.000000089889 Rises=F Damp=F
 DIIS: error= 5.65D-05 at cycle   2 NSaved=   2.
 NSaved= 2 IEnMin= 2 EnMin= -194.029995566053     IErMin= 2 ErrMin= 5.65D-05
 ErrMax= 5.65D-05  0.00D+00 EMaxC= 1.00D-01 BMatC= 3.39D-07 BMatP= 6.61D-07
 IDIUse=1 WtCom= 1.00D+00 WtEn= 0.00D+00
 Coeff-Com:  0.391D+00 0.609D+00
 Coeff:      0.391D+00 0.609D+00
 Gap=     0.303 Goal=   None    Shift=    0.000
 RMSDP=1.97D-06 MaxDP=7.79D-05 DE=-8.99D-08 OVMax= 3.06D-04

 Cycle   9  Pass 1  IDiag  1:
 RMSU=  1.90D-06    CP:  1.00D+00  1.01D+00
 E= -194.029995821510     Delta-E=       -0.000000255457 Rises=F Damp=F
 DIIS: error= 2.34D-05 at cycle   3 NSaved=   3.
 NSaved= 3 IEnMin= 3 EnMin= -194.029995821510     IErMin= 3 ErrMin= 2.34D-05
 ErrMax= 2.34D-05  0.00D+00 EMaxC= 1.00D-01 BMatC= 6.54D-08 BMatP= 3.39D-07
 IDIUse=1 WtCom= 1.00D+00 WtEn= 0.00D+00
 Coeff-Com:  0.635D-02 0.301D+00 0.692D+00
 Coeff:      0.635D-02 0.301D+00 0.692D+00
 Gap=     0.303 Goal=   None    Shift=    0.000
 RMSDP=1.02D-06 MaxDP=2.78D-05 DE=-2.55D-07 OVMax= 1.04D-04

 Cycle  10  Pass 1  IDiag  1:
 RMSU=  6.15D-07    CP:  1.00D+00  1.03D+00  8.01D-01
 E= -194.029995881249     Delta-E=       -0.000000059738 Rises=F Damp=F
 DIIS: error= 5.94D-06 at cycle   4 NSaved=   4.
 NSaved= 4 IEnMin= 4 EnMin= -194.029995881249     IErMin= 4 ErrMin= 5.94D-06
 ErrMax= 5.94D-06  0.00D+00 EMaxC= 1.00D-01 BMatC= 4.79D-09 BMatP= 6.54D-08
 IDIUse=1 WtCom= 1.00D+00 WtEn= 0.00D+00
 Coeff-Com: -0.940D-02 0.142D+00 0.380D+00 0.487D+00
 Coeff:     -0.940D-02 0.142D+00 0.380D+00 0.487D+00
 Gap=     0.303 Goal=   None    Shift=    0.000
 RMSDP=1.98D-07 MaxDP=8.08D-06 DE=-5.97D-08 OVMax= 2.55D-05

 Cycle  11  Pass 1  IDiag  1:
 RMSU=  1.82D-07    CP:  1.00D+00  1.03D+00  8.26D-01  9.92D-01
 E= -194.029995885636     Delta-E=       -0.000000004387 Rises=F Damp=F
 DIIS: error= 1.47D-06 at cycle   5 NSaved=   5.
 NSaved= 5 IEnMin= 5 EnMin= -194.029995885636     IErMin= 5 ErrMin= 1.47D-06
 ErrMax= 1.47D-06  0.00D+00 EMaxC= 1.00D-01 BMatC= 2.04D-10 BMatP= 4.79D-09
 IDIUse=1 WtCom= 1.00D+00 WtEn= 0.00D+00
 Coeff-Com: -0.434D-02 0.303D-01 0.966D-01 0.198D+00 0.679D+00
 Coeff:     -0.434D-02 0.303D-01 0.966D-01 0.198D+00 0.679D+00
 Gap=     0.303 Goal=   None    Shift=    0.000
 RMSDP=6.01D-08 MaxDP=1.83D-06 DE=-4.39D-09 OVMax= 7.32D-06

 Cycle  12  Pass 1  IDiag  1:
 RMSU=  4.86D-08    CP:  1.00D+00  1.03D+00  8.36D-01  1.03D+00  9.62D-01
 E= -194.029995885848     Delta-E=       -0.000000000213 Rises=F Damp=F
 DIIS: error= 5.60D-07 at cycle   6 NSaved=   6.
 NSaved= 6 IEnMin= 6 EnMin= -194.029995885848     IErMin= 6 ErrMin= 5.60D-07
 ErrMax= 5.60D-07  0.00D+00 EMaxC= 1.00D-01 BMatC= 3.85D-11 BMatP= 2.04D-10
 IDIUse=1 WtCom= 1.00D+00 WtEn= 0.00D+00
 Coeff-Com:  0.376D-03-0.216D-01-0.475D-01-0.315D-01 0.309D+00 0.792D+00
 Coeff:      0.376D-03-0.216D-01-0.475D-01-0.315D-01 0.309D+00 0.792D+00
 Gap=     0.303 Goal=   None    Shift=    0.000
 RMSDP=3.43D-08 MaxDP=9.57D-07 DE=-2.13D-10 OVMax= 2.98D-06

 Cycle  13  Pass 1  IDiag  1:
 RMSU=  2.02D-08    CP:  1.00D+00  1.03D+00  8.40D-01  1.05D+00  1.05D+00
                    CP:  9.98D-01
 E= -194.029995885888     Delta-E=       -0.000000000040 Rises=F Damp=F
 DIIS: error= 6.95D-08 at cycle   7 NSaved=   7.
 NSaved= 7 IEnMin= 7 EnMin= -194.029995885888     IErMin= 7 ErrMin= 6.95D-08
 ErrMax= 6.95D-08  0.00D+00 EMaxC= 1.00D-01 BMatC= 5.71D-13 BMatP= 3.85D-11
 IDIUse=1 WtCom= 1.00D+00 WtEn= 0.00D+00
 Coeff-Com:  0.252D-03-0.634D-02-0.144D-01-0.157D-01 0.457D-01 0.189D+00
 Coeff-Com:  0.802D+00
 Coeff:      0.252D-03-0.634D-02-0.144D-01-0.157D-01 0.457D-01 0.189D+00
 Coeff:      0.802D+00
 Gap=     0.303 Goal=   None    Shift=    0.000
 RMSDP=4.85D-09 MaxDP=1.28D-07 DE=-3.96D-11 OVMax= 4.13D-07

 SCF Done:  E(RM062X) =  -194.029995886     A.U. after   13 cycles
            NFock= 13  Conv=0.49D-08     -V/T= 2.0049
 KE= 1.930850353078D+02 PE=-7.302521062941D+02 EE= 2.027236107902D+02
 Leave Link  502 at Sat Sep 26 00:10:25 2020, MaxMem=   268435456 cpu:             216.7 elap:              27.4
 (Enter /applis/site/cecic/gaussian16/B.01/nehalem/g16/l601.exe)
 Copying SCF densities to generalized density rwf, IOpCl= 0 IROHF=0.

 **********************************************************************

            Population analysis using the SCF Density.

 **********************************************************************

 Alpha  occ. eigenvalues --  -10.55313 -10.55055 -10.54199 -10.53524 -10.52431
 Alpha  occ. eigenvalues --   -0.92775  -0.85272  -0.78679  -0.67082  -0.61531
 Alpha  occ. eigenvalues --   -0.56596  -0.51702  -0.49339  -0.44852  -0.43495
 Alpha  occ. eigenvalues --   -0.39940  -0.33816  -0.29209
 Alpha virt. eigenvalues --    0.01140   0.07253   0.08650   0.09905   0.10719
 Alpha virt. eigenvalues --    0.13183   0.13610   0.15613   0.15819   0.21389
 Alpha virt. eigenvalues --    0.24587   0.27543   0.28324   0.30394   0.32013
 Alpha virt. eigenvalues --    0.32704   0.34111   0.34877   0.38241   0.40071
 Alpha virt. eigenvalues --    0.44182   0.44344   0.45385   0.46453   0.48668
 Alpha virt. eigenvalues --    0.49385   0.49460   0.50549   0.51196   0.52930
 Alpha virt. eigenvalues --    0.55275   0.59875   0.61081   0.63214   0.65158
 Alpha virt. eigenvalues --    0.68055   0.69938   0.72014   0.72124   0.74488
 Alpha virt. eigenvalues --    0.76931   0.82496   0.85575   0.87930   0.90619
 Alpha virt. eigenvalues --    0.90662   0.93331   0.94033   0.94804   0.97485
 Alpha virt. eigenvalues --    1.00412   1.03884   1.04306   1.04478   1.08693
 Alpha virt. eigenvalues --    1.09536   1.14737   1.14784   1.16916   1.20078
 Alpha virt. eigenvalues --    1.23410   1.27573   1.28491   1.30568   1.31076
 Alpha virt. eigenvalues --    1.33029   1.36233   1.36313   1.40974   1.43870
 Alpha virt. eigenvalues --    1.46837   1.48159   1.51015   1.52048   1.54654
 Alpha virt. eigenvalues --    1.57405   1.58445   1.61894   1.72953   1.77153
 Alpha virt. eigenvalues --    1.81317   2.02461   2.06984   2.12636   2.15041
 Alpha virt. eigenvalues --    2.19554   2.26696   2.27151   2.30635   2.37038
 Alpha virt. eigenvalues --    2.37417   2.39483   2.44012   2.45873   2.46503
 Alpha virt. eigenvalues --    2.49707   2.51106   2.53630   2.53726   2.57702
 Alpha virt. eigenvalues --    2.61065   2.61198   2.65971   2.67181   2.71702
 Alpha virt. eigenvalues --    2.74917   2.76343   2.82177   2.82650   2.83420
 Alpha virt. eigenvalues --    2.83813   2.85384   2.87400   2.88575   2.91393
 Alpha virt. eigenvalues --    2.91892   2.93640   2.93788   2.94805   2.95642
 Alpha virt. eigenvalues --    2.97617   2.98321   2.99922   3.02167   3.02423
 Alpha virt. eigenvalues --    3.04017   3.04287   3.07951   3.09375   3.12021
 Alpha virt. eigenvalues --    3.12150   3.17566   3.21865   3.21979   3.22741
 Alpha virt. eigenvalues --    3.26761   3.27772   3.31102   3.33983   3.36596
 Alpha virt. eigenvalues --    3.39487   3.39742   3.41530   3.42550   3.44564
 Alpha virt. eigenvalues --    3.45755   3.53941   3.54955   3.58325   3.61880
 Alpha virt. eigenvalues --    3.63900   3.64348   3.69123   3.71638   3.75345
 Alpha virt. eigenvalues --    3.78477   3.79556   3.87237   3.87566   3.89784
 Alpha virt. eigenvalues --    3.91812   3.93541   3.94171   3.99704   4.00693
 Alpha virt. eigenvalues --    4.01039   4.05217   4.05838   4.09827   4.10001
 Alpha virt. eigenvalues --    4.12223   4.19534   4.19629   4.23388   4.25277
 Alpha virt. eigenvalues --    4.27667   4.32395   4.39545   4.39816   4.44745
 Alpha virt. eigenvalues --    4.51338   4.52703   4.66359   4.69040   4.74029
 Alpha virt. eigenvalues --    4.75688   4.81313   4.83266   4.91095   5.02275
 Alpha virt. eigenvalues --    5.04128   5.11476   5.11695   5.15870   5.20163
 Alpha virt. eigenvalues --    5.21181   5.22792   5.27240   5.29521   5.34901
 Alpha virt. eigenvalues --    5.39586   5.55724   5.62689   5.72546   5.75188
 Alpha virt. eigenvalues --    5.78203   5.84297   5.90399   5.96815   6.22500
 Alpha virt. eigenvalues --    6.33486   9.07884  11.70196  13.48345  14.39311
 Alpha virt. eigenvalues --   17.07179
          Condensed to atoms (all electrons):
               1          2          3          4          5          6
     1  C    4.881082   0.402199   0.402203   0.415583   0.318541  -0.034151
     2  H    0.402199   0.603043  -0.038296  -0.031642  -0.045486  -0.002836
     3  H    0.402203  -0.038296   0.603036  -0.031641  -0.045483  -0.002837
     4  H    0.415583  -0.031642  -0.031641   0.587633  -0.056382   0.004660
     5  C    0.318541  -0.045486  -0.045483  -0.056382   5.068211   0.405165
     6  H   -0.034151  -0.002836  -0.002837   0.004660   0.405165   0.526913
     7  C   -0.064824   0.000534   0.000534   0.001677   0.568886  -0.056597
     8  H   -0.007015   0.000207   0.000207   0.004781  -0.060788   0.005518
     9  C    0.006737  -0.000510  -0.000511   0.001174  -0.065502   0.006914
    10  C   -0.000327   0.000021   0.000021   0.000013   0.008654   0.004238
    11  H    0.000002  -0.000000  -0.000000  -0.000000  -0.000040  -0.000017
               7          8          9         10         11
     1  C   -0.064824  -0.007015   0.006737  -0.000327   0.000002
     2  H    0.000534   0.000207  -0.000510   0.000021  -0.000000
     3  H    0.000534   0.000207  -0.000511   0.000021  -0.000000
     4  H    0.001677   0.004781   0.001174   0.000013  -0.000000
     5  C    0.568886  -0.060788  -0.065502   0.008654  -0.000040
     6  H   -0.056597   0.005518   0.006914   0.004238  -0.000017
     7  C    4.936431   0.394026   0.452796  -0.114119  -0.000554
     8  H    0.394026   0.537032  -0.022018   0.001786  -0.000065
     9  C    0.452796  -0.022018   5.047787   0.696267  -0.095400
    10  C   -0.114119   0.001786   0.696267   5.134050   0.447475
    11  H   -0.000554  -0.000065  -0.095400   0.447475   0.527229
 Mulliken charges:
               1
     1  C   -0.320029
     2  H    0.112767
     3  H    0.112767
     4  H    0.104145
     5  C   -0.095775
     6  H    0.143030
     7  C   -0.118791
     8  H    0.146328
     9  C   -0.027735
    10  C   -0.178078
    11  H    0.121370
 Sum of Mulliken charges =  -0.00000
 Mulliken charges with hydrogens summed into heavy atoms:
               1
     1  C    0.009650
     5  C    0.047255
     7  C    0.027538
     9  C   -0.027735
    10  C   -0.056708
 Electronic spatial extent (au):  <R**2>=           1238.4598
 Charge=             -0.0000 electrons
 Dipole moment (field-independent basis, Debye):
    X=              0.7677    Y=             -0.5858    Z=              0.5526  Tot=              1.1126
 Quadrupole moment (field-independent basis, Debye-Ang):
   XX=            -32.0385   YY=            -28.8552   ZZ=            -32.4333
   XY=              0.4330   XZ=              0.5894   YZ=              0.3117
 Traceless Quadrupole moment (field-independent basis, Debye-Ang):
   XX=             -0.9295   YY=              2.2538   ZZ=             -1.3243
   XY=              0.4330   XZ=              0.5894   YZ=              0.3117
 Octapole moment (field-independent basis, Debye-Ang**2):
  XXX=            141.2033  YYY=           -116.2626  ZZZ=            106.2169  XYY=             31.8108
  XXY=            -39.1622  XXZ=             27.5260  XZZ=             44.6244  YZZ=            -44.2868
  YYZ=             22.8948  XYZ=              7.6512
 Hexadecapole moment (field-independent basis, Debye-Ang**3):
 XXXX=           -716.6292 YYYY=           -590.3866 ZZZZ=           -408.5212 XXXY=            282.2710
 XXXZ=           -218.9485 YYYX=            221.4829 YYYZ=            159.4051 ZZZX=           -241.1038
 ZZZY=            227.6778 XXYY=           -162.1988 XXZZ=           -167.9447 YYZZ=           -150.1334
 XXYZ=             33.8017 YYXZ=            -18.0173 ZZXY=             81.0381
 N-N= 1.404134643103D+02 E-N=-7.302520983961D+02  KE= 1.930850353078D+02
 No NMR shielding tensors so no spin-rotation constants.
 Leave Link  601 at Sat Sep 26 00:10:26 2020, MaxMem=   268435456 cpu:               1.5 elap:               0.3
 (Enter /applis/site/cecic/gaussian16/B.01/nehalem/g16/l701.exe)
 ... and contract with generalized density number  0.
 Compute integral first derivatives.
 Leave Link  701 at Sat Sep 26 00:10:27 2020, MaxMem=   268435456 cpu:               1.3 elap:               0.7
 (Enter /applis/site/cecic/gaussian16/B.01/nehalem/g16/l702.exe)
 L702 exits ... SP integral derivatives will be done elsewhere.
 Leave Link  702 at Sat Sep 26 00:10:27 2020, MaxMem=   268435456 cpu:               0.7 elap:               0.2
 (Enter /applis/site/cecic/gaussian16/B.01/nehalem/g16/l703.exe)
 Integral derivatives from FoFJK, PRISM(SPDF).
 Compute integral first derivatives, UseDBF=F ICtDFT=           0.
 Calling FoFJK, ICntrl=      2127 FMM=F ISym2X=0 I1Cent= 0 IOpClX= 0 NMat=1 NMatS=1 NMatT=0.
 FoFJK:  IHMeth= 1 ICntrl=    2127 DoSepK=F KAlg= 0 I1Cent=           0 FoldK=F
 IRaf=         0 NMat=       1 IRICut=       1 DoRegI=T DoRafI=F ISym2E= 0 IDoP0=0 IntGTp=1.
 FoFCou: FMM=F IPFlag=           0 FMFlag=      100000 FMFlg1=         800
         NFxFlg=           0 DoJE=F BraDBF=F KetDBF=F FulRan=T
         wScrn=  0.000000 ICntrl=      2127 IOpCl=  0 I1Cent=           0 NGrid=           0
         NMat0=    1 NMatS0=      1 NMatT0=    0 NMatD0=    1 NMtDS0=    0 NMtDT0=    0
 Symmetry not used in FoFCou.
 Leave Link  703 at Sat Sep 26 00:10:33 2020, MaxMem=   268435456 cpu:              51.1 elap:               6.6
 (Enter /applis/site/cecic/gaussian16/B.01/nehalem/g16/l716.exe)
 Dipole        = 3.02056010D-01-2.30478574D-01 2.17398439D-01
 -------------------------------------------------------------------
 Center     Atomic                   Forces (Hartrees/Bohr)
 Number     Number              X              Y              Z
 -------------------------------------------------------------------
      1        6           0.007061358   -0.006494419    0.005080834
      2        1           0.002857531   -0.002169107   -0.006647293
      3        1          -0.005398219   -0.002169183    0.004815704
      4        1           0.004932111    0.005505793    0.003555226
      5        6           0.000981839   -0.014143907    0.000696826
      6        1           0.002415976    0.007820378    0.001742291
      7        6           0.004638558    0.010223295    0.003344819
      8        1          -0.004305218   -0.013958247   -0.003104836
      9        6          -0.006035467    0.003441902   -0.004332244
     10        6           0.004778941   -0.008462414    0.003417283
     11        1          -0.011927412    0.020405910   -0.008568609
 -------------------------------------------------------------------
 Cartesian Forces:  Max     0.020405910 RMS     0.007253509
 Leave Link  716 at Sat Sep 26 00:10:34 2020, MaxMem=   268435456 cpu:               0.7 elap:               0.2
 (Enter /applis/site/cecic/gaussian16/B.01/nehalem/g16/l103.exe)

 GradGradGradGradGradGradGradGradGradGradGradGradGradGradGradGradGradGrad
 Berny optimization.
 FormGI is forming the generalized inverse of G from B-inverse, IUseBI=4.
 Internal  Forces:  Max     0.025140260 RMS     0.008316580
 Search for a local minimum.
 Step number   1 out of a maximum of  100
 All quantities printed in internal units (Hartrees-Bohrs-Radians)
 RMS Force = .83166D-02 SwitMx=.10000D-02 MixMth= 1
 Mixed Optimization -- RFO/linear search
 Second derivative matrix not updated -- first step.
 ITU=  0
     Eigenvalues ---    0.00995   0.00995   0.01024   0.01873   0.03109
     Eigenvalues ---    0.03109   0.04827   0.04827   0.07520   0.07610
     Eigenvalues ---    0.16000   0.16000   0.16000   0.16000   0.16000
     Eigenvalues ---    0.22000   0.22000   0.33454   0.33454   0.33634
     Eigenvalues ---    0.34511   0.37054   0.38116   0.42403   0.45168
     Eigenvalues ---    0.61215   1.08406
 RFO step:  Lambda=-6.38741196D-03 EMin= 9.95487125D-03
 Linear search not attempted -- first point.
 Iteration  1 RMS(Cart)=  0.05228962 RMS(Int)=  0.00043582
 Iteration  2 RMS(Cart)=  0.00058145 RMS(Int)=  0.00006243
 Iteration  3 RMS(Cart)=  0.00000020 RMS(Int)=  0.00006243
 ITry= 1 IFail=0 DXMaxC= 1.40D-01 DCOld= 1.00D+10 DXMaxT= 3.00D-01 DXLimC= 3.00D+00 Rises=F
 Variable       Old X    -DE/DX   Delta X   Delta X   Delta X     New X
                                 (Linear)    (Quad)   (Total)
    R1        2.08261  -0.00665   0.00000  -0.01950  -0.01950   2.06311
    R2        2.08261  -0.00665   0.00000  -0.01950  -0.01950   2.06311
    R3        2.07953  -0.00796   0.00000  -0.02323  -0.02323   2.05630
    R4        2.79776   0.01111   0.00000   0.03162   0.03162   2.82938
    R5        2.02465   0.00834   0.00000   0.02212   0.02212   2.04677
    R6        2.49992   0.01487   0.00000   0.02404   0.02404   2.52396
    R7        2.00897   0.01485   0.00000   0.03831   0.03831   2.04728
    R8        2.65081   0.02196   0.00000   0.04795   0.04795   2.69876
    R9        2.25450   0.01484   0.00000   0.01361   0.01361   2.26811
   R10        1.95114   0.02514   0.00000   0.05841   0.05841   2.00955
    A1        1.89392  -0.00435   0.00000  -0.03018  -0.03029   1.86364
    A2        1.90320  -0.00230   0.00000  -0.01188  -0.01204   1.89116
    A3        1.91793   0.00352   0.00000   0.02013   0.01998   1.93791
    A4        1.90320  -0.00230   0.00000  -0.01184  -0.01201   1.89119
    A5        1.91793   0.00351   0.00000   0.02013   0.01998   1.93791
    A6        1.92721   0.00173   0.00000   0.01243   0.01225   1.93946
    A7        2.07137  -0.00506   0.00000  -0.02122  -0.02122   2.05015
    A8        2.11431   0.01156   0.00000   0.05105   0.05105   2.16536
    A9        2.09750  -0.00649   0.00000  -0.02983  -0.02983   2.06767
   A10        2.12014  -0.00577   0.00000  -0.02805  -0.02805   2.09209
   A11        2.11413   0.00831   0.00000   0.03670   0.03670   2.15083
   A12        2.04891  -0.00254   0.00000  -0.00865  -0.00865   2.04026
   A13        3.15384  -0.00040   0.00000  -0.00737  -0.00737   3.14647
   A14        3.14113  -0.00046   0.00000  -0.02838  -0.02838   3.11275
   A15        3.14158   0.00000   0.00000   0.00005   0.00005   3.14163
   A16        3.14162   0.00001   0.00000   0.00078   0.00078   3.14239
    D1        1.04143  -0.00051   0.00000  -0.00631  -0.00633   1.03510
    D2       -2.10016  -0.00051   0.00000  -0.00623  -0.00625  -2.10641
    D3       -1.04143   0.00050   0.00000   0.00593   0.00595  -1.03548
    D4        2.10016   0.00050   0.00000   0.00600   0.00603   2.10619
    D5       -3.14159  -0.00000   0.00000  -0.00021  -0.00021   3.14138
    D6        0.00000  -0.00000   0.00000  -0.00013  -0.00013  -0.00013
    D7        0.00000  -0.00001   0.00000  -0.00016  -0.00016  -0.00016
    D8        3.14159  -0.00000   0.00000  -0.00009  -0.00009   3.14150
    D9       -3.14159  -0.00000   0.00000  -0.00009  -0.00009   3.14150
   D10       -0.00000  -0.00000   0.00000  -0.00002  -0.00002  -0.00002
         Item               Value     Threshold  Converged?
 Maximum Force            0.025140     0.000450     NO 
 RMS     Force            0.008317     0.000300     NO 
 Maximum Displacement     0.139627     0.001800     NO 
 RMS     Displacement     0.051998     0.001200     NO 
 Predicted change in Energy=-3.257822D-03
 Lowest energy point so far.  Saving SCF results.
 GradGradGradGradGradGradGradGradGradGradGradGradGradGradGradGradGradGrad

 Leave Link  103 at Sat Sep 26 00:10:34 2020, MaxMem=   268435456 cpu:               1.6 elap:               0.3
 (Enter /applis/site/cecic/gaussian16/B.01/nehalem/g16/l202.exe)
                          Input orientation:                          
 ---------------------------------------------------------------------
 Center     Atomic      Atomic             Coordinates (Angstroms)
 Number     Number       Type             X           Y           Z
 ---------------------------------------------------------------------
      1          6           0        0.026190   -0.020545    0.018926
      2          1           0        0.042771   -0.021884    1.110553
      3          1           0        1.066552   -0.022147   -0.312074
      4          1           0       -0.441996   -0.943299   -0.317804
      5          6           0       -0.702913    1.177205   -0.505990
      6          1           0       -0.322214    2.153477   -0.231981
      7          6           0       -1.785632    1.111806   -1.285305
      8          1           0       -2.185615    0.147042   -1.573297
      9          6           0       -2.467598    2.266593   -1.776150
     10          6           0       -3.044597    3.233649   -2.191399
     11          1           0       -3.535851    4.108270   -2.544298
 ---------------------------------------------------------------------
                    Distance matrix (angstroms):
                    1          2          3          4          5
     1  C    0.000000
     2  H    1.091753   0.000000
     3  H    1.091750   1.752711   0.000000
     4  H    1.088145   1.767543   1.767561   0.000000
     5  C    1.497242   2.146408   2.146405   2.144768   0.000000
     6  H    2.216012   2.582210   2.582330   3.100280   1.083107
     7  C    2.503185   3.220007   3.219935   2.639105   1.335623
     8  H    2.730447   3.492462   3.492263   2.409422   2.097328
     9  C    3.830441   4.457817   4.457810   4.066110   2.431910
    10  C    4.990495   5.570746   5.570782   5.266002   3.543028
    11  H    6.025394   6.574393   6.574594   6.328315   4.557563
                    6          7          8          9         10
     6  H    0.000000
     7  C    2.082345   0.000000
     8  H    3.049126   1.083372   0.000000
     9  C    2.645737   1.428125   2.147827   0.000000
    10  C    3.523841   2.628348   3.262980   1.200231   0.000000
    11  H    4.415370   3.691494   4.296197   2.263402   1.063406
                   11
    11  H    0.000000
 Symmetry turned off by external request.
 Stoichiometry    C5H6
 Framework group  C1[X(C5H6)]
 Deg. of freedom    27
 Full point group                 C1      NOp   1
 Rotational constants (GHZ):          38.2261670           2.2628393           2.1647055
 Leave Link  202 at Sat Sep 26 00:10:34 2020, MaxMem=   268435456 cpu:               0.7 elap:               0.2
 (Enter /applis/site/cecic/gaussian16/B.01/nehalem/g16/l301.exe)
 Standard basis: CC-pVTZ (5D, 7F)
 Ernie: Thresh=  0.10000D-02 Tol=  0.10000D-05 Strict=F.
 Ernie:  15 primitive shells out of 178 were deleted.
   234 basis functions,   362 primitive gaussians,   265 cartesian basis functions
    18 alpha electrons       18 beta electrons
       nuclear repulsion energy       138.5409602869 Hartrees.
 IExCor= 4336 DFT=T Ex+Corr=M062X ExCW=0 ScaHFX=  0.540000
 ScaDFX=  1.000000  1.000000  1.000000  1.000000 ScalE2=  1.000000  1.000000
 IRadAn=      5 IRanWt=     -1 IRanGd=            0 ICorTp=0 IEmpDi=  4
 NAtoms=   11 NActive=   11 NUniq=   11 SFac= 1.00D+00 NAtFMM=   60 NAOKFM=F Big=F
 Integral buffers will be    131072 words long.
 Raffenetti 2 integral format.
 Two-electron integral symmetry is turned off.
 Leave Link  301 at Sat Sep 26 00:10:34 2020, MaxMem=   268435456 cpu:               0.5 elap:               0.1
 (Enter /applis/site/cecic/gaussian16/B.01/nehalem/g16/l302.exe)
 NPDir=0 NMtPBC=     1 NCelOv=     1 NCel=       1 NClECP=     1 NCelD=      1
         NCelK=      1 NCelE2=     1 NClLst=     1 CellRange=     0.0.
 One-electron integrals computed using PRISM.
 NBasis=   234 RedAO= T EigKep=  3.43D-05  NBF=   234
 NBsUse=   234 1.00D-06 EigRej= -1.00D+00 NBFU=   234
 Precomputing XC quadrature grid using
 IXCGrd= 4 IRadAn=           5 IRanWt=          -1 IRanGd=           0 AccXCQ= 0.00D+00.
 Generated NRdTot=       0 NPtTot=           0 NUsed=           0 NTot=          32
 NSgBfM=   265   265   265   265   265 MxSgAt=    11 MxSgA2=    11.
 Leave Link  302 at Sat Sep 26 00:10:35 2020, MaxMem=   268435456 cpu:               1.8 elap:               0.3
 (Enter /applis/site/cecic/gaussian16/B.01/nehalem/g16/l303.exe)
 DipDrv:  MaxL=1.
 Leave Link  303 at Sat Sep 26 00:10:35 2020, MaxMem=   268435456 cpu:               0.7 elap:               0.1
 (Enter /applis/site/cecic/gaussian16/B.01/nehalem/g16/l401.exe)
 Initial guess from the checkpoint file:  "input.chk"
 B after Tr=    -0.017147    0.005660   -0.012345
         Rot=    1.000000   -0.000011    0.000014    0.000019 Ang=  -0.00 deg.
 Guess basis will be translated and rotated to current coordinates.
 JPrj=2 DoOrth=T DoCkMO=T.
 Generating alternative initial guess.
 ExpMin= 1.03D-01 ExpMax= 8.24D+03 ExpMxC= 2.81D+02 IAcc=3 IRadAn=         5 AccDes= 0.00D+00
 Harris functional with IExCor= 1009 and IRadAn=       5 diagonalized for initial guess.
 HarFok:  IExCor= 1009 AccDes= 0.00D+00 IRadAn=         5 IDoV= 1 UseB2=F ITyADJ=14
 ICtDFT=  3500011 ScaDFX=  1.000000  1.000000  1.000000  1.000000
 FoFCou: FMM=F IPFlag=           0 FMFlag=      100000 FMFlg1=           0
         NFxFlg=           0 DoJE=T BraDBF=F KetDBF=T FulRan=T
         wScrn=  0.000000 ICntrl=       500 IOpCl=  0 I1Cent=   200000004 NGrid=           0
         NMat0=    1 NMatS0=      1 NMatT0=    0 NMatD0=    1 NMtDS0=    0 NMtDT0=    0
 Symmetry not used in FoFCou.
 Harris En= -194.013478073403    
 Leave Link  401 at Sat Sep 26 00:10:36 2020, MaxMem=   268435456 cpu:               7.6 elap:               1.0
 (Enter /applis/site/cecic/gaussian16/B.01/nehalem/g16/l502.exe)
 Two-electron integral symmetry not used.
 Closed shell SCF:
 Using DIIS extrapolation, IDIIS=  1040.
 NGot=   268435456 LenX=   268291054 LenY=   268220388
 Requested convergence on RMS density matrix=1.00D-08 within 128 cycles.
 Requested convergence on MAX density matrix=1.00D-06.
 Requested convergence on             energy=1.00D-06.
 No special actions if energy rises.
 Fock matrices will be formed incrementally for  20 cycles.
 Integral accuracy reduced to 1.0D-05 until final iterations.

 Cycle   1  Pass 0  IDiag  1:
 FoFJK:  IHMeth= 1 ICntrl=       0 DoSepK=F KAlg= 0 I1Cent=           0 FoldK=F
 IRaf= 950000000 NMat=       1 IRICut=       1 DoRegI=T DoRafI=F ISym2E= 0 IDoP0=0 IntGTp=1.
 FoFCou: FMM=F IPFlag=           0 FMFlag=      100000 FMFlg1=           0
         NFxFlg=           0 DoJE=F BraDBF=F KetDBF=F FulRan=T
         wScrn=  0.000000 ICntrl=         0 IOpCl=  0 I1Cent=           0 NGrid=           0
         NMat0=    1 NMatS0=      1 NMatT0=    0 NMatD0=    1 NMtDS0=    0 NMtDT0=    0
 Symmetry not used in FoFCou.
 E= -194.031876715339    
 DIIS: error= 1.83D-03 at cycle   1 NSaved=   1.
 NSaved= 1 IEnMin= 1 EnMin= -194.031876715339     IErMin= 1 ErrMin= 1.83D-03
 ErrMax= 1.83D-03  0.00D+00 EMaxC= 1.00D-01 BMatC= 1.36D-03 BMatP= 1.36D-03
 IDIUse=3 WtCom= 9.82D-01 WtEn= 1.83D-02
 Coeff-Com:  0.100D+01
 Coeff-En:   0.100D+01
 Coeff:      0.100D+01
 Gap=     0.908 Goal=   None    Shift=    0.000
 GapD=    0.908 DampG=2.000 DampE=1.000 DampFc=2.0000 IDamp=-1.
 RMSDP=2.76D-04 MaxDP=1.06D-02              OVMax= 7.34D-03

 Cycle   2  Pass 0  IDiag  1:
 RMSU=  2.74D-04    CP:  9.97D-01
 E= -194.032820450548     Delta-E=       -0.000943735209 Rises=F Damp=F
 DIIS: error= 5.39D-04 at cycle   2 NSaved=   2.
 NSaved= 2 IEnMin= 2 EnMin= -194.032820450548     IErMin= 2 ErrMin= 5.39D-04
 ErrMax= 5.39D-04  0.00D+00 EMaxC= 1.00D-01 BMatC= 7.33D-05 BMatP= 1.36D-03
 IDIUse=3 WtCom= 9.95D-01 WtEn= 5.39D-03
 Coeff-Com:  0.677D-01 0.932D+00
 Coeff-En:   0.000D+00 0.100D+01
 Coeff:      0.673D-01 0.933D+00
 Gap=     0.303 Goal=   None    Shift=    0.000
 RMSDP=4.26D-05 MaxDP=1.32D-03 DE=-9.44D-04 OVMax= 4.57D-03

 Cycle   3  Pass 0  IDiag  1:
 RMSU=  4.17D-05    CP:  9.97D-01  1.03D+00
 E= -194.032857823334     Delta-E=       -0.000037372786 Rises=F Damp=F
 DIIS: error= 3.64D-04 at cycle   3 NSaved=   3.
 NSaved= 3 IEnMin= 3 EnMin= -194.032857823334     IErMin= 3 ErrMin= 3.64D-04
 ErrMax= 3.64D-04  0.00D+00 EMaxC= 1.00D-01 BMatC= 4.08D-05 BMatP= 7.33D-05
 IDIUse=3 WtCom= 9.96D-01 WtEn= 3.64D-03
 Coeff-Com: -0.144D-01 0.420D+00 0.595D+00
 Coeff-En:   0.000D+00 0.291D+00 0.709D+00
 Coeff:     -0.144D-01 0.419D+00 0.595D+00
 Gap=     0.303 Goal=   None    Shift=    0.000
 RMSDP=1.88D-05 MaxDP=6.84D-04 DE=-3.74D-05 OVMax= 2.28D-03

 Cycle   4  Pass 0  IDiag  1:
 RMSU=  1.21D-05    CP:  9.97D-01  1.05D+00  6.86D-01
 E= -194.032896068782     Delta-E=       -0.000038245448 Rises=F Damp=F
 DIIS: error= 1.50D-04 at cycle   4 NSaved=   4.
 NSaved= 4 IEnMin= 4 EnMin= -194.032896068782     IErMin= 4 ErrMin= 1.50D-04
 ErrMax= 1.50D-04  0.00D+00 EMaxC= 1.00D-01 BMatC= 2.97D-06 BMatP= 4.08D-05
 IDIUse=3 WtCom= 9.99D-01 WtEn= 1.50D-03
 Coeff-Com: -0.998D-02 0.121D+00 0.264D+00 0.625D+00
 Coeff-En:   0.000D+00 0.000D+00 0.000D+00 0.100D+01
 Coeff:     -0.996D-02 0.121D+00 0.264D+00 0.625D+00
 Gap=     0.303 Goal=   None    Shift=    0.000
 RMSDP=5.43D-06 MaxDP=1.67D-04 DE=-3.82D-05 OVMax= 7.27D-04

 Initial convergence to 1.0D-05 achieved.  Increase integral accuracy.
 Cycle   5  Pass 1  IDiag  1:
 E= -194.032920322519     Delta-E=       -0.000024253737 Rises=F Damp=F
 DIIS: error= 5.91D-05 at cycle   1 NSaved=   1.
 NSaved= 1 IEnMin= 1 EnMin= -194.032920322519     IErMin= 1 ErrMin= 5.91D-05
 ErrMax= 5.91D-05  0.00D+00 EMaxC= 1.00D-01 BMatC= 9.41D-07 BMatP= 9.41D-07
 IDIUse=1 WtCom= 1.00D+00 WtEn= 0.00D+00
 Coeff-Com:  0.100D+01
 Coeff:      0.100D+01
 Gap=     0.303 Goal=   None    Shift=    0.000
 RMSDP=5.43D-06 MaxDP=1.67D-04 DE=-2.43D-05 OVMax= 5.70D-04

 Cycle   6  Pass 1  IDiag  1:
 RMSU=  4.01D-05    CP:  1.00D+00
 E= -194.032919843990     Delta-E=        0.000000478529 Rises=F Damp=F
 DIIS: error= 9.56D-05 at cycle   2 NSaved=   2.
 NSaved= 2 IEnMin= 1 EnMin= -194.032920322519     IErMin= 1 ErrMin= 5.91D-05
 ErrMax= 9.56D-05  0.00D+00 EMaxC= 1.00D-01 BMatC= 1.26D-06 BMatP= 9.41D-07
 IDIUse=1 WtCom= 1.00D+00 WtEn= 0.00D+00
 Coeff-Com:  0.542D+00 0.458D+00
 Coeff:      0.542D+00 0.458D+00
 Gap=     0.303 Goal=   None    Shift=    0.000
 RMSDP=2.74D-06 MaxDP=1.01D-04 DE= 4.79D-07 OVMax= 4.40D-04

 Cycle   7  Pass 1  IDiag  1:
 RMSU=  2.74D-06    CP:  1.00D+00  1.00D+00
 E= -194.032920961038     Delta-E=       -0.000001117048 Rises=F Damp=F
 DIIS: error= 2.60D-05 at cycle   3 NSaved=   3.
 NSaved= 3 IEnMin= 3 EnMin= -194.032920961038     IErMin= 3 ErrMin= 2.60D-05
 ErrMax= 2.60D-05  0.00D+00 EMaxC= 1.00D-01 BMatC= 6.61D-08 BMatP= 9.41D-07
 IDIUse=1 WtCom= 1.00D+00 WtEn= 0.00D+00
 Coeff-Com:  0.430D-01 0.190D+00 0.767D+00
 Coeff:      0.430D-01 0.190D+00 0.767D+00
 Gap=     0.303 Goal=   None    Shift=    0.000
 RMSDP=1.09D-06 MaxDP=2.76D-05 DE=-1.12D-06 OVMax= 1.01D-04

 Cycle   8  Pass 1  IDiag  1:
 RMSU=  5.88D-07    CP:  1.00D+00  1.02D+00  8.43D-01
 E= -194.032921020231     Delta-E=       -0.000000059194 Rises=F Damp=F
 DIIS: error= 5.34D-06 at cycle   4 NSaved=   4.
 NSaved= 4 IEnMin= 4 EnMin= -194.032921020231     IErMin= 4 ErrMin= 5.34D-06
 ErrMax= 5.34D-06  0.00D+00 EMaxC= 1.00D-01 BMatC= 7.25D-09 BMatP= 6.61D-08
 IDIUse=1 WtCom= 1.00D+00 WtEn= 0.00D+00
 Coeff-Com: -0.102D-01 0.661D-01 0.387D+00 0.557D+00
 Coeff:     -0.102D-01 0.661D-01 0.387D+00 0.557D+00
 Gap=     0.303 Goal=   None    Shift=    0.000
 RMSDP=2.78D-07 MaxDP=8.96D-06 DE=-5.92D-08 OVMax= 3.00D-05

 Cycle   9  Pass 1  IDiag  1:
 RMSU=  1.92D-07    CP:  1.00D+00  1.03D+00  8.66D-01  8.06D-01
 E= -194.032921027298     Delta-E=       -0.000000007066 Rises=F Damp=F
 DIIS: error= 9.71D-07 at cycle   5 NSaved=   5.
 NSaved= 5 IEnMin= 5 EnMin= -194.032921027298     IErMin= 5 ErrMin= 9.71D-07
 ErrMax= 9.71D-07  0.00D+00 EMaxC= 1.00D-01 BMatC= 1.66D-10 BMatP= 7.25D-09
 IDIUse=1 WtCom= 1.00D+00 WtEn= 0.00D+00
 Coeff-Com: -0.547D-02 0.177D-01 0.120D+00 0.203D+00 0.664D+00
 Coeff:     -0.547D-02 0.177D-01 0.120D+00 0.203D+00 0.664D+00
 Gap=     0.303 Goal=   None    Shift=    0.000
 RMSDP=5.51D-08 MaxDP=1.61D-06 DE=-7.07D-09 OVMax= 9.55D-06

 Cycle  10  Pass 1  IDiag  1:
 RMSU=  5.05D-08    CP:  1.00D+00  1.03D+00  8.69D-01  8.39D-01  1.02D+00
 E= -194.032921027461     Delta-E=       -0.000000000163 Rises=F Damp=F
 DIIS: error= 3.51D-07 at cycle   6 NSaved=   6.
 NSaved= 6 IEnMin= 6 EnMin= -194.032921027461     IErMin= 6 ErrMin= 3.51D-07
 ErrMax= 3.51D-07  0.00D+00 EMaxC= 1.00D-01 BMatC= 3.43D-11 BMatP= 1.66D-10
 IDIUse=1 WtCom= 1.00D+00 WtEn= 0.00D+00
 Coeff-Com:  0.212D-03-0.817D-02-0.394D-01-0.496D-01 0.285D+00 0.812D+00
 Coeff:      0.212D-03-0.817D-02-0.394D-01-0.496D-01 0.285D+00 0.812D+00
 Gap=     0.303 Goal=   None    Shift=    0.000
 RMSDP=2.85D-08 MaxDP=6.23D-07 DE=-1.63D-10 OVMax= 2.43D-06

 Cycle  11  Pass 1  IDiag  1:
 RMSU=  1.68D-08    CP:  1.00D+00  1.03D+00  8.71D-01  8.59D-01  1.12D+00
                    CP:  9.57D-01
 E= -194.032921027499     Delta-E=       -0.000000000038 Rises=F Damp=F
 DIIS: error= 7.99D-08 at cycle   7 NSaved=   7.
 NSaved= 7 IEnMin= 7 EnMin= -194.032921027499     IErMin= 7 ErrMin= 7.99D-08
 ErrMax= 7.99D-08  0.00D+00 EMaxC= 1.00D-01 BMatC= 1.40D-12 BMatP= 3.43D-11
 IDIUse=1 WtCom= 1.00D+00 WtEn= 0.00D+00
 Coeff-Com:  0.346D-03-0.406D-02-0.215D-01-0.296D-01 0.785D-01 0.310D+00
 Coeff-Com:  0.666D+00
 Coeff:      0.346D-03-0.406D-02-0.215D-01-0.296D-01 0.785D-01 0.310D+00
 Coeff:      0.666D+00
 Gap=     0.303 Goal=   None    Shift=    0.000
 RMSDP=5.21D-09 MaxDP=1.25D-07 DE=-3.76D-11 OVMax= 3.94D-07

 SCF Done:  E(RM062X) =  -194.032921027     A.U. after   11 cycles
            NFock= 11  Conv=0.52D-08     -V/T= 2.0062
 KE= 1.928462780288D+02 PE=-7.263025011766D+02 EE= 2.008823418334D+02
 Leave Link  502 at Sat Sep 26 00:10:58 2020, MaxMem=   268435456 cpu:             176.0 elap:              22.2
 (Enter /applis/site/cecic/gaussian16/B.01/nehalem/g16/l701.exe)
 ... and contract with generalized density number  0.
 Compute integral first derivatives.
 Leave Link  701 at Sat Sep 26 00:10:59 2020, MaxMem=   268435456 cpu:               1.6 elap:               0.3
 (Enter /applis/site/cecic/gaussian16/B.01/nehalem/g16/l702.exe)
 L702 exits ... SP integral derivatives will be done elsewhere.
 Leave Link  702 at Sat Sep 26 00:10:59 2020, MaxMem=   268435456 cpu:               0.5 elap:               0.1
 (Enter /applis/site/cecic/gaussian16/B.01/nehalem/g16/l703.exe)
 Integral derivatives from FoFJK, PRISM(SPDF).
 Compute integral first derivatives, UseDBF=F ICtDFT=           0.
 Calling FoFJK, ICntrl=      2127 FMM=F ISym2X=0 I1Cent= 0 IOpClX= 0 NMat=1 NMatS=1 NMatT=0.
 FoFJK:  IHMeth= 1 ICntrl=    2127 DoSepK=F KAlg= 0 I1Cent=           0 FoldK=F
 IRaf=         0 NMat=       1 IRICut=       1 DoRegI=T DoRafI=F ISym2E= 0 IDoP0=0 IntGTp=1.
 FoFCou: FMM=F IPFlag=           0 FMFlag=      100000 FMFlg1=         800
         NFxFlg=           0 DoJE=F BraDBF=F KetDBF=F FulRan=T
         wScrn=  0.000000 ICntrl=      2127 IOpCl=  0 I1Cent=           0 NGrid=           0
         NMat0=    1 NMatS0=      1 NMatT0=    0 NMatD0=    1 NMtDS0=    0 NMtDT0=    0
 Symmetry not used in FoFCou.
 Leave Link  703 at Sat Sep 26 00:11:05 2020, MaxMem=   268435456 cpu:              48.4 elap:               6.1
 (Enter /applis/site/cecic/gaussian16/B.01/nehalem/g16/l716.exe)
 Dipole        = 3.10248047D-01-2.20003478D-01 2.23593489D-01
 -------------------------------------------------------------------
 Center     Atomic                   Forces (Hartrees/Bohr)
 Number     Number              X              Y              Z
 -------------------------------------------------------------------
      1        6          -0.001272022    0.001688379   -0.000929634
      2        1          -0.000227085    0.000607669   -0.000231529
      3        1          -0.000292732    0.000603975   -0.000136392
      4        1          -0.000232671   -0.000355902   -0.000165572
      5        6          -0.002296585   -0.003617691   -0.001641776
      6        1           0.000389079    0.000749744    0.000283775
      7        6           0.003588197    0.001752547    0.002569208
      8        1          -0.000450297   -0.000608486   -0.000324598
      9        6           0.000166301    0.000172304    0.000124148
     10        6           0.000762021    0.000292870    0.000557970
     11        1          -0.000134206   -0.001285408   -0.000105599
 -------------------------------------------------------------------
 Cartesian Forces:  Max     0.003617691 RMS     0.001282680
 Leave Link  716 at Sat Sep 26 00:11:05 2020, MaxMem=   268435456 cpu:               0.6 elap:               0.2
 (Enter /applis/site/cecic/gaussian16/B.01/nehalem/g16/l103.exe)

 GradGradGradGradGradGradGradGradGradGradGradGradGradGradGradGradGradGrad
 Berny optimization.
 Using GEDIIS/GDIIS optimizer.
 FormGI is forming the generalized inverse of G from B-inverse, IUseBI=4.
 Internal  Forces:  Max     0.004848849 RMS     0.001180657
 Search for a local minimum.
 Step number   2 out of a maximum of  100
 All quantities printed in internal units (Hartrees-Bohrs-Radians)
 RMS Force = .11807D-02 SwitMx=.10000D-02 MixMth= 1
 Mixed Optimization -- RFO/linear search
 Update second derivatives using D2CorX and points    1    2
 DE= -2.93D-03 DEPred=-3.26D-03 R= 8.98D-01
 TightC=F SS=  1.41D+00  RLast= 1.42D-01 DXNew= 5.0454D-01 4.2482D-01
 Trust test= 8.98D-01 RLast= 1.42D-01 DXMaxT set to 4.25D-01
 ITU=  1  0
 Use linear search instead of GDIIS.
     Eigenvalues ---    0.00995   0.01010   0.01024   0.01867   0.03109
     Eigenvalues ---    0.03109   0.04827   0.04837   0.07324   0.07405
     Eigenvalues ---    0.15987   0.16000   0.16000   0.16000   0.16278
     Eigenvalues ---    0.21668   0.22036   0.33164   0.33454   0.33628
     Eigenvalues ---    0.35391   0.36750   0.37822   0.42688   0.45647
     Eigenvalues ---    0.63961   1.08798
 RFO step:  Lambda=-3.84336709D-04 EMin= 9.95485162D-03
 Quartic linear search produced a step of -0.06370.
 Iteration  1 RMS(Cart)=  0.05513949 RMS(Int)=  0.00480804
 Iteration  2 RMS(Cart)=  0.00494292 RMS(Int)=  0.00001515
 Iteration  3 RMS(Cart)=  0.00002150 RMS(Int)=  0.00000519
 Iteration  4 RMS(Cart)=  0.00000000 RMS(Int)=  0.00000519
 ITry= 1 IFail=0 DXMaxC= 1.71D-01 DCOld= 1.00D+10 DXMaxT= 4.25D-01 DXLimC= 3.00D+00 Rises=F
 Variable       Old X    -DE/DX   Delta X   Delta X   Delta X     New X
                                 (Linear)    (Quad)   (Total)
    R1        2.06311  -0.00024   0.00124  -0.00310  -0.00186   2.06125
    R2        2.06311  -0.00024   0.00124  -0.00311  -0.00187   2.06124
    R3        2.05630   0.00045   0.00148  -0.00165  -0.00017   2.05612
    R4        2.82938  -0.00353  -0.00201  -0.00561  -0.00763   2.82175
    R5        2.04677   0.00088  -0.00141   0.00501   0.00360   2.05038
    R6        2.52396  -0.00485  -0.00153  -0.00437  -0.00590   2.51806
    R7        2.04728   0.00079  -0.00244   0.00677   0.00432   2.05160
    R8        2.69876  -0.00124  -0.00305   0.00347   0.00042   2.69918
    R9        2.26811  -0.00126  -0.00087   0.00064  -0.00023   2.26788
   R10        2.00955  -0.00096  -0.00372   0.00523   0.00151   2.01106
    A1        1.86364   0.00055   0.00193  -0.00202  -0.00010   1.86354
    A2        1.89116   0.00040   0.00077   0.00156   0.00234   1.89350
    A3        1.93791  -0.00081  -0.00127  -0.00270  -0.00397   1.93395
    A4        1.89119   0.00040   0.00077   0.00158   0.00236   1.89355
    A5        1.93791  -0.00080  -0.00127  -0.00262  -0.00389   1.93402
    A6        1.93946   0.00032  -0.00078   0.00413   0.00336   1.94282
    A7        2.05015  -0.00009   0.00135  -0.00320  -0.00185   2.04830
    A8        2.16536  -0.00004  -0.00325   0.00616   0.00291   2.16827
    A9        2.06767   0.00013   0.00190  -0.00296  -0.00106   2.06661
   A10        2.09209   0.00002   0.00179  -0.00304  -0.00126   2.09084
   A11        2.15083   0.00041  -0.00234   0.00630   0.00396   2.15479
   A12        2.04026  -0.00043   0.00055  -0.00326  -0.00271   2.03756
   A13        3.14647   0.00167   0.00047   0.03138   0.03185   3.17832
   A14        3.11275   0.00175   0.00181   0.15717   0.15898   3.27172
   A15        3.14163  -0.00001  -0.00000  -0.00017  -0.00017   3.14146
   A16        3.14239  -0.00001  -0.00005  -0.00064  -0.00069   3.14170
    D1        1.03510  -0.00018   0.00040  -0.00306  -0.00264   1.03246
    D2       -2.10641  -0.00018   0.00040  -0.00309  -0.00269  -2.10910
    D3       -1.03548   0.00018  -0.00038   0.00291   0.00253  -1.03296
    D4        2.10619   0.00018  -0.00038   0.00288   0.00248   2.10867
    D5        3.14138  -0.00000   0.00001  -0.00011  -0.00010   3.14129
    D6       -0.00013  -0.00000   0.00001  -0.00015  -0.00014  -0.00027
    D7       -0.00016   0.00000   0.00001   0.00005   0.00007  -0.00010
    D8        3.14150  -0.00000   0.00001  -0.00000   0.00000   3.14150
    D9        3.14150   0.00000   0.00001   0.00002   0.00002   3.14153
   D10       -0.00002  -0.00000   0.00000  -0.00004  -0.00004  -0.00006
         Item               Value     Threshold  Converged?
 Maximum Force            0.004849     0.000450     NO 
 RMS     Force            0.001181     0.000300     NO 
 Maximum Displacement     0.171434     0.001800     NO 
 RMS     Displacement     0.056110     0.001200     NO 
 Predicted change in Energy=-2.060438D-04
 Lowest energy point so far.  Saving SCF results.
 GradGradGradGradGradGradGradGradGradGradGradGradGradGradGradGradGradGrad

 Leave Link  103 at Sat Sep 26 00:11:05 2020, MaxMem=   268435456 cpu:               1.1 elap:               0.2
 (Enter /applis/site/cecic/gaussian16/B.01/nehalem/g16/l202.exe)
                          Input orientation:                          
 ---------------------------------------------------------------------
 Center     Atomic      Atomic             Coordinates (Angstroms)
 Number     Number       Type             X           Y           Z
 ---------------------------------------------------------------------
      1          6           0        0.020991   -0.034348    0.015110
      2          1           0        0.037626   -0.043303    1.105714
      3          1           0        1.060356   -0.043537   -0.315638
      4          1           0       -0.459137   -0.947646   -0.330176
      5          6           0       -0.687267    1.177343   -0.494634
      6          1           0       -0.289147    2.145120   -0.207994
      7          6           0       -1.768359    1.141825   -1.272791
      8          1           0       -2.185599    0.185643   -1.573269
      9          6           0       -2.433177    2.312027   -1.751135
     10          6           0       -3.020619    3.269314   -2.173964
     11          1           0       -3.626570    4.027729   -2.610044
 ---------------------------------------------------------------------
                    Distance matrix (angstroms):
                    1          2          3          4          5
     1  C    0.000000
     2  H    1.090768   0.000000
     3  H    1.090761   1.751062   0.000000
     4  H    1.088053   1.768160   1.768187   0.000000
     5  C    1.493206   2.139290   2.139340   2.143518   0.000000
     6  H    2.212700   2.573287   2.573513   3.099843   1.085013
     7  C    2.498769   3.213004   3.212920   2.639787   1.332498
     8  H    2.727707   3.488853   3.488608   2.410455   2.095692
     9  C    3.827276   4.451296   4.451305   4.067116   2.431976
    10  C    4.995760   5.575175   5.575188   5.267209   3.555421
    11  H    6.057772   6.618647   6.618670   6.323352   4.608596
                    6          7          8          9         10
     6  H    0.000000
     7  C    2.080496   0.000000
     8  H    3.049600   1.085661   0.000000
     9  C    2.646887   1.428345   2.148125   0.000000
    10  C    3.548209   2.628018   3.250710   1.200112   0.000000
    11  H    4.522439   3.683699   4.232367   2.259545   1.064207
                   11
    11  H    0.000000
 Symmetry turned off by external request.
 Stoichiometry    C5H6
 Framework group  C1[X(C5H6)]
 Deg. of freedom    27
 Full point group                 C1      NOp   1
 Rotational constants (GHZ):          39.4610322           2.2555867           2.1618328
 Leave Link  202 at Sat Sep 26 00:11:05 2020, MaxMem=   268435456 cpu:               0.7 elap:               0.1
 (Enter /applis/site/cecic/gaussian16/B.01/nehalem/g16/l301.exe)
 Standard basis: CC-pVTZ (5D, 7F)
 Ernie: Thresh=  0.10000D-02 Tol=  0.10000D-05 Strict=F.
 Ernie:  15 primitive shells out of 178 were deleted.
   234 basis functions,   362 primitive gaussians,   265 cartesian basis functions
    18 alpha electrons       18 beta electrons
       nuclear repulsion energy       138.6072635951 Hartrees.
 IExCor= 4336 DFT=T Ex+Corr=M062X ExCW=0 ScaHFX=  0.540000
 ScaDFX=  1.000000  1.000000  1.000000  1.000000 ScalE2=  1.000000  1.000000
 IRadAn=      5 IRanWt=     -1 IRanGd=            0 ICorTp=0 IEmpDi=  4
 NAtoms=   11 NActive=   11 NUniq=   11 SFac= 1.00D+00 NAtFMM=   60 NAOKFM=F Big=F
 Integral buffers will be    131072 words long.
 Raffenetti 2 integral format.
 Two-electron integral symmetry is turned off.
 Leave Link  301 at Sat Sep 26 00:11:06 2020, MaxMem=   268435456 cpu:               0.6 elap:               0.1
 (Enter /applis/site/cecic/gaussian16/B.01/nehalem/g16/l302.exe)
 NPDir=0 NMtPBC=     1 NCelOv=     1 NCel=       1 NClECP=     1 NCelD=      1
         NCelK=      1 NCelE2=     1 NClLst=     1 CellRange=     0.0.
 One-electron integrals computed using PRISM.
 NBasis=   234 RedAO= T EigKep=  3.78D-05  NBF=   234
 NBsUse=   234 1.00D-06 EigRej= -1.00D+00 NBFU=   234
 Precomputing XC quadrature grid using
 IXCGrd= 4 IRadAn=           5 IRanWt=          -1 IRanGd=           0 AccXCQ= 0.00D+00.
 Generated NRdTot=       0 NPtTot=           0 NUsed=           0 NTot=          32
 NSgBfM=   265   265   265   265   265 MxSgAt=    11 MxSgA2=    11.
 Leave Link  302 at Sat Sep 26 00:11:06 2020, MaxMem=   268435456 cpu:               1.8 elap:               0.3
 (Enter /applis/site/cecic/gaussian16/B.01/nehalem/g16/l303.exe)
 DipDrv:  MaxL=1.
 Leave Link  303 at Sat Sep 26 00:11:06 2020, MaxMem=   268435456 cpu:               0.8 elap:               0.2
 (Enter /applis/site/cecic/gaussian16/B.01/nehalem/g16/l401.exe)
 Initial guess from the checkpoint file:  "input.chk"
 B after Tr=     0.002792   -0.005014    0.001994
         Rot=    0.999990   -0.002613   -0.000010    0.003613 Ang=  -0.51 deg.
 Guess basis will be translated and rotated to current coordinates.
 JPrj=2 DoOrth=T DoCkMO=T.
 Generating alternative initial guess.
 ExpMin= 1.03D-01 ExpMax= 8.24D+03 ExpMxC= 2.81D+02 IAcc=3 IRadAn=         5 AccDes= 0.00D+00
 Harris functional with IExCor= 1009 and IRadAn=       5 diagonalized for initial guess.
 HarFok:  IExCor= 1009 AccDes= 0.00D+00 IRadAn=         5 IDoV= 1 UseB2=F ITyADJ=14
 ICtDFT=  3500011 ScaDFX=  1.000000  1.000000  1.000000  1.000000
 FoFCou: FMM=F IPFlag=           0 FMFlag=      100000 FMFlg1=           0
         NFxFlg=           0 DoJE=T BraDBF=F KetDBF=T FulRan=T
         wScrn=  0.000000 ICntrl=       500 IOpCl=  0 I1Cent=   200000004 NGrid=           0
         NMat0=    1 NMatS0=      1 NMatT0=    0 NMatD0=    1 NMtDS0=    0 NMtDT0=    0
 Symmetry not used in FoFCou.
 Harris En= -194.013760438355    
 Leave Link  401 at Sat Sep 26 00:11:07 2020, MaxMem=   268435456 cpu:               7.6 elap:               1.1
 (Enter /applis/site/cecic/gaussian16/B.01/nehalem/g16/l502.exe)
 Two-electron integral symmetry not used.
 Closed shell SCF:
 Using DIIS extrapolation, IDIIS=  1040.
 NGot=   268435456 LenX=   268291054 LenY=   268220388
 Requested convergence on RMS density matrix=1.00D-08 within 128 cycles.
 Requested convergence on MAX density matrix=1.00D-06.
 Requested convergence on             energy=1.00D-06.
 No special actions if energy rises.
 Fock matrices will be formed incrementally for  20 cycles.
 Integral accuracy reduced to 1.0D-05 until final iterations.

 Cycle   1  Pass 0  IDiag  1:
 FoFJK:  IHMeth= 1 ICntrl=       0 DoSepK=F KAlg= 0 I1Cent=           0 FoldK=F
 IRaf= 950000000 NMat=       1 IRICut=       1 DoRegI=T DoRafI=F ISym2E= 0 IDoP0=0 IntGTp=1.
 FoFCou: FMM=F IPFlag=           0 FMFlag=      100000 FMFlg1=           0
         NFxFlg=           0 DoJE=F BraDBF=F KetDBF=F FulRan=T
         wScrn=  0.000000 ICntrl=         0 IOpCl=  0 I1Cent=           0 NGrid=           0
         NMat0=    1 NMatS0=      1 NMatT0=    0 NMatD0=    1 NMtDS0=    0 NMtDT0=    0
 Symmetry not used in FoFCou.
 E= -194.029371227212    
 DIIS: error= 5.00D-03 at cycle   1 NSaved=   1.
 NSaved= 1 IEnMin= 1 EnMin= -194.029371227212     IErMin= 1 ErrMin= 5.00D-03
 ErrMax= 5.00D-03  0.00D+00 EMaxC= 1.00D-01 BMatC= 3.49D-03 BMatP= 3.49D-03
 IDIUse=3 WtCom= 9.50D-01 WtEn= 5.00D-02
 Coeff-Com:  0.100D+01
 Coeff-En:   0.100D+01
 Coeff:      0.100D+01
 Gap=     0.906 Goal=   None    Shift=    0.000
 GapD=    0.906 DampG=2.000 DampE=1.000 DampFc=2.0000 IDamp=-1.
 RMSDP=6.27D-04 MaxDP=1.82D-02              OVMax= 1.86D-02

 Cycle   2  Pass 0  IDiag  1:
 RMSU=  6.26D-04    CP:  9.97D-01
 E= -194.032208428206     Delta-E=       -0.002837200995 Rises=F Damp=F
 DIIS: error= 8.07D-04 at cycle   2 NSaved=   2.
 NSaved= 2 IEnMin= 2 EnMin= -194.032208428206     IErMin= 2 ErrMin= 8.07D-04
 ErrMax= 8.07D-04  0.00D+00 EMaxC= 1.00D-01 BMatC= 4.61D-05 BMatP= 3.49D-03
 IDIUse=3 WtCom= 9.92D-01 WtEn= 8.07D-03
 Coeff-Com: -0.643D-01 0.106D+01
 Coeff-En:   0.000D+00 0.100D+01
 Coeff:     -0.637D-01 0.106D+01
 Gap=     0.304 Goal=   None    Shift=    0.000
 RMSDP=5.29D-05 MaxDP=1.74D-03 DE=-2.84D-03 OVMax= 4.79D-03

 Cycle   3  Pass 0  IDiag  1:
 RMSU=  4.25D-05    CP:  9.97D-01  1.05D+00
 E= -194.032291723884     Delta-E=       -0.000083295678 Rises=F Damp=F
 DIIS: error= 3.31D-04 at cycle   3 NSaved=   3.
 NSaved= 3 IEnMin= 3 EnMin= -194.032291723884     IErMin= 3 ErrMin= 3.31D-04
 ErrMax= 3.31D-04  0.00D+00 EMaxC= 1.00D-01 BMatC= 1.81D-05 BMatP= 4.61D-05
 IDIUse=3 WtCom= 9.97D-01 WtEn= 3.31D-03
 Coeff-Com: -0.322D-01 0.409D+00 0.623D+00
 Coeff-En:   0.000D+00 0.000D+00 0.100D+01
 Coeff:     -0.321D-01 0.408D+00 0.624D+00
 Gap=     0.304 Goal=   None    Shift=    0.000
 RMSDP=1.57D-05 MaxDP=4.81D-04 DE=-8.33D-05 OVMax= 2.06D-03

 Cycle   4  Pass 0  IDiag  1:
 RMSU=  1.56D-05    CP:  9.97D-01  1.05D+00  1.05D+00
 E= -194.032304944695     Delta-E=       -0.000013220811 Rises=F Damp=F
 DIIS: error= 2.14D-04 at cycle   4 NSaved=   4.
 NSaved= 4 IEnMin= 4 EnMin= -194.032304944695     IErMin= 4 ErrMin= 2.14D-04
 ErrMax= 2.14D-04  0.00D+00 EMaxC= 1.00D-01 BMatC= 6.77D-06 BMatP= 1.81D-05
 IDIUse=3 WtCom= 9.98D-01 WtEn= 2.14D-03
 Coeff-Com:  0.446D-03-0.860D-01 0.376D+00 0.709D+00
 Coeff-En:   0.000D+00 0.000D+00 0.239D+00 0.761D+00
 Coeff:      0.445D-03-0.858D-01 0.376D+00 0.709D+00
 Gap=     0.304 Goal=   None    Shift=    0.000
 RMSDP=1.04D-05 MaxDP=3.15D-04 DE=-1.32D-05 OVMax= 9.61D-04

 Cycle   5  Pass 0  IDiag  1:
 RMSU=  5.20D-06    CP:  9.97D-01  1.04D+00  1.22D+00  8.53D-01
 E= -194.032311729573     Delta-E=       -0.000006784878 Rises=F Damp=F
 DIIS: error= 4.07D-05 at cycle   5 NSaved=   5.
 NSaved= 5 IEnMin= 5 EnMin= -194.032311729573     IErMin= 5 ErrMin= 4.07D-05
 ErrMax= 4.07D-05  0.00D+00 EMaxC= 1.00D-01 BMatC= 3.55D-07 BMatP= 6.77D-06
 IDIUse=1 WtCom= 1.00D+00 WtEn= 0.00D+00
 Coeff-Com:  0.212D-02-0.640D-01 0.140D+00 0.327D+00 0.594D+00
 Coeff:      0.212D-02-0.640D-01 0.140D+00 0.327D+00 0.594D+00
 Gap=     0.304 Goal=   None    Shift=    0.000
 RMSDP=2.64D-06 MaxDP=7.67D-05 DE=-6.78D-06 OVMax= 2.96D-04

 Initial convergence to 1.0D-05 achieved.  Increase integral accuracy.
 Cycle   6  Pass 1  IDiag  1:
 E= -194.032336126267     Delta-E=       -0.000024396693 Rises=F Damp=F
 DIIS: error= 5.75D-05 at cycle   1 NSaved=   1.
 NSaved= 1 IEnMin= 1 EnMin= -194.032336126267     IErMin= 1 ErrMin= 5.75D-05
 ErrMax= 5.75D-05  0.00D+00 EMaxC= 1.00D-01 BMatC= 4.22D-07 BMatP= 4.22D-07
 IDIUse=1 WtCom= 1.00D+00 WtEn= 0.00D+00
 Coeff-Com:  0.100D+01
 Coeff:      0.100D+01
 Gap=     0.304 Goal=   None    Shift=    0.000
 RMSDP=2.64D-06 MaxDP=7.67D-05 DE=-2.44D-05 OVMax= 2.28D-04

 Cycle   7  Pass 1  IDiag  1:
 RMSU=  4.18D-05    CP:  1.00D+00
 E= -194.032336257558     Delta-E=       -0.000000131291 Rises=F Damp=F
 DIIS: error= 2.18D-05 at cycle   2 NSaved=   2.
 NSaved= 2 IEnMin= 2 EnMin= -194.032336257558     IErMin= 2 ErrMin= 2.18D-05
 ErrMax= 2.18D-05  0.00D+00 EMaxC= 1.00D-01 BMatC= 7.59D-08 BMatP= 4.22D-07
 IDIUse=1 WtCom= 1.00D+00 WtEn= 0.00D+00
 Coeff-Com:  0.200D+00 0.800D+00
 Coeff:      0.200D+00 0.800D+00
 Gap=     0.304 Goal=   None    Shift=    0.000
 RMSDP=1.85D-06 MaxDP=4.56D-05 DE=-1.31D-07 OVMax= 2.33D-04

 Cycle   8  Pass 1  IDiag  1:
 RMSU=  1.37D-06    CP:  1.00D+00  1.03D+00
 E= -194.032336255378     Delta-E=        0.000000002181 Rises=F Damp=F
 DIIS: error= 2.52D-05 at cycle   3 NSaved=   3.
 NSaved= 3 IEnMin= 2 EnMin= -194.032336257558     IErMin= 2 ErrMin= 2.18D-05
 ErrMax= 2.52D-05  0.00D+00 EMaxC= 1.00D-01 BMatC= 8.02D-08 BMatP= 7.59D-08
 IDIUse=1 WtCom= 1.00D+00 WtEn= 0.00D+00
 Coeff-Com: -0.102D-01 0.509D+00 0.501D+00
 Coeff:     -0.102D-01 0.509D+00 0.501D+00
 Gap=     0.304 Goal=   None    Shift=    0.000
 RMSDP=8.03D-07 MaxDP=3.20D-05 DE= 2.18D-09 OVMax= 1.13D-04

 Cycle   9  Pass 1  IDiag  1:
 RMSU=  3.27D-07    CP:  1.00D+00  1.04D+00  5.95D-01
 E= -194.032336334804     Delta-E=       -0.000000079427 Rises=F Damp=F
 DIIS: error= 2.45D-06 at cycle   4 NSaved=   4.
 NSaved= 4 IEnMin= 4 EnMin= -194.032336334804     IErMin= 4 ErrMin= 2.45D-06
 ErrMax= 2.45D-06  0.00D+00 EMaxC= 1.00D-01 BMatC= 1.16D-09 BMatP= 7.59D-08
 IDIUse=1 WtCom= 1.00D+00 WtEn= 0.00D+00
 Coeff-Com: -0.841D-02 0.267D+00 0.271D+00 0.471D+00
 Coeff:     -0.841D-02 0.267D+00 0.271D+00 0.471D+00
 Gap=     0.304 Goal=   None    Shift=    0.000
 RMSDP=9.92D-08 MaxDP=2.89D-06 DE=-7.94D-08 OVMax= 1.18D-05

 Cycle  10  Pass 1  IDiag  1:
 RMSU=  8.63D-08    CP:  1.00D+00  1.04D+00  5.99D-01  9.82D-01
 E= -194.032336335880     Delta-E=       -0.000000001076 Rises=F Damp=F
 DIIS: error= 5.36D-07 at cycle   5 NSaved=   5.
 NSaved= 5 IEnMin= 5 EnMin= -194.032336335880     IErMin= 5 ErrMin= 5.36D-07
 ErrMax= 5.36D-07  0.00D+00 EMaxC= 1.00D-01 BMatC= 4.37D-11 BMatP= 1.16D-09
 IDIUse=1 WtCom= 1.00D+00 WtEn= 0.00D+00
 Coeff-Com: -0.306D-03-0.192D-01-0.197D-01 0.130D+00 0.909D+00
 Coeff:     -0.306D-03-0.192D-01-0.197D-01 0.130D+00 0.909D+00
 Gap=     0.304 Goal=   None    Shift=    0.000
 RMSDP=4.85D-08 MaxDP=2.53D-06 DE=-1.08D-09 OVMax= 2.76D-06

 Cycle  11  Pass 1  IDiag  1:
 RMSU=  2.74D-08    CP:  1.00D+00  1.04D+00  6.03D-01  1.07D+00  9.81D-01
 E= -194.032336335928     Delta-E=       -0.000000000048 Rises=F Damp=F
 DIIS: error= 9.87D-08 at cycle   6 NSaved=   6.
 NSaved= 6 IEnMin= 6 EnMin= -194.032336335928     IErMin= 6 ErrMin= 9.87D-08
 ErrMax= 9.87D-08  0.00D+00 EMaxC= 1.00D-01 BMatC= 3.32D-12 BMatP= 4.37D-11
 IDIUse=1 WtCom= 1.00D+00 WtEn= 0.00D+00
 Coeff-Com:  0.401D-03-0.234D-01-0.234D-01 0.164D-01 0.323D+00 0.707D+00
 Coeff:      0.401D-03-0.234D-01-0.234D-01 0.164D-01 0.323D+00 0.707D+00
 Gap=     0.304 Goal=   None    Shift=    0.000
 RMSDP=9.07D-09 MaxDP=2.43D-07 DE=-4.82D-11 OVMax= 6.50D-07

 SCF Done:  E(RM062X) =  -194.032336336     A.U. after   11 cycles
            NFock= 11  Conv=0.91D-08     -V/T= 2.0061
 KE= 1.928606249350D+02 PE=-7.264479336378D+02 EE= 2.009477087718D+02
 Leave Link  502 at Sat Sep 26 00:11:29 2020, MaxMem=   268435456 cpu:             172.5 elap:              21.7
 (Enter /applis/site/cecic/gaussian16/B.01/nehalem/g16/l701.exe)
 ... and contract with generalized density number  0.
 Compute integral first derivatives.
 Leave Link  701 at Sat Sep 26 00:11:29 2020, MaxMem=   268435456 cpu:               1.6 elap:               0.3
 (Enter /applis/site/cecic/gaussian16/B.01/nehalem/g16/l702.exe)
 L702 exits ... SP integral derivatives will be done elsewhere.
 Leave Link  702 at Sat Sep 26 00:11:29 2020, MaxMem=   268435456 cpu:               0.4 elap:               0.1
 (Enter /applis/site/cecic/gaussian16/B.01/nehalem/g16/l703.exe)
 Integral derivatives from FoFJK, PRISM(SPDF).
 Compute integral first derivatives, UseDBF=F ICtDFT=           0.
 Calling FoFJK, ICntrl=      2127 FMM=F ISym2X=0 I1Cent= 0 IOpClX= 0 NMat=1 NMatS=1 NMatT=0.
 FoFJK:  IHMeth= 1 ICntrl=    2127 DoSepK=F KAlg= 0 I1Cent=           0 FoldK=F
 IRaf=         0 NMat=       1 IRICut=       1 DoRegI=T DoRafI=F ISym2E= 0 IDoP0=0 IntGTp=1.
 FoFCou: FMM=F IPFlag=           0 FMFlag=      100000 FMFlg1=         800
[...]
 RLE energy=       -0.8388761692
 DE(Corr)= -0.83871138     E(CORR)=     -193.65835370     Delta=-2.09D-03
 NORM(A)=   0.11497701D+01
 Iteration Nr.   5
 **********************
 DD1Dir will call FoFJK   3 times, MxPair=        62
 NAB=    91 NAA=     0 NBB=     0 NumPrc=  8.
 DD1Dir:  Pass   1 NRAB=    31 NRAA=     0 NRBB=     0 NR=    62.
 DD1Dir:  Pass   2 NRAB=    31 NRAA=     0 NRBB=     0 NR=    62.
 DD1Dir:  Pass   3 NRAB=    29 NRAA=     0 NRBB=     0 NR=    58.
 A-vector RMS=  3.8989457D-05 Max=  5.5952159D-04 conv= 1.00D-05.
 RLE energy=       -0.8390062344
 DE(Corr)= -0.83893851     E(CORR)=     -193.65858083     Delta=-2.27D-04
 NORM(A)=   0.11500215D+01
 Iteration Nr.   6
 **********************
 DD1Dir will call FoFJK   3 times, MxPair=        62
 NAB=    91 NAA=     0 NBB=     0 NumPrc=  8.
 DD1Dir:  Pass   1 NRAB=    31 NRAA=     0 NRBB=     0 NR=    62.
 DD1Dir:  Pass   2 NRAB=    31 NRAA=     0 NRBB=     0 NR=    62.
 DD1Dir:  Pass   3 NRAB=    29 NRAA=     0 NRBB=     0 NR=    58.
 A-vector RMS=  7.0158927D-06 Max=  9.7542008D-05 conv= 1.00D-05.
 RLE energy=       -0.8389702424
 DE(Corr)= -0.83897781     E(CORR)=     -193.65862013     Delta=-3.93D-05
 NORM(A)=   0.11500386D+01
 Iteration Nr.   7
 **********************
 DD1Dir will call FoFJK   3 times, MxPair=        62
 NAB=    91 NAA=     0 NBB=     0 NumPrc=  8.
 DD1Dir:  Pass   1 NRAB=    31 NRAA=     0 NRBB=     0 NR=    62.
 DD1Dir:  Pass   2 NRAB=    31 NRAA=     0 NRBB=     0 NR=    62.
 DD1Dir:  Pass   3 NRAB=    29 NRAA=     0 NRBB=     0 NR=    58.
 A-vector RMS=  5.3645620D-06 Max=  1.0382537D-04 conv= 1.00D-05.
 RLE energy=       -0.8389733509
 DE(Corr)= -0.83898167     E(CORR)=     -193.65862398     Delta=-3.85D-06
 NORM(A)=   0.11500435D+01
 Iteration Nr.   8
 **********************
 DD1Dir will call FoFJK   3 times, MxPair=        62
 NAB=    91 NAA=     0 NBB=     0 NumPrc=  8.
 DD1Dir:  Pass   1 NRAB=    31 NRAA=     0 NRBB=     0 NR=    62.
 DD1Dir:  Pass   2 NRAB=    31 NRAA=     0 NRBB=     0 NR=    62.
 DD1Dir:  Pass   3 NRAB=    29 NRAA=     0 NRBB=     0 NR=    58.
 A-vector RMS=  1.4080617D-06 Max=  1.8490221D-05 conv= 1.00D-05.
 RLE energy=       -0.8389775607
 DE(Corr)= -0.83897901     E(CORR)=     -193.65862132     Delta= 2.66D-06
 NORM(A)=   0.11500460D+01
 Iteration Nr.   9
 **********************
 DD1Dir will call FoFJK   3 times, MxPair=        62
 NAB=    91 NAA=     0 NBB=     0 NumPrc=  8.
 DD1Dir:  Pass   1 NRAB=    31 NRAA=     0 NRBB=     0 NR=    62.
 DD1Dir:  Pass   2 NRAB=    31 NRAA=     0 NRBB=     0 NR=    62.
 DD1Dir:  Pass   3 NRAB=    29 NRAA=     0 NRBB=     0 NR=    58.
 A-vector RMS=  9.8476226D-07 Max=  2.0688852D-05 conv= 1.00D-05.
 RLE energy=       -0.8389791658
 DE(Corr)= -0.83897966     E(CORR)=     -193.65862197     Delta=-6.48D-07
 NORM(A)=   0.11500476D+01
 Iteration Nr.  10
 **********************
 DD1Dir will call FoFJK   3 times, MxPair=        62
 NAB=    91 NAA=     0 NBB=     0 NumPrc=  8.
 DD1Dir:  Pass   1 NRAB=    31 NRAA=     0 NRBB=     0 NR=    62.
 DD1Dir:  Pass   2 NRAB=    31 NRAA=     0 NRBB=     0 NR=    62.
 DD1Dir:  Pass   3 NRAB=    29 NRAA=     0 NRBB=     0 NR=    58.
 A-vector RMS=  3.5287011D-07 Max=  5.8585789D-06 conv= 1.00D-05.
 RLE energy=       -0.8389804111
 DE(Corr)= -0.83898020     E(CORR)=     -193.65862252     Delta=-5.47D-07
 NORM(A)=   0.11500489D+01
 Iteration Nr.  11
 **********************
 DD1Dir will call FoFJK   3 times, MxPair=        62
 NAB=    91 NAA=     0 NBB=     0 NumPrc=  8.
 DD1Dir:  Pass   1 NRAB=    31 NRAA=     0 NRBB=     0 NR=    62.
 DD1Dir:  Pass   2 NRAB=    31 NRAA=     0 NRBB=     0 NR=    62.
 DD1Dir:  Pass   3 NRAB=    29 NRAA=     0 NRBB=     0 NR=    58.
 A-vector RMS=  1.0363498D-07 Max=  1.4209374D-06 conv= 1.00D-05.
 RLE energy=       -0.8389807867
 DE(Corr)= -0.83898064     E(CORR)=     -193.65862296     Delta=-4.41D-07
 NORM(A)=   0.11500496D+01
 Iteration Nr.  12
 **********************
 DD1Dir will call FoFJK   3 times, MxPair=        62
 NAB=    91 NAA=     0 NBB=     0 NumPrc=  8.
 DD1Dir:  Pass   1 NRAB=    31 NRAA=     0 NRBB=     0 NR=    62.
 DD1Dir:  Pass   2 NRAB=    31 NRAA=     0 NRBB=     0 NR=    62.
 DD1Dir:  Pass   3 NRAB=    29 NRAA=     0 NRBB=     0 NR=    58.
 A-vector RMS=  6.3766532D-08 Max=  9.1063077D-07 conv= 1.00D-05.
 RLE energy=       -0.8389810006
 DE(Corr)= -0.83898091     E(CORR)=     -193.65862322     Delta=-2.64D-07
 NORM(A)=   0.11500500D+01
 Iteration Nr.  13
 **********************
 DD1Dir will call FoFJK   3 times, MxPair=        62
 NAB=    91 NAA=     0 NBB=     0 NumPrc=  8.
 DD1Dir:  Pass   1 NRAB=    31 NRAA=     0 NRBB=     0 NR=    62.
 DD1Dir:  Pass   2 NRAB=    31 NRAA=     0 NRBB=     0 NR=    62.
 DD1Dir:  Pass   3 NRAB=    29 NRAA=     0 NRBB=     0 NR=    58.
 A-vector RMS=  2.0448143D-08 Max=  2.6728006D-07 conv= 1.00D-05.
 RLE energy=       -0.8389810917
 DE(Corr)= -0.83898104     E(CORR)=     -193.65862336     Delta=-1.32D-07
 NORM(A)=   0.11500503D+01
 Iteration Nr.  14
 **********************
 DD1Dir will call FoFJK   3 times, MxPair=        62
 NAB=    91 NAA=     0 NBB=     0 NumPrc=  8.
 DD1Dir:  Pass   1 NRAB=    31 NRAA=     0 NRBB=     0 NR=    62.
 DD1Dir:  Pass   2 NRAB=    31 NRAA=     0 NRBB=     0 NR=    62.
 DD1Dir:  Pass   3 NRAB=    29 NRAA=     0 NRBB=     0 NR=    58.
 A-vector RMS=  1.2556070D-08 Max=  2.1886628D-07 conv= 1.00D-05.
 RLE energy=       -0.8389811157
 DE(Corr)= -0.83898110     E(CORR)=     -193.65862342     Delta=-5.96D-08
 NORM(A)=   0.11500503D+01
 CI/CC converged in   14 iterations to DelEn=-5.96D-08 Conv= 1.00D-07 ErrA1= 1.26D-08 Conv= 1.00D-05
 Wavefunction amplitudes converged. E(Corr)=     -193.65862342    
 Largest amplitude= 4.83D-02
 T4(AAA)= -0.10987128D-02
 T4(AAB)= -0.20452815D-01
 T5(AAA)=  0.34934467D-04
 T5(AAB)=  0.50974448D-03
 Time for triples=    34338.94 seconds.
 T4(CCSD)= -0.43103056D-01
 T5(CCSD)=  0.10893579D-02
 CCSD(T)= -0.19370063711D+03
 Discarding MO integrals.
 Leave Link  913 at Sat Sep 26 02:11:00 2020, MaxMem=   327680000 cpu:           50891.8 elap:            6583.0
 (Enter /applis/site/cecic/gaussian16/B.01/nehalem/g16/l601.exe)
 Copying SCF densities to generalized density rwf, IOpCl= 0 IROHF=0.

 **********************************************************************

            Population analysis using the SCF Density.

 **********************************************************************

 Orbital symmetries:
       Occupied  (A) (A) (A) (A) (A) (A) (A) (A) (A) (A) (A) (A)
                 (A) (A) (A) (A) (A) (A)
       Virtual   (A) (A) (A) (A) (A) (A) (A) (A) (A) (A) (A) (A)
                 (A) (A) (A) (A) (A) (A) (A) (A) (A) (A) (A) (A)
                 (A) (A) (A) (A) (A) (A) (A) (A) (A) (A) (A) (A)
                 (A) (A) (A) (A) (A) (A) (A) (A) (A) (A) (A) (A)
                 (A) (A) (A) (A) (A) (A) (A) (A) (A) (A) (A) (A)
                 (A) (A) (A) (A) (A) (A) (A) (A) (A) (A) (A) (A)
                 (A) (A) (A) (A) (A) (A) (A) (A) (A) (A) (A) (A)
                 (A) (A) (A) (A) (A) (A) (A) (A) (A) (A) (A) (A)
                 (A) (A) (A) (A) (A) (A) (A) (A) (A) (A) (A) (A)
                 (A) (A) (A) (A) (A) (A) (A) (A) (A) (A) (A) (A)
                 (A) (A) (A) (A) (A) (A) (A) (A) (A) (A) (A) (A)
                 (A) (A) (A) (A) (A) (A) (A) (A) (A) (A) (A) (A)
                 (A) (A) (A) (A) (A) (A) (A) (A) (A) (A) (A) (A)
                 (A) (A) (A) (A) (A) (A) (A) (A) (A) (A) (A) (A)
                 (A) (A) (A) (A) (A) (A) (A) (A) (A) (A) (A) (A)
                 (A) (A) (A) (A) (A) (A) (A) (A) (A) (A) (A) (A)
                 (A) (A) (A) (A) (A) (A) (A) (A) (A) (A) (A) (A)
                 (A) (A) (A) (A) (A) (A) (A) (A) (A) (A) (A) (A)
                 (A) (A) (A) (A) (A) (A) (A) (A) (A) (A) (A) (A)
                 (A) (A) (A) (A) (A) (A) (A) (A) (A) (A) (A) (A)
                 (A) (A) (A) (A) (A) (A) (A) (A) (A) (A) (A) (A)
                 (A) (A) (A) (A) (A) (A) (A) (A) (A) (A) (A) (A)
                 (A) (A) (A) (A) (A) (A) (A) (A) (A) (A) (A) (A)
                 (A) (A) (A) (A) (A) (A) (A) (A) (A) (A) (A) (A)
                 (A) (A) (A) (A) (A) (A) (A) (A) (A) (A) (A) (A)
                 (A) (A) (A) (A) (A) (A) (A) (A) (A) (A) (A) (A)
                 (A) (A) (A) (A) (A) (A) (A) (A) (A) (A) (A) (A)
                 (A) (A) (A) (A) (A) (A) (A) (A) (A) (A) (A) (A)
                 (A) (A) (A) (A) (A) (A) (A) (A) (A) (A) (A) (A)
                 (A) (A)
 The electronic state is 1-A.
 Alpha  occ. eigenvalues --  -11.25146 -11.24824 -11.23359 -11.23192 -11.22145
 Alpha  occ. eigenvalues --   -1.10411  -1.02598  -0.94847  -0.80014  -0.72285
 Alpha  occ. eigenvalues --   -0.67191  -0.61139  -0.58017  -0.54832  -0.51807
 Alpha  occ. eigenvalues --   -0.45546  -0.39228  -0.33340
 Alpha virt. eigenvalues --    0.02923   0.03366   0.03835   0.04589   0.04969
 Alpha virt. eigenvalues --    0.06140   0.08395   0.09457   0.09725   0.09751
 Alpha virt. eigenvalues --    0.09895   0.11454   0.12154   0.12489   0.13168
 Alpha virt. eigenvalues --    0.13634   0.14142   0.15214   0.15454   0.15784
 Alpha virt. eigenvalues --    0.16012   0.17850   0.19371   0.20466   0.21448
 Alpha virt. eigenvalues --    0.22855   0.22912   0.23367   0.25769   0.25815
 Alpha virt. eigenvalues --    0.26706   0.27099   0.29311   0.29866   0.30292
 Alpha virt. eigenvalues --    0.31427   0.32242   0.32670   0.32889   0.34029
 Alpha virt. eigenvalues --    0.35021   0.35380   0.36037   0.36509   0.37332
 Alpha virt. eigenvalues --    0.38246   0.38578   0.38861   0.39976   0.41064
 Alpha virt. eigenvalues --    0.42111   0.42999   0.43521   0.43739   0.44213
 Alpha virt. eigenvalues --    0.44373   0.45438   0.46326   0.46428   0.46874
 Alpha virt. eigenvalues --    0.47168   0.47547   0.48780   0.50798   0.52148
 Alpha virt. eigenvalues --    0.52207   0.52826   0.53027   0.53923   0.54594
 Alpha virt. eigenvalues --    0.54728   0.55653   0.57790   0.59945   0.61536
 Alpha virt. eigenvalues --    0.62408   0.64286   0.66107   0.66979   0.68075
 Alpha virt. eigenvalues --    0.70600   0.71057   0.71705   0.77688   0.77905
 Alpha virt. eigenvalues --    0.80749   0.81436   0.81470   0.82257   0.83624
 Alpha virt. eigenvalues --    0.85140   0.86482   0.87191   0.88395   0.89065
 Alpha virt. eigenvalues --    0.89927   0.90192   0.90496   0.92613   0.93957
 Alpha virt. eigenvalues --    0.94005   0.94570   0.96414   0.96835   0.97698
 Alpha virt. eigenvalues --    0.97899   0.98257   0.99288   1.00461   1.00912
 Alpha virt. eigenvalues --    1.01767   1.02019   1.05053   1.06059   1.06101
 Alpha virt. eigenvalues --    1.06520   1.07483   1.07897   1.08918   1.09191
 Alpha virt. eigenvalues --    1.10196   1.10870   1.11339   1.12233   1.12754
 Alpha virt. eigenvalues --    1.13896   1.15430   1.15754   1.17987   1.18713
 Alpha virt. eigenvalues --    1.19705   1.20355   1.21423   1.21954   1.23430
 Alpha virt. eigenvalues --    1.24026   1.24398   1.27502   1.28450   1.30001
 Alpha virt. eigenvalues --    1.30944   1.31899   1.36149   1.36173   1.38330
 Alpha virt. eigenvalues --    1.39703   1.39835   1.40538   1.44517   1.46539
 Alpha virt. eigenvalues --    1.47516   1.48311   1.51991   1.53335   1.53921
 Alpha virt. eigenvalues --    1.56709   1.58520   1.60090   1.60717   1.63160
 Alpha virt. eigenvalues --    1.63889   1.66369   1.68633   1.69843   1.70718
 Alpha virt. eigenvalues --    1.70808   1.72845   1.73886   1.74739   1.76294
 Alpha virt. eigenvalues --    1.77271   1.79974   1.81638   1.83207   1.84397
 Alpha virt. eigenvalues --    1.85852   1.86408   1.89410   1.90674   1.90978
 Alpha virt. eigenvalues --    1.93139   1.95038   1.96720   2.00338   2.00373
 Alpha virt. eigenvalues --    2.01091   2.03040   2.04298   2.08237   2.12270
 Alpha virt. eigenvalues --    2.14375   2.15651   2.16879   2.17737   2.19236
 Alpha virt. eigenvalues --    2.21880   2.22981   2.24663   2.24913   2.27314
 Alpha virt. eigenvalues --    2.30491   2.31592   2.32808   2.35150   2.38667
 Alpha virt. eigenvalues --    2.40077   2.44947   2.52624   2.55254   2.57385
 Alpha virt. eigenvalues --    2.58846   2.71933   2.79645   2.89295   2.91727
 Alpha virt. eigenvalues --    3.00285   3.14047   3.15648   3.17076   3.19343
 Alpha virt. eigenvalues --    3.20307   3.22713   3.27756   3.28187   3.30479
 Alpha virt. eigenvalues --    3.31298   3.31537   3.36757   3.36982   3.38212
 Alpha virt. eigenvalues --    3.40013   3.40126   3.44263   3.44940   3.45949
 Alpha virt. eigenvalues --    3.47758   3.48020   3.49346   3.53683   3.55055
 Alpha virt. eigenvalues --    3.55858   3.57934   3.59311   3.62384   3.63514
 Alpha virt. eigenvalues --    3.64194   3.68215   3.68914   3.71688   3.72477
 Alpha virt. eigenvalues --    3.73228   3.74747   3.75669   3.76987   3.79086
 Alpha virt. eigenvalues --    3.82252   3.83729   3.84863   3.85114   3.87657
 Alpha virt. eigenvalues --    3.89713   3.91818   3.92751   3.94853   3.96454
 Alpha virt. eigenvalues --    3.99691   4.01240   4.01711   4.03834   4.04270
 Alpha virt. eigenvalues --    4.06153   4.06308   4.11182   4.12434   4.17079
 Alpha virt. eigenvalues --    4.17827   4.22016   4.23173   4.26121   4.29805
 Alpha virt. eigenvalues --    4.31512   4.34028   4.36859   4.37209   4.39190
 Alpha virt. eigenvalues --    4.42400   4.42870   4.50280   4.52179   4.55928
 Alpha virt. eigenvalues --    4.59847   4.61847   4.64408   4.68053   4.69178
 Alpha virt. eigenvalues --    4.71439   4.75320   4.80163   4.80884   4.84561
 Alpha virt. eigenvalues --    4.87218   4.88096   4.92856   4.94785   4.98646
 Alpha virt. eigenvalues --    4.99034   5.04962   5.05820   5.06429   5.08207
 Alpha virt. eigenvalues --    5.14066   5.15324   5.19301   5.20545   5.25036
 Alpha virt. eigenvalues --    5.26393   5.33623   5.35224   5.35975   5.42665
 Alpha virt. eigenvalues --    5.43641   5.49432   5.54427   5.56022   5.63724
 Alpha virt. eigenvalues --    5.67639   5.68262   5.76873   5.80445   5.83903
 Alpha virt. eigenvalues --    6.04399   6.13136   6.17453   6.20858   6.22411
 Alpha virt. eigenvalues --    6.32832   6.42680   6.54157   6.59891   6.66316
 Alpha virt. eigenvalues --    6.72638   6.75244   6.88795   7.04707   7.21211
 Alpha virt. eigenvalues --   15.12178  17.37211  18.05883  19.46956  21.05425
          Condensed to atoms (all electrons):
               1          2          3          4          5          6
     1  C    5.662900   0.408687   0.408604   0.350558  -0.142679  -0.026260
     2  H    0.408687   0.326790   0.014543   0.010077  -0.036932  -0.021435
     3  H    0.408604   0.014543   0.326782   0.010035  -0.036877  -0.021426
     4  H    0.350558   0.010077   0.010035   0.286908   0.062846   0.001542
     5  C   -0.142679  -0.036932  -0.036877   0.062846   6.512590   0.347738
     6  H   -0.026260  -0.021435  -0.021426   0.001542   0.347738   0.491834
     7  C    0.044291  -0.000533  -0.000546  -0.008982  -0.168295   0.069394
     8  H    0.019533  -0.002953  -0.002957  -0.003677   0.053538   0.019659
     9  C   -0.008891   0.005138   0.005140   0.006134  -0.239492  -0.042202
    10  C   -0.008258  -0.001065  -0.001060   0.002680   0.183130  -0.015892
    11  H   -0.000391  -0.000067  -0.000067   0.000182   0.009247  -0.001019
               7          8          9         10         11
     1  C    0.044291   0.019533  -0.008891  -0.008258  -0.000391
     2  H   -0.000533  -0.002953   0.005138  -0.001065  -0.000067
     3  H   -0.000546  -0.002957   0.005140  -0.001060  -0.000067
     4  H   -0.008982  -0.003677   0.006134   0.002680   0.000182
     5  C   -0.168295   0.053538  -0.239492   0.183130   0.009247
     6  H    0.069394   0.019659  -0.042202  -0.015892  -0.001019
     7  C    6.407827   0.463928   0.208000  -0.636009  -0.026529
     8  H    0.463928   0.498426  -0.187810   0.004236   0.000017
     9  C    0.208000  -0.187810   6.116504  -1.232023  -0.091954
    10  C   -0.636009   0.004236  -1.232023   8.808430   0.421395
    11  H   -0.026529   0.000017  -0.091954   0.421395   0.233027
 Mulliken charges:
               1
     1  C   -0.708095
     2  H    0.297751
     3  H    0.297829
     4  H    0.281697
     5  C   -0.544815
     6  H    0.198067
     7  C   -0.352546
     8  H    0.138060
     9  C    1.461456
    10  C   -1.525563
    11  H    0.456158
 Sum of Mulliken charges =  -0.00000
 Mulliken charges with hydrogens summed into heavy atoms:
               1
     1  C    0.169183
     5  C   -0.346748
     7  C   -0.214487
     9  C    1.461456
    10  C   -1.069404
 Electronic spatial extent (au):  <R**2>=            564.3098
 Charge=             -0.0000 electrons
 Dipole moment (field-independent basis, Debye):
    X=              1.2182    Y=             -0.1900    Z=             -0.0001  Tot=              1.2330
 Quadrupole moment (field-independent basis, Debye-Ang):
   XX=            -25.4315   YY=            -29.9306   ZZ=            -33.6424
   XY=              0.9148   XZ=              0.0005   YZ=              0.0001
 Traceless Quadrupole moment (field-independent basis, Debye-Ang):
   XX=              4.2367   YY=             -0.2624   ZZ=             -3.9742
   XY=              0.9148   XZ=              0.0005   YZ=              0.0001
 Octapole moment (field-independent basis, Debye-Ang**2):
  XXX=            -16.8730  YYY=              1.3171  ZZZ=              0.0006  XYY=              5.1236
  XXY=             -7.3147  XXZ=             -0.0016  XZZ=              5.5163  YZZ=             -0.6292
  YYZ=             -0.0007  XYZ=             -0.0002
 Hexadecapole moment (field-independent basis, Debye-Ang**3):
 XXXX=           -555.8887 YYYY=            -69.5195 ZZZZ=            -46.8242 XXXY=             23.8511
 XXXZ=              0.0083 YYYX=              1.2115 YYYZ=             -0.0001 ZZZX=              0.0030
 ZZZY=              0.0002 XXYY=           -130.6755 XXZZ=           -127.7978 YYZZ=            -21.1498
 XXYZ=              0.0014 YYXZ=             -0.0021 ZZXY=             -1.7993
 N-N= 1.387133558955D+02 E-N=-7.258605155094D+02  KE= 1.925929643285D+02
 Leave Link  601 at Sat Sep 26 02:11:01 2020, MaxMem=   327680000 cpu:               1.4 elap:               0.4
 (Enter /applis/site/cecic/gaussian16/B.01/nehalem/g16/l9999.exe)
 1\1\GINC-DAHU113\SP\RCCSD(T)-FC\Aug-CC-pVTZ\C5H6\TINACCIL\26-Sep-2020\
 0\\#P CCSD(T)/aug-cc-pvtz geom=allcheck guess=read\\Title\\0,1\C,0,0.0
 223739648,-0.0242942342,0.0161200582\H,0,0.0389201701,-0.0231532093,1.
 1075266965\H,0,1.0623994236,-0.0234958855,-0.3151977097\H,0,-0.4478648
 338,-0.9461894784,-0.3218936079\C,0,-0.6979133228,1.1747006957,-0.5022
 528215\H,0,-0.309343166,2.1478908167,-0.2223864394\C,0,-1.7776606026,1
 .1220381187,-1.2795391156\H,0,-2.18572465,0.1608390834,-1.5734839506\C
 ,0,-2.4562089493,2.2781349697,-1.7677742424\C,0,-3.0423701752,3.235981
 6609,-2.1896914446\H,0,-3.5575115715,4.0877140634,-2.560246605\\Versio
 n=ES64L-G16RevB.01\State=1-A\HF=-192.8196423\MP2=-193.6272861\MP3=-193
 .6564398\MP4D=-193.6762443\MP4DQ=-193.6519312\MP4SDQ=-193.6591494\CCSD
 =-193.6586234\CCSD(T)=-193.7006371\RMSD=3.764e-09\PG=C01 [X(C5H6)]\\@


 TERENCE, THIS IS STUPID STUFF:
 YOU EAT YOUR VICTUALS FAST ENOUGH;
 THERE CAN'T BE MUCH AMISS, 'TIS CLEAR
 TO SEE THE RATE YOU DRINK YOUR BEER.
 BUT OH, GOOD LORD, THE VERSE YOU MAKE,
 IT GIVES A CHAP THE BELLY-ACHE.
 THE COW, THE OLD COW, SHE IS DEAD;
 IT SLEEPS WELL, THE HORNED HEAD:
 WE POOR LADS, 'TIS OUR TURN NOW
 TO HEAR SUCH TUNES AS KILLED THE COW.
 PRETTY FRIENDSHIP 'TIS TO RHYME
 YOUR FRIENDS TO DEATH BEFORE THEIR TIME.
 MOPING, MELANCHOLY MAD:
 COME PIPE A TUNE TO DANCE TO, LAD.

     -- A. E. HOUSMAN
 Job cpu time:       0 days 14 hours 40 minutes 20.2 seconds.
 Elapsed time:       0 days  1 hours 53 minutes 50.8 seconds.
 File lengths (MBytes):  RWF=  24840 Int=      0 D2E=      0 Chk=     12 Scr=      1
 Normal termination of Gaussian 16 at Sat Sep 26 02:11:01 2020.
