5
 energy: -7.103143026121 gnorm: 0.288149059725 xtb: 6.2.2 (9d81278992624c895f80dd42a50cac0aa55982e2)
C         0.78364800000000   -0.41252800000000    0.61100000000000
C        -0.66407900000000   -0.05759600000000    0.31977400000000
C         1.67866600000000    0.01400400000000   -0.53765800000000
H        -1.01882100000000   -0.58421500000000   -0.59145200000000
H        -0.77941300000000    1.04033500000000    0.19833700000000
5
 energy: -7.193904772563 gnorm: 0.131940866471 xtb: 6.2.2 (9d81278992624c895f80dd42a50cac0aa55982e2)
C         0.78687769865053   -0.36012056228084    0.50222192424317
C        -0.55642270652276   -0.03194897057331    0.23438551219038
C         1.64373904845113   -0.03237797544250   -0.43166552839809
H        -1.05939323592843   -0.61764458746766   -0.55591808681810
H        -0.81479980465046    1.04209209576431    0.25097717878265
5
 energy: -7.198898971382 gnorm: 0.223669877227 xtb: 6.2.2 (9d81278992624c895f80dd42a50cac0aa55982e2)
C         0.78177715185283   -0.30862825859149    0.39785123393417
C        -0.49378934492111   -0.01347487156519    0.17739926911743
C         1.64684968385904   -0.07360786908447   -0.34780090157006
H        -1.08904941877645   -0.62749692733922   -0.51497644891453
H        -0.84578707201431    1.02320792658037    0.28752784743299
5
 energy: -7.214792111759 gnorm: 0.088261728805 xtb: 6.2.2 (9d81278992624c895f80dd42a50cac0aa55982e2)
C         0.75707599792267   -0.27855586847825    0.34348159724384
C        -0.51411602098498    0.00530290074098    0.14493607598385
C         1.82911137108246   -0.10169506078336   -0.34527586627374
H        -1.15997583874198   -0.65354959289458   -0.48044120088714
H        -0.91209450927817    1.02849762141521    0.33730039393320
5
 energy: -7.217857900158 gnorm: 0.038577243027 xtb: 6.2.2 (9d81278992624c895f80dd42a50cac0aa55982e2)
C         0.76790975710253   -0.27053184418130    0.32369286275182
C        -0.53569605048677    0.00857622069416    0.14474451929962
C         1.84079352979821   -0.10850249919614   -0.33481477771047
H        -1.15781946631571   -0.63798693804083   -0.46702434724645
H        -0.91518677009826    1.00844506072411    0.33340274290548
5
 energy: -7.220319499283 gnorm: 0.022273333078 xtb: 6.2.2 (9d81278992624c895f80dd42a50cac0aa55982e2)
C         0.78174357667839   -0.24349086183687    0.26387666273653
C        -0.52721848287377    0.03046354223394    0.09715381733416
C         1.90695858624958   -0.13802156275914   -0.29415093603265
H        -1.20220713267507   -0.64870269913099   -0.43414405884431
H        -0.95927554737913    0.99975158149306    0.36726551480627
5
 energy: -7.221509177506 gnorm: 0.027163074373 xtb: 6.2.2 (9d81278992624c895f80dd42a50cac0aa55982e2)
C         0.75373020342674   -0.20586028517194    0.19496918935731
C        -0.54066083546450    0.04403604932006    0.07331025787051
C         1.93789648976387   -0.15794331856064   -0.26255736955795
H        -1.19566209867098   -0.65562851587819   -0.39933008133503
H        -0.95530275905513    0.97539607029071    0.39360900366515
5
 energy: -7.221892881867 gnorm: 0.008060102569 xtb: 6.2.2 (9d81278992624c895f80dd42a50cac0aa55982e2)
C         0.76087748973060   -0.20359506709097    0.18812290358519
C        -0.53687602925528    0.04860858585958    0.06275945167735
C         1.94325062802589   -0.16247422999024   -0.25483446794709
H        -1.20477427627035   -0.66330529118613   -0.39765779578701
H        -0.96247681223086    0.98076600240775    0.40161090847156
5
 energy: -7.222002714445 gnorm: 0.012200685082 xtb: 6.2.2 (9d81278992624c895f80dd42a50cac0aa55982e2)
C         0.76469650893089   -0.19293128605405    0.16516710242308
C        -0.53955110618921    0.05129571318873    0.05803102751584
C         1.96617615533130   -0.17226967422881   -0.24181098579109
H        -1.21665374965372   -0.66438326562563   -0.39003163515500
H        -0.97466680841925    0.97828851271976    0.40864549100717
5
 energy: -7.222151383345 gnorm: 0.008083756145 xtb: 6.2.2 (9d81278992624c895f80dd42a50cac0aa55982e2)
C         0.76692442560214   -0.18340580189716    0.14415497986057
C        -0.54247683523608    0.05188177889625    0.05777709056648
C         1.97404594299049   -0.17924606815421   -0.22889158484418
H        -1.22028638165433   -0.66434900406232   -0.38483792464638
H        -0.97820615170221    0.97511909521744    0.41179843906350
5
 energy: -7.222256428309 gnorm: 0.004347055647 xtb: 6.2.2 (9d81278992624c895f80dd42a50cac0aa55982e2)
C         0.76399157861458   -0.16731287661075    0.11757006181847
C        -0.54547026732721    0.05306912756522    0.05574689926597
C         1.98604050985513   -0.19115378596366   -0.21528794050192
H        -1.22123942595253   -0.66754198255452   -0.37940844023692
H        -0.98332139518997    0.97293951756370    0.42138041965439
5
 energy: -7.221967005285 gnorm: 0.022534613911 xtb: 6.2.2 (9d81278992624c895f80dd42a50cac0aa55982e2)
C         0.75604058063074   -0.16614137670122    0.06759445789335
C        -0.54942248560242    0.05581329800192    0.05564403597878
C         2.00563796124963   -0.17926544134880   -0.18112910004677
H        -1.24518860902409   -0.68138460687311   -0.35807164109966
H        -0.96706644725386    0.97097812692121    0.41596324727430
5
 energy: -7.222302190330 gnorm: 0.001384376351 xtb: 6.2.2 (9d81278992624c895f80dd42a50cac0aa55982e2)
C         0.76057247630092   -0.15715126371598    0.09213171065388
C        -0.54774048290925    0.05279554004958    0.05740186113426
C         1.99276377917677   -0.19586834407569   -0.20042182945514
H        -1.22419526923793   -0.67213135388374   -0.37409667363876
H        -0.98139950333049    0.97235542162584    0.42498593130577
5
 energy: -7.222300736233 gnorm: 0.003278992835 xtb: 6.2.2 (9d81278992624c895f80dd42a50cac0aa55982e2)
C         0.76215376477271   -0.15172126109426    0.08313505196132
C        -0.54879277129414    0.05373315462000    0.05558271471718
C         1.99973690601836   -0.20099718722204   -0.19541430085765
H        -1.22683310063758   -0.67212314508161   -0.37175394119743
H        -0.98626379885935    0.97110843877791    0.42845147537658
5
 energy: -7.222306260403 gnorm: 0.001241450770 xtb: 6.2.2 (9d81278992624c895f80dd42a50cac0aa55982e2)
C         0.76181637678802   -0.15291395480263    0.08410891060763
C        -0.54837955535308    0.05369079499802    0.05568989608053
C         1.99801603298758   -0.19964437821728   -0.19561793422199
H        -1.22666622809217   -0.67243815373910   -0.37180279830949
H        -0.98478562633034    0.97130569176100    0.42762292584332
5
 energy: -7.222307654214 gnorm: 0.000551515229 xtb: 6.2.2 (9d81278992624c895f80dd42a50cac0aa55982e2)
C         0.76111499629150   -0.15179303685431    0.08110721831119
C        -0.54835085434618    0.05403926081685    0.05509247435184
C         1.99769157181868   -0.20000600670668   -0.19364942083881
H        -1.22651835858547   -0.67317722472068   -0.37079212809106
H        -0.98393635517852    0.97093700746483    0.42824285626684
