      -----------------------------------------------------------      
     |                   =====================                   |     
     |                           x T B                           |     
     |                   =====================                   |     
     |                         S. Grimme                         |     
     |          Mulliken Center for Theoretical Chemistry        |     
     |                    University of Bonn                     |     
      -----------------------------------------------------------      

   * xtb version 6.2.2 (9d81278992624c895f80dd42a50cac0aa55982e2) compiled by '@Darwin' on 04/03/2020

   xtb is free software: you can redistribute it and/or modify it under
   the terms of the GNU Lesser General Public License as published by
   the Free Software Foundation, either version 3 of the License, or
   (at your option) any later version.
   
   xtb is distributed in the hope that it will be useful,
   but WITHOUT ANY WARRANTY; without even the implied warranty of
   MERCHANTABILITY or FITNESS FOR A PARTICULAR PURPOSE.  See the
   GNU Lesser General Public License for more details.
   
   Cite this work as:
   * S. Grimme, C. Bannwarth, P. Shushkov, J. Chem. Theory Comput., 2017,
     13, 1989-2009. DOI: 10.1021/acs.jctc.7b00118
   * C. Bannwarth, S. Ehlert and S. Grimme., J. Chem. Theory Comput., 2019,
     15, 1652-1671. DOI: 10.1021/acs.jctc.8b01176
   * P. Pracht, E. Caldeweyher, S. Ehlert, S. Grimme, ChemRxiv, 2019, preprint.
     DOI: 10.26434/chemrxiv.8326202.v1
   
   for DFT-D4:
   * E. Caldeweyher, C. Bannwarth and S. Grimme, J. Chem. Phys., 2017,
     147, 034112. DOI: 10.1063/1.4993215
   * E. Caldeweyher, S. Ehlert, A. Hansen, H. Neugebauer, S. Spicher,
     C. Bannwarth and S. Grimme, J. Chem. Phys., 2019, 150, 154122.
     DOI: 10.1063/1.5090222
   
   for sTDA-xTB:
   * S. Grimme and C. Bannwarth, J. Chem. Phys., 2016, 145, 054103.
     DOI: 10.1063/1.4959605
   
   in the mass-spec context:
   * V. Asgeirsson, C. Bauer and S. Grimme, Chem. Sci., 2017, 8, 4879.
     DOI: 10.1039/c7sc00601b
   
   for metadynamics refer to:
   * S. Grimme, J. Chem. Theory Comput., 2019, 155, 2847-2862
     DOI: 10.1021/acs.jctc.9b00143
   
   with help from (in alphabetical order)
   C. Bannwarth, F. Bohle, G. Brandenburg, E. Caldeweyher, M. Checinski,
   S. Dohm, S. Ehlert, S. Ehrlich, F. März, H. Neugebauer, J. Pisarek,
   P. Pracht, P. Shushkov, and S. Spicher.
   
 * started run on 2020/05/12 at 11:44:26.247     

           -------------------------------------------------
          |                Calculation Setup                |
           -------------------------------------------------

          program call               : xtb --input H2C3_2_S_0.input H2C3_2_S_0.xyz --ohess --molden --namespace H2C3_2_S_0 output.out
          calculation namespace      : H2C3_2_S_0
          coordinate file            : H2C3_2_S_0.xyz
          number of atoms            :                     5
          number of electrons        :                    14
          charge                     :                     0
          spin                       :                   0.0
          first test random number   :      0.84799879465729

   ID    Z sym.   atoms
    1    6 C      1-3
    2    1 H      4, 5

           -------------------------------------------------
          |                 G F N 2 - x T B                 |
           -------------------------------------------------

        Reference                      10.1021/acs.jctc.8b01176
      * Hamiltonian:
        H0-scaling (s, p, d)           1.850000    2.230000    2.230000
        zeta-weighting                 0.500000
      * Dispersion:
        s8                             2.700000
        a1                             0.520000
        a2                             5.000000
        s9                             5.000000
      * Repulsion:
        kExp                           1.500000    1.000000
        rExp                           1.000000
      * Coulomb:
        alpha                          2.000000
        third order                    shell-resolved
        anisotropic                    true
        a3                             3.000000
        a5                             4.000000
        cn-shift                       1.200000
        cn-exp                         4.000000
        max-rad                        5.000000


          ...................................................
          :                      SETUP                      :
          :.................................................:
          :  # basis functions                  14          :
          :  # atomic orbitals                  14          :
          :  # shells                            8          :
          :  # electrons                        14          :
          :  max. iterations                   250          :
          :  Hamiltonian                  GFN2-xTB          :
          :  restarted?                      false          :
          :  GBSA solvation                  false          :
          :  PC potential                    false          :
          :  electronic temp.          300.0000000     K    :
          :  accuracy                    1.0000000          :
          :  -> integral cutoff          0.2500000E+02      :
          :  -> integral neglect         0.1000000E-07      :
          :  -> SCF convergence          0.1000000E-05 Eh   :
          :  -> wf. convergence          0.1000000E-03 e    :
          :  Broyden damping             0.4000000          :
          ...................................................

 iter      E             dE          RMSdq      gap      omega  full diag
   1     -7.1404454 -0.714045E+01  0.878E+00    1.43       0.0  T
   2     -7.0757898  0.646556E-01  0.614E+00    1.19       1.0  T
   3     -6.4931763  0.582613E+00  0.936E+00    1.72       1.0  T
   4     -6.9050769 -0.411901E+00  0.554E+00    2.06       1.0  T
   5     -7.1568329 -0.251756E+00  0.107E+00    1.37       1.0  T
   6     -7.1607149 -0.388194E-02  0.404E-01    1.28       1.0  T
   7     -7.1581441  0.257079E-02  0.590E-01    1.23       1.0  T
   8     -7.1599415 -0.179744E-02  0.321E-01    1.28       1.0  T
   9     -7.1607511 -0.809631E-03  0.119E-01    1.27       1.0  T
  10     -7.1608725 -0.121326E-03  0.203E-02    1.26       2.2  T
  11     -7.1608758 -0.330614E-05  0.176E-03    1.26      25.4  T
  12     -7.1608758 -0.721982E-08  0.838E-04    1.26      53.4  T
  13     -7.1608758 -0.551567E-08  0.241E-04    1.26     185.2  T

   *** convergence criteria satisfied after 13 iterations ***

         #    Occupation            Energy/Eh            Energy/eV
      -------------------------------------------------------------
         1        2.0000           -0.6446545             -17.5419
         2        2.0000           -0.6072044             -16.5229
         3        2.0000           -0.5430941             -14.7783
         4        2.0000           -0.5203817             -14.1603
         5        2.0000           -0.4588866             -12.4869
         6        2.0000           -0.4387846             -11.9399
         7        2.0000           -0.4041117             -10.9964 (HOMO)
         8                         -0.3578901              -9.7387 (LUMO)
         9                         -0.3246531              -8.8343
        10                         -0.2779355              -7.5630
        11                          0.0916961               2.4952
        12                          0.1083206               2.9476
       ...                                ...                  ...
        14                          0.1577137               4.2916
      -------------------------------------------------------------
                  HL-Gap            0.0462217 Eh            1.2578 eV
             Fermi-level           -0.3810009 Eh          -10.3676 eV

 SCC (total)                   0 d,  0 h,  0 min,  0.003 sec
 SCC setup                      ...        0 min,  0.000 sec (  2.940%)
 Dispersion                     ...        0 min,  0.000 sec (  0.423%)
 integral evaluation            ...        0 min,  0.001 sec ( 26.357%)
 zeroth order Hamiltonian       ...        0 min,  0.000 sec (  0.496%)
 iterations                     ...        0 min,  0.001 sec ( 41.700%)
 molecular gradient             ...        0 min,  0.001 sec ( 25.733%)
 printout                       ...        0 min,  0.000 sec (  1.929%)

         :::::::::::::::::::::::::::::::::::::::::::::::::::::
         ::                     SUMMARY                     ::
         :::::::::::::::::::::::::::::::::::::::::::::::::::::
         :: total energy              -7.103143027874 Eh    ::
         :: gradient norm              0.288147499921 Eh/a0 ::
         :: HOMO-LUMO gap              1.257756129397 eV    ::
         ::.................................................::
         :: SCC energy                -7.160875781537 Eh    ::
         :: -> isotropic ES           -0.016847909283 Eh    ::
         :: -> anisotropic ES          0.001012105463 Eh    ::
         :: -> anisotropic XC          0.009410636519 Eh    ::
         :: -> dispersion             -0.001645348436 Eh    ::
         :: repulsion energy           0.057732704656 Eh    ::
         :: add. restraining           0.000000000000 Eh    ::
         :::::::::::::::::::::::::::::::::::::::::::::::::::::

      ----------------------------------------------------------- 
     |                   =====================                   |
     |                        A N C O P T                        |
     |                   =====================                   |
     |               Approximate Normal Coordinate               |
     |                Rational Function Optimizer                |
      ----------------------------------------------------------- 

          ...................................................
          :                      SETUP                      :
          :.................................................:
          :   optimization level            normal          :
          :   max. optcycles                   200          :
          :   ANC micro-cycles                  20          :
          :   degrees of freedom                 9          :
          :.................................................:
          :   RF solver                   davidson          :
          :   write xtbopt.log                true          :
          :   linear?                        false          :
          :   energy convergence         0.5000000E-05 Eh   :
          :   grad. convergence          0.1000000E-02 Eh/α :
          :   maximium RF displ.         1.0000000          :
          :   Hlow (freq-cutoff)         0.1000000E-01      :
          :   Hmax (freq-cutoff)         5.0000000          :
          :   S6 in model hess.         20.0000000          :
          ...................................................

generating ANC from model Hessian ...
Using Lindh-Hessian (1995)
 Shifting diagonal of input Hessian by    1.8343623479430901E-003
 Lowest  eigenvalues of input Hessian
   -0.000000   -0.000000   -0.000000   -0.000000    0.000000    0.000000
    0.010000    0.027332    0.081393    0.097915    0.120314    0.515120
    0.795020    0.977967    1.061728
 Highest eigenvalues
    0.097915    0.120314    0.515120    0.795020    0.977967    1.061728


........................................................................
.............................. CYCLE    1 ..............................
........................................................................
   1     -7.1608758 -0.716088E+01  0.133E-04    1.26       0.0  T
   2     -7.1608758  0.228839E-08  0.508E-04    1.26      88.1  T
   3     -7.1608758 -0.241137E-08  0.434E-05    1.26    1030.5  T
     SCC iter.                  ...        0 min,  0.000 sec
     gradient                   ...        0 min,  0.001 sec
 * total energy  :    -7.1031430 Eh     change        0.1753283E-08 Eh
   gradient norm :     0.2881491 Eh/α   predicted     0.0000000E+00 (-100.00%)
   displ. norm   :     0.4503208 α      lambda       -0.1153467E+00
   maximum displ.:     0.2753130 α      in ANC's #6, #7, #2, ...

........................................................................
.............................. CYCLE    2 ..............................
........................................................................
   1     -7.2993245 -0.729932E+01  0.209E+00    2.32       0.0  T
   2     -7.2284730  0.708515E-01  0.318E+00    2.17       1.0  T
   3     -7.3030969 -0.746239E-01  0.140E+00    2.38       1.0  T
   4     -7.3070866 -0.398978E-02  0.789E-01    2.22       1.0  T
   5     -7.3100397 -0.295307E-02  0.148E-01    2.32       1.0  T
   6     -7.3101113 -0.715434E-04  0.369E-02    2.31       1.2  T
   7     -7.3101141 -0.280499E-05  0.802E-03    2.31       5.6  T
   8     -7.3101142 -0.169048E-06  0.163E-03    2.31      27.4  T
   9     -7.3101142 -0.324382E-08  0.461E-04    2.31      97.1  T
  10     -7.3101142 -0.537907E-09  0.519E-05    2.31     862.1  T
     SCC iter.                  ...        0 min,  0.001 sec
     gradient                   ...        0 min,  0.001 sec
 * total energy  :    -7.1939048 Eh     change       -0.9076175E-01 Eh
   gradient norm :     0.1319347 Eh/α   predicted    -0.6936887E-01 ( -23.57%)
   displ. norm   :     0.3541952 α      lambda       -0.4184025E-01
   maximum displ.:     0.2382130 α      in ANC's #6, #2, #7, ...

........................................................................
.............................. CYCLE    3 ..............................
........................................................................
   1     -7.4148850 -0.741489E+01  0.149E+00    2.55       0.0  T
   2     -7.4068561  0.802887E-02  0.137E+00    2.41       1.0  T
   3     -7.4109420 -0.408582E-02  0.123E+00    2.56       1.0  T
   4     -7.4167726 -0.583062E-02  0.380E-01    2.44       1.0  T
   5     -7.4173411 -0.568570E-03  0.812E-02    2.44       1.0  T
   6     -7.4173613 -0.201675E-04  0.173E-02    2.44       2.6  T
   7     -7.4173616 -0.260922E-06  0.311E-03    2.44      14.4  T
   8     -7.4173616 -0.431068E-08  0.120E-03    2.44      37.4  T
   9     -7.4173616 -0.543564E-08  0.107E-04    2.44     418.8  T
  10     -7.4173616 -0.452118E-10  0.188E-05    2.44    2377.3  T
     SCC iter.                  ...        0 min,  0.001 sec
     gradient                   ...        0 min,  0.001 sec
 * total energy  :    -7.1988990 Eh     change       -0.4994199E-02 Eh
   gradient norm :     0.2224596 Eh/α   predicted    -0.2354463E-01 ( 371.44%)
   displ. norm   :     0.4395745 α      lambda       -0.4055900E-01
   maximum displ.:     0.4095958 α      in ANC's #2, #5, #7, ...

........................................................................
.............................. CYCLE    4 ..............................
........................................................................
   1     -7.3583920 -0.735839E+01  0.173E+00    2.12       0.0  T
   2     -7.3552320  0.316007E-02  0.122E+00    1.96       1.0  T
   3     -7.3518817  0.335029E-02  0.129E+00    2.04       1.0  T
   4     -7.3582268 -0.634511E-02  0.784E-01    2.10       1.0  T
   5     -7.3610651 -0.283828E-02  0.770E-02    2.01       1.0  T
   6     -7.3610759 -0.108472E-04  0.271E-02    2.01       1.6  T
   7     -7.3610771 -0.113839E-05  0.324E-03    2.01      13.8  T
   8     -7.3610771 -0.129533E-07  0.110E-03    2.01      40.7  T
   9     -7.3610771  0.236975E-08  0.662E-04    2.01      67.5  T
  10     -7.3610771 -0.284663E-08  0.600E-05    2.01     744.9  T
     SCC iter.                  ...        0 min,  0.001 sec
     gradient                   ...        0 min,  0.001 sec
 * total energy  :    -7.2147921 Eh     change       -0.1589314E-01 Eh
   gradient norm :     0.0880833 Eh/α   predicted    -0.2419802E-01 (  52.25%)
   displ. norm   :     0.0885506 α      lambda       -0.4951780E-02
   maximum displ.:     0.0551228 α      in ANC's #9, #4, #5, ...

........................................................................
.............................. CYCLE    5 ..............................
........................................................................
   1     -7.3697822 -0.736978E+01  0.334E-01    1.97       0.0  T
   2     -7.3697907 -0.850690E-05  0.194E-01    1.97       1.0  T
   3     -7.3696276  0.163174E-03  0.156E-01    1.98       1.0  T
   4     -7.3697920 -0.164435E-03  0.381E-02    1.97       1.2  T
   5     -7.3697963 -0.433124E-05  0.226E-02    1.98       2.0  T
   6     -7.3697978 -0.147684E-05  0.838E-03    1.98       5.3  T
   7     -7.3697980 -0.214009E-06  0.821E-04    1.98      54.5  T
   8     -7.3697980 -0.268304E-08  0.274E-04    1.98     163.1  T
     SCC iter.                  ...        0 min,  0.001 sec
     gradient                   ...        0 min,  0.001 sec
 * total energy  :    -7.2178579 Eh     change       -0.3065788E-02 Eh
   gradient norm :     0.0383831 Eh/α   predicted    -0.2495303E-02 ( -18.61%)
   displ. norm   :     0.2709065 α      lambda       -0.4296482E-02
   maximum displ.:     0.2396358 α      in ANC's #2, #6, #9, ...

........................................................................
.............................. CYCLE    6 ..............................
........................................................................
   1     -7.3731284 -0.737313E+01  0.918E-01    1.84       0.0  T
   2     -7.3724203  0.708068E-03  0.507E-01    1.78       1.0  T
   3     -7.3679129  0.450740E-02  0.101E+00    1.90       1.0  T
   4     -7.3732091 -0.529618E-02  0.160E-01    1.81       1.0  T
   5     -7.3733201 -0.110992E-03  0.190E-02    1.81       2.4  T
   6     -7.3733202 -0.107090E-06  0.994E-03    1.81       4.5  T
   7     -7.3733203 -0.731976E-07  0.102E-03    1.81      43.8  T
   8     -7.3733203 -0.134441E-08  0.276E-04    1.81     161.8  T
   9     -7.3733203 -0.234789E-09  0.579E-05    1.81     771.8  T
     SCC iter.                  ...        0 min,  0.001 sec
     gradient                   ...        0 min,  0.001 sec
 * total energy  :    -7.2203195 Eh     change       -0.2461599E-02 Eh
   gradient norm :     0.0222319 Eh/α   predicted    -0.2305901E-02 (  -6.33%)
   displ. norm   :     0.2141355 α      lambda       -0.3226158E-02
   maximum displ.:     0.1362053 α      in ANC's #6, #5, #2, ...

........................................................................
.............................. CYCLE    7 ..............................
........................................................................
   1     -7.3841488 -0.738415E+01  0.961E-01    1.68       0.0  T
   2     -7.3837856  0.363183E-03  0.566E-01    1.64       1.0  T
   3     -7.3798857  0.389994E-02  0.886E-01    1.74       1.0  T
   4     -7.3841704 -0.428468E-02  0.160E-01    1.66       1.0  T
   5     -7.3843080 -0.137583E-03  0.267E-02    1.66       1.7  T
   6     -7.3843090 -0.109045E-05  0.819E-03    1.67       5.5  T
   7     -7.3843091 -0.677677E-07  0.321E-03    1.67      13.9  T
   8     -7.3843091 -0.377545E-08  0.436E-04    1.67     102.6  T
   9     -7.3843091 -0.394923E-09  0.626E-05    1.67     714.0  T
     SCC iter.                  ...        0 min,  0.001 sec
     gradient                   ...        0 min,  0.001 sec
 * total energy  :    -7.2215092 Eh     change       -0.1189678E-02 Eh
   gradient norm :     0.0263057 Eh/α   predicted    -0.1687047E-02 (  41.81%)
   displ. norm   :     0.0480887 α      lambda       -0.6626274E-03
   maximum displ.:     0.0355869 α      in ANC's #2, #4, #7, ...

........................................................................
.............................. CYCLE    8 ..............................
........................................................................
   1     -7.3835212 -0.738352E+01  0.184E-01    1.63       0.0  T
   2     -7.3833889  0.132320E-03  0.139E-01    1.60       1.0  T
   3     -7.3834047 -0.157537E-04  0.184E-01    1.63       1.0  T
   4     -7.3835564 -0.151746E-03  0.175E-02    1.62       2.6  T
   5     -7.3835570 -0.630570E-06  0.819E-03    1.62       5.5  T
   6     -7.3835573 -0.233494E-06  0.226E-03    1.62      19.8  T
   7     -7.3835573 -0.124125E-07  0.619E-04    1.62      72.2  T
   8     -7.3835573 -0.566433E-09  0.962E-05    1.62     464.9  T
     SCC iter.                  ...        0 min,  0.000 sec
     gradient                   ...        0 min,  0.001 sec
 * total energy  :    -7.2218929 Eh     change       -0.3837044E-03 Eh
   gradient norm :     0.0078874 Eh/α   predicted    -0.3320797E-03 ( -13.45%)
   displ. norm   :     0.0821065 α      lambda       -0.2126209E-03
   maximum displ.:     0.0716432 α      in ANC's #2, #5, #7, ...

........................................................................
.............................. CYCLE    9 ..............................
........................................................................
   1     -7.3792683 -0.737927E+01  0.393E-01    1.57       0.0  T
   2     -7.3792215  0.467885E-04  0.211E-01    1.55       1.0  T
   3     -7.3786635  0.557991E-03  0.354E-01    1.60       1.0  T
   4     -7.3792632 -0.599658E-03  0.692E-02    1.57       1.0  T
   5     -7.3792910 -0.278657E-04  0.704E-03    1.57       6.4  T
   6     -7.3792911 -0.448207E-07  0.225E-03    1.57      19.9  T
   7     -7.3792911 -0.574976E-08  0.260E-04    1.57     172.3  T
   8     -7.3792911 -0.448841E-10  0.255E-05    1.57    1757.1  T
     SCC iter.                  ...        0 min,  0.001 sec
     gradient                   ...        0 min,  0.001 sec
 * total energy  :    -7.2220027 Eh     change       -0.1098326E-03 Eh
   gradient norm :     0.0119140 Eh/α   predicted    -0.1070267E-03 (  -2.55%)
   displ. norm   :     0.0565775 α      lambda       -0.2442549E-03
   maximum displ.:     0.0332428 α      in ANC's #2, #7, #5, ...

........................................................................
.............................. CYCLE   10 ..............................
........................................................................
   1     -7.3816417 -0.738164E+01  0.318E-01    1.51       0.0  T
   2     -7.3813699  0.271823E-03  0.234E-01    1.47       1.0  T
   3     -7.3813054  0.644926E-04  0.298E-01    1.53       1.0  T
   4     -7.3817173 -0.411863E-03  0.201E-02    1.50       2.2  T
   5     -7.3817186 -0.132952E-05  0.689E-03    1.50       6.5  T
   6     -7.3817186 -0.281331E-07  0.307E-03    1.50      14.6  T
   7     -7.3817187 -0.180569E-07  0.844E-04    1.50      53.0  T
   8     -7.3817187 -0.151331E-08  0.157E-04    1.50     285.2  T
     SCC iter.                  ...        0 min,  0.001 sec
     gradient                   ...        0 min,  0.001 sec
 * total energy  :    -7.2221514 Eh     change       -0.1486689E-03 Eh
   gradient norm :     0.0080695 Eh/α   predicted    -0.1225173E-03 ( -17.59%)
   displ. norm   :     0.0761273 α      lambda       -0.1555021E-03
   maximum displ.:     0.0444888 α      in ANC's #2, #5, #7, ...

........................................................................
.............................. CYCLE   11 ..............................
........................................................................
   1     -7.3813690 -0.738137E+01  0.432E-01    1.46       0.0  T
   2     -7.3812520  0.116981E-03  0.256E-01    1.43       1.0  T
   3     -7.3805042  0.747773E-03  0.412E-01    1.50       1.0  T
   4     -7.3813991 -0.894806E-03  0.483E-02    1.45       1.0  T
   5     -7.3814104 -0.113043E-04  0.790E-03    1.46       5.7  T
   6     -7.3814104 -0.650665E-07  0.279E-03    1.46      16.1  T
   7     -7.3814104 -0.777439E-08  0.469E-04    1.46      95.4  T
   8     -7.3814104 -0.195064E-09  0.103E-04    1.46     432.7  T
     SCC iter.                  ...        0 min,  0.000 sec
     gradient                   ...        0 min,  0.001 sec
 * total energy  :    -7.2222564 Eh     change       -0.1050450E-03 Eh
   gradient norm :     0.0042994 Eh/α   predicted    -0.7820167E-04 ( -25.55%)
   displ. norm   :     0.1438600 α      lambda       -0.1850901E-03
   maximum displ.:     0.0947384 α      in ANC's #1, #2, #5, ...

........................................................................
.............................. CYCLE   12 ..............................
........................................................................
   1     -7.3793339 -0.737933E+01  0.680E-01    1.41       0.0  T
   2     -7.3792586  0.753550E-04  0.399E-01    1.38       1.0  T
   3     -7.3777201  0.153853E-02  0.527E-01    1.46       1.0  T
   4     -7.3793499 -0.162985E-02  0.694E-02    1.40       1.0  T
   5     -7.3793750 -0.250949E-04  0.148E-02    1.40       3.0  T
   6     -7.3793751 -0.105613E-06  0.361E-03    1.40      12.4  T
   7     -7.3793751 -0.273279E-07  0.949E-04    1.40      47.1  T
   8     -7.3793751 -0.298227E-09  0.201E-04    1.40     222.9  T
     SCC iter.                  ...        0 min,  0.001 sec
     gradient                   ...        0 min,  0.001 sec
 * total energy  :    -7.2219670 Eh     change        0.2894230E-03 Eh
   gradient norm :     0.0219979 Eh/α   predicted    -0.9446067E-04 (-132.64%)
   displ. norm   :     0.0964309 α      lambda       -0.6884299E-03
   maximum displ.:     0.0841615 α      in ANC's #1, #2, #5, ...

........................................................................
.............................. CYCLE   13 ..............................
........................................................................
   1     -7.3824721 -0.738247E+01  0.365E-01    1.42       0.0  T
   2     -7.3824703  0.182512E-05  0.221E-01    1.42       1.0  T
   3     -7.3822924  0.177896E-03  0.164E-01    1.43       1.0  T
   4     -7.3824707 -0.178276E-03  0.403E-02    1.41       1.1  T
   5     -7.3824785 -0.781053E-05  0.110E-02    1.42       4.1  T
   6     -7.3824787 -0.178734E-06  0.160E-03    1.42      27.9  T
   7     -7.3824787 -0.373142E-08  0.625E-04    1.42      71.6  T
   8     -7.3824787 -0.219848E-09  0.123E-04    1.42     364.3  T
     SCC iter.                  ...        0 min,  0.000 sec
     gradient                   ...        0 min,  0.001 sec
 * total energy  :    -7.2223022 Eh     change       -0.3351850E-03 Eh
   gradient norm :     0.0013761 Eh/α   predicted    -0.3474158E-03 (   3.65%)
   displ. norm   :     0.0309303 α      lambda       -0.8781373E-05
   maximum displ.:     0.0244968 α      in ANC's #2, #7, #6, ...

........................................................................
.............................. CYCLE   14 ..............................
........................................................................
   1     -7.3805984 -0.738060E+01  0.161E-01    1.41       0.0  T
   2     -7.3805976  0.755263E-06  0.919E-02    1.41       1.0  T
   3     -7.3805653  0.323372E-04  0.835E-02    1.42       1.0  T
   4     -7.3805970 -0.316594E-04  0.204E-02    1.41       2.2  T
   5     -7.3805997 -0.276961E-05  0.295E-03    1.41      15.2  T
   6     -7.3805997 -0.422024E-08  0.303E-04    1.41     147.8  T
   7     -7.3805997 -0.830180E-10  0.136E-04    1.41     327.7  T
     SCC iter.                  ...        0 min,  0.000 sec
     gradient                   ...        0 min,  0.001 sec
 * total energy  :    -7.2223007 Eh     change        0.1454098E-05 Eh
   gradient norm :     0.0031773 Eh/α   predicted    -0.4393625E-05 (-402.15%)
   displ. norm   :     0.0061355 α      lambda       -0.8163888E-05
   maximum displ.:     0.0048413 α      in ANC's #2, #1, #5, ...

........................................................................
.............................. CYCLE   15 ..............................
........................................................................
   1     -7.3813385 -0.738134E+01  0.267E-02    1.41       0.0  T
   2     -7.3813378  0.774134E-06  0.210E-02    1.41       2.1  T
   3     -7.3813366  0.114627E-05  0.197E-02    1.41       2.3  T
   4     -7.3813388 -0.216137E-05  0.508E-03    1.41       8.8  T
   5     -7.3813389 -0.961999E-07  0.866E-04    1.41      51.6  T
   6     -7.3813389 -0.135772E-08  0.124E-04    1.41     360.9  T
     SCC iter.                  ...        0 min,  0.000 sec
     gradient                   ...        0 min,  0.001 sec
 * total energy  :    -7.2223063 Eh     change       -0.5524170E-05 Eh
   gradient norm :     0.0012108 Eh/α   predicted    -0.4081797E-05 ( -26.11%)
   displ. norm   :     0.0080574 α      lambda       -0.2475801E-05
   maximum displ.:     0.0048753 α      in ANC's #6, #7, #5, ...

........................................................................
.............................. CYCLE   16 ..............................
........................................................................
   1     -7.3819966 -0.738200E+01  0.440E-02    1.40       0.0  T
   2     -7.3819932  0.340868E-05  0.316E-02    1.40       1.4  T
   3     -7.3819909  0.226193E-05  0.378E-02    1.41       1.2  T
   4     -7.3819978 -0.684617E-05  0.115E-03    1.40      38.7  T
   5     -7.3819978  0.261392E-09  0.754E-04    1.40      59.3  T
   6     -7.3819978 -0.140640E-08  0.269E-04    1.40     166.2  T
     SCC iter.                  ...        0 min,  0.000 sec
     gradient                   ...        0 min,  0.001 sec
 * total energy  :    -7.2223077 Eh     change       -0.1393811E-05 Eh
   gradient norm :     0.0005493 Eh/α   predicted    -0.1238898E-05 ( -11.11%)
   displ. norm   :     0.0057169 α      lambda       -0.4965493E-06
   maximum displ.:     0.0041330 α      in ANC's #2, #6, #7, ...

   *** GEOMETRY OPTIMIZATION CONVERGED AFTER 16 ITERATIONS ***

------------------------------------------------------------------------
 total energy gain   :        -0.1191646 Eh      -74.7769 kcal/mol
 total RMSD          :         0.8063414 a0        0.4267 Å
 total power (kW/mol):       -19.5541677 (step)-9575.3802 (real)
------------------------------------------------------------------------

 ANCopt (total)                0 d,  0 h,  0 min,  0.033 sec
 optimizer setup                ...        0 min,  0.000 sec (  0.193%)
 model hessian                  ...        0 min,  0.000 sec (  0.263%)
 ANC generation                 ...        0 min,  0.000 sec (  0.159%)
 coordinate transformation      ...        0 min,  0.000 sec (  0.110%)
 single point calculation       ...        0 min,  0.031 sec ( 95.516%)
 optimization log               ...        0 min,  0.000 sec (  1.199%)
 hessian update                 ...        0 min,  0.000 sec (  0.109%)
 rational function              ...        0 min,  0.000 sec (  1.202%)

================
 final structure:
================
5
 xtb: 6.2.2 (9d81278992624c895f80dd42a50cac0aa55982e2)
C         0.76111499629150   -0.15179303685431    0.08110721831119
C        -0.54835085434618    0.05403926081685    0.05509247435184
C         1.99769157181868   -0.20000600670668   -0.19364942083881
H        -1.22651835858547   -0.67317722472068   -0.37079212809106
H        -0.98393635517852    0.97093700746483    0.42824285626684

 Bond Distances (Angstroems)
 ---------------------------
C1-C2=1.3258         C1-C3=1.2677         C2-C1=1.3258         C2-H4=1.0817         C2-H5=1.0815         C3-C1=1.2677         
H4-C2=1.0817         H5-C2=1.0815         
 C  H  Rav=1.0816 sigma=0.0001  Rmin=1.0815  Rmax=1.0817     2
 C  C  Rav=1.2967 sigma=0.0291  Rmin=1.2677  Rmax=1.3258     2

 selected bond angles (degree)
 --------------------
C3-C1-C2=164.82                H4-C2-C1=121.50                H5-C2-C1=121.51                H5-C2-H4=116.95                

 selected dihedral angles (degree)
 ---------------------------------
H4-C2-C1-C3= 89.06            H5-C2-C1-C3=271.16            
           -------------------------------------------------
          |                Final Singlepoint                |
           -------------------------------------------------

          ...................................................
          :                      SETUP                      :
          :.................................................:
          :  # basis functions                  14          :
          :  # atomic orbitals                  14          :
          :  # shells                            8          :
          :  # electrons                        14          :
          :  max. iterations                   250          :
          :  Hamiltonian                  GFN2-xTB          :
          :  restarted?                      false          :
          :  GBSA solvation                  false          :
          :  PC potential                    false          :
          :  electronic temp.          300.0000000     K    :
          :  accuracy                    1.0000000          :
          :  -> integral cutoff          0.2500000E+02      :
          :  -> integral neglect         0.1000000E-07      :
          :  -> SCF convergence          0.1000000E-05 Eh   :
          :  -> wf. convergence          0.1000000E-03 e    :
          :  Broyden damping             0.4000000          :
          ...................................................

 iter      E             dE          RMSdq      gap      omega  full diag
   1     -7.3819978 -0.738200E+01  0.622E-05    1.40       0.0  T
   2     -7.3819978  0.957279E-11  0.671E-05    1.40     666.6  T
   3     -7.3819978 -0.125153E-10  0.313E-05    1.40    1428.2  T

   *** convergence criteria satisfied after 3 iterations ***

         #    Occupation            Energy/Eh            Energy/eV
      -------------------------------------------------------------
         1        2.0000           -0.6484318             -17.6447
         2        2.0000           -0.6192866             -16.8516
         3        2.0000           -0.5451733             -14.8349
         4        2.0000           -0.5329860             -14.5033
         5        2.0000           -0.4703710             -12.7994
         6        2.0000           -0.4099972             -11.1566
         7        2.0000           -0.4061864             -11.0529 (HOMO)
         8                         -0.3546571              -9.6507 (LUMO)
         9                         -0.1909143              -5.1950
        10                         -0.1536762              -4.1817
        11                          0.1050874               2.8596
        12                          0.2691586               7.3242
       ...                                ...                  ...
        14                          1.0262958              27.9269
      -------------------------------------------------------------
                  HL-Gap            0.0515292 Eh            1.4022 eV
             Fermi-level           -0.3804132 Eh          -10.3516 eV

 SCC (total)                   0 d,  0 h,  0 min,  0.002 sec
 SCC setup                      ...        0 min,  0.000 sec (  4.098%)
 Dispersion                     ...        0 min,  0.000 sec (  0.594%)
 integral evaluation            ...        0 min,  0.001 sec ( 39.542%)
 zeroth order Hamiltonian       ...        0 min,  0.000 sec (  0.594%)
 iterations                     ...        0 min,  0.000 sec ( 12.931%)
 molecular gradient             ...        0 min,  0.001 sec ( 39.175%)
 printout                       ...        0 min,  0.000 sec (  2.558%)

         :::::::::::::::::::::::::::::::::::::::::::::::::::::
         ::                     SUMMARY                     ::
         :::::::::::::::::::::::::::::::::::::::::::::::::::::
         :: total energy              -7.222307651284 Eh    ::
         :: gradient norm              0.000551544196 Eh/a0 ::
         :: HOMO-LUMO gap              1.402182250820 eV    ::
         ::.................................................::
         :: SCC energy                -7.381997783304 Eh    ::
         :: -> isotropic ES           -0.007057745580 Eh    ::
         :: -> anisotropic ES         -0.001237576448 Eh    ::
         :: -> anisotropic XC          0.013343492658 Eh    ::
         :: -> dispersion             -0.001621964717 Eh    ::
         :: repulsion energy           0.159690114158 Eh    ::
         :: add. restraining           0.000000000000 Eh    ::
         :::::::::::::::::::::::::::::::::::::::::::::::::::::

           ------------------------------------------------- 
          |                Numerical Hessian                |
           ------------------------------------------------- 
step length          :   0.00500
SCC accuracy         :   0.30000
Hessian scale factor :   1.00000
frozen atoms in %    :   0.00000    0
RMS gradient         :   0.00055
estimated CPU  time      0.00 min
estimated wall time      0.00 min

writing file <hessian>.

 projected vibrational frequencies (cm-1)
eigval :       -0.00    -0.00    -0.00    -0.00     0.00     0.00
eigval :      107.41   354.53   894.30   960.71  1202.92  1403.26
eigval :     1978.52  3041.50  3058.57
           -------------------------------------------------
          |                Property Printout                |
           -------------------------------------------------

    * Orbital Energies and Occupations

         #    Occupation            Energy/Eh            Energy/eV
      -------------------------------------------------------------
         1        2.0000           -0.6484319             -17.6447
         2        2.0000           -0.6192865             -16.8516
         3        2.0000           -0.5451733             -14.8349
         4        2.0000           -0.5329861             -14.5033
         5        2.0000           -0.4703711             -12.7994
         6        2.0000           -0.4099971             -11.1566
         7        2.0000           -0.4061863             -11.0529 (HOMO)
         8                         -0.3546571              -9.6507 (LUMO)
         9                         -0.1909142              -5.1950
        10                         -0.1536762              -4.1817
        11                          0.1050873               2.8596
        12                          0.2691586               7.3242
        13                          0.3484879               9.4828
        14                          1.0262958              27.9269
      -------------------------------------------------------------
                  HL-Gap            0.0515291 Eh            1.4022 eV
             Fermi-level           -0.3804132 Eh          -10.3516 eV

     #   Z        covCN         q      C6AA      α(0)
     1   6 C      1.961     0.017    30.639     8.939
     2   6 C      2.833    -0.014    28.348     8.725
     3   6 C      0.982    -0.164    41.340    10.800
     4   1 H      0.925     0.081     1.972     2.196
     5   1 H      0.925     0.081     1.971     2.196

 Mol. C6AA /au·bohr⁶  :        403.733272
 Mol. C8AA /au·bohr⁸  :      10552.154539
 Mol. α(0) /au        :         32.855160


Wiberg/Mayer (AO) data.
largest (>0.10) Wiberg bond orders for each atom
          total WBO             WBO to atom ...
     1  C   3.953        C    3 2.212    C    2 1.738
     2  C   3.947        C    1 1.738    H    5 0.954    H    4 0.954    C    3 0.300
     3  C   2.589        C    1 2.212    C    2 0.300
     4  H   0.993        C    2 0.954
     5  H   0.993        C    2 0.954

MOs/occ written to file <molden.input>


molecular dipole:
                 x           y           z       tot (Debye)
 q only:       -0.919       0.101       0.070
   full:       -1.494       0.130       0.186       3.841
molecular quadrupole (traceless):
                xx          xy          yy          xz          yz          zz
 q only:       -1.836       0.287       1.150       0.363       0.252       0.686
  q+dip:       -2.679       0.226       2.068       1.093       0.737       0.611
   full:       -5.063       0.345       2.649       1.623      -0.131       2.414

           -------------------------------------------------
          |                Geometry Summary                 |
           -------------------------------------------------

      molecular mass/u    :       38.0480892
   center of mass at/Å    :        0.6392219      -0.0861099      -0.0166154
  moments of inertia/u·Å² :        0.1982596E+01   0.4652906E+02   0.4797388E+02
rotational constants/cm⁻¹ :        0.8502806E+01   0.3623033E+00   0.3513919E+00

 * 3 selected distances

     #   Z        #   Z                                     value/Å
     1   6 C      2   6 C                                 1.3257996 (max)
     2   6 C      4   1 H                                 1.0817267
     2   6 C      5   1 H                                 1.0815163 (min)

 * 2 distinct bonds (by element types)

   Z      Z             #   av. dist./Å        max./Å        min./Å
   1 H    6 C           2     1.0816215     1.0817267     1.0815163
Molecule has the following symmetry elements: (sigma) 
It seems to be the Cs point group
   6 C    6 C           1     1.3257996     1.3257996     1.3257996

           -------------------------------------------------
          |               Frequency Printout                |
           -------------------------------------------------
 projected vibrational frequencies (cm-1)
eigval :       -0.00    -0.00    -0.00    -0.00     0.00     0.00
eigval :      107.41   354.53   894.30   960.71  1202.92  1403.26
eigval :     1978.52  3041.50  3058.57
 reduced masses (amu)
   1:  2.59   2: 10.10   3: 11.48   4: 11.86   5: 10.41   6: 10.92   7: 10.87   8:  8.32
   9:  4.19  10:  4.66  11:  8.16  12:  5.05  13: 11.95  14:  1.48  15:  2.11
 IR intensities (amu)
   1:  0.06   2:  0.26   3:  0.24   4:  0.17   5:  0.25   6:  0.15   7:  0.45   8:  0.03
   9:  0.14  10:  0.06  11:  0.11  12:  0.02  13:  0.32  14:  0.03  15:  0.14
 Raman intensities (amu)
   1:  0.00   2:  0.00   3:  0.00   4:  0.00   5:  0.00   6:  0.00   7:  0.00   8:  0.00
   9:  0.00  10:  0.00  11:  0.00  12:  0.00  13:  0.00  14:  0.00  15:  0.00
 output can be read by thermo (or use thermo option).
 writing <g98.out> molden fake output.
 recommended (thermochemical) frequency scaling factor: 1.0
           -------------------------------------------------
          |             Thermodynamic Functions             |
           -------------------------------------------------

cs  symmetry found (for desy threshold:  0.10E+00) used in thermo

          ...................................................
          :                      SETUP                      :
          :.................................................:
          :  # frequencies                           9      :
          :  # imaginary freq.                       0      :
          :  linear?                             false      :
          :  only rotor calc.                    false      :
          :  symmetry                               cs      :
          :  rotational number                       1      :
          :  scaling factor                  1.0000000      :
          :  rotor cutoff                   50.0000000 cm⁻¹ :
          :  imag. cutoff                  -20.0000000 cm⁻¹ :
          :.................................................:

    mode    ω/cm⁻¹     T·S(HO)/kcal·mol⁻¹    T·S(FR)/kcal·mol⁻¹   T·S(vib)
   ------------------------------------------------------------------------
       1    107.41    -0.00000 ( 95.51%)     0.00594 (  4.49%)     0.00027
   ------------------------------------------------------------------------

   temp. (K)  partition function   enthalpy   heat capacity  entropy
                                   cal/mol     cal/K/mol   cal/K/mol   J/K/mol
 298.15  VIB   3.10                  752.669      4.760      4.750
         ROT  0.508E+04              888.752      2.981     19.939
         INT  0.158E+05             1641.422      7.741     24.689
         TR   0.227E+27             1481.254      4.968     36.821
         TOT                        3122.6755    12.7095    61.5100   257.3577

   temp. (K)  partition function   enthalpy   heat capacity  entropy
                                   cal/mol     cal/K/mol   cal/K/mol   J/K/mol
 120.00  VIB   1.40                  131.746      2.269      1.780
         ROT  0.130E+04              357.707      2.981     17.226
         INT  0.182E+04              489.453      5.250     19.006
         TR   0.580E+26              596.178      4.968     32.302
         TOT                        1085.6308    10.2177    51.3075   214.6704

   temp. (K)  partition function   enthalpy   heat capacity  entropy
                                   cal/mol     cal/K/mol   cal/K/mol   J/K/mol
 100.00  VIB   1.28                   89.457      1.955      1.401
         ROT   987.                  298.089      2.981     16.683
         INT  0.126E+04              387.546      4.936     18.083
         TR   0.441E+26              496.815      4.968     31.396
         TOT                         884.3613     9.9040    49.4796   207.0227

   temp. (K)  partition function   enthalpy   heat capacity  entropy
                                   cal/mol     cal/K/mol   cal/K/mol   J/K/mol
  80.00  VIB   1.17                   53.770      1.608      1.010
         ROT   706.                  238.471      2.981     16.017
         INT   827.                  292.242      4.588     17.027
         TR   0.316E+26              397.452      4.968     30.288
         TOT                         689.6936     9.5566    47.3152   197.9669

   temp. (K)  partition function   enthalpy   heat capacity  entropy
                                   cal/mol     cal/K/mol   cal/K/mol   J/K/mol
  60.00  VIB   1.08                   25.506      1.205      0.610
         ROT   459.                  178.853      2.981     15.160
         INT   497.                  204.359      4.186     15.770
         TR   0.205E+26              298.089      4.968     28.860
         TOT                         502.4479     9.1537    44.6296   186.7300

   temp. (K)  partition function   enthalpy   heat capacity  entropy
                                   cal/mol     cal/K/mol   cal/K/mol   J/K/mol
  40.00  VIB   1.02                    6.590      0.651      0.233
         ROT   250.                  119.236      2.981     13.951
         INT   255.                  125.825      3.632     14.184
         TR   0.112E+26              198.726      4.968     26.846
         TOT                         324.5514     8.5998    41.0300   171.6697

   temp. (K)  partition function   enthalpy   heat capacity  entropy
                                   cal/mol     cal/K/mol   cal/K/mol   J/K/mol
  20.00  VIB   1.00                    0.135      0.052      0.011
         ROT   88.3                   59.618      2.981     11.885
         INT   88.3                   59.753      3.033     11.896
         TR   0.395E+25               99.363      4.968     23.404
         TOT                         159.1163     8.0014    35.3003   147.6966

   temp. (K)  partition function   enthalpy   heat capacity  entropy
                                   cal/mol     cal/K/mol   cal/K/mol   J/K/mol
  10.00  VIB   1.00                    0.000      0.000     -0.027
         ROT   31.2                   29.809      2.981      9.819
         INT   31.2                   29.809      2.981      9.791
         TR   0.139E+25               49.681      4.968     19.962
         TOT                          79.4905     7.9491    29.7537   124.4894

       T/K    H(0)-H(T)+PV         H(T)/Eh          T*S/Eh         G(T)/Eh
   ------------------------------------------------------------------------
    298.15    0.497630E-02    0.345964E-01    0.292254E-01    0.537101E-02
    120.00    0.173006E-02    0.313501E-01    0.981164E-02    0.215385E-01
    100.00    0.140932E-02    0.310294E-01    0.788508E-02    0.231443E-01
     80.00    0.109910E-02    0.307192E-01    0.603213E-02    0.246871E-01
     60.00    0.800702E-03    0.304208E-01    0.426730E-02    0.261535E-01
     40.00    0.517206E-03    0.301373E-01    0.261542E-02    0.275219E-01
     20.00    0.253568E-03    0.298737E-01    0.112509E-02    0.287486E-01
     10.00    0.126676E-03    0.297468E-01    0.474155E-03    0.292726E-01 (used)
   ------------------------------------------------------------------------

         :::::::::::::::::::::::::::::::::::::::::::::::::::::
         ::                  THERMODYNAMIC                  ::
         :::::::::::::::::::::::::::::::::::::::::::::::::::::
         :: total free energy          -7.193035048342 Eh   ::
         ::.................................................::
         :: total energy               -7.222307651439 Eh   ::
         :: zero point energy           0.029620082142 Eh   ::
         :: G(RRHO) w/o ZPVE           -0.000347479045 Eh   ::
         :: G(RRHO) contrib.            0.029272603096 Eh   ::
         :::::::::::::::::::::::::::::::::::::::::::::::::::::

optimized geometry written to: xtbopt.xyz


           -------------------------------------------------
          | TOTAL ENERGY               -7.222307651439 Eh   |
          | TOTAL ENTHALPY             -7.192560893186 Eh   |
          | TOTAL FREE ENERGY          -7.193035048342 Eh   |
          | GRADIENT NORM               0.000551534684 Eh/α |
          | HOMO-LUMO GAP               1.402179496510 eV   |
           -------------------------------------------------

------------------------------------------------------------------------
 * finished run on 2020/05/12 at 11:44:26.354     
------------------------------------------------------------------------
 total:
 * wall-time:     0 d,  0 h,  0 min,  0.107 sec
 *  cpu-time:     0 d,  0 h,  0 min,  0.107 sec
 * ratio c/w:     0.999 speedup
 SCF:
 * wall-time:     0 d,  0 h,  0 min,  0.003 sec
 *  cpu-time:     0 d,  0 h,  0 min,  0.003 sec
 * ratio c/w:     1.000 speedup
 ANC optimizer:
 * wall-time:     0 d,  0 h,  0 min,  0.035 sec
 *  cpu-time:     0 d,  0 h,  0 min,  0.035 sec
 * ratio c/w:     0.999 speedup
 numerical hessian:
 * wall-time:     0 d,  0 h,  0 min,  0.054 sec
 *  cpu-time:     0 d,  0 h,  0 min,  0.053 sec
 * ratio c/w:     0.998 speedup

