$hessian                                                                        
        1.1511750355  -0.0829098851  -0.1534428409  -0.4653631326   0.0687611116
       -0.0187373916  -0.6362783544   0.0134054623   0.1574693596  -0.0284005766
       -0.0030189518   0.0047855391  -0.0211329719   0.0037622630   0.0099253338
       -0.0829098851   0.0810004280   0.0269856401   0.0683609948  -0.0673753023
       -0.0085897141   0.0042684783  -0.0194479720  -0.0106144703  -0.0161077041
        0.0087591334  -0.0073664884   0.0263881161  -0.0029362872  -0.0004149673
       -0.1534428409   0.0269856401   0.0727941914  -0.0179998917  -0.0086928096
       -0.0380955269   0.1765000124  -0.0133700290  -0.0497966297  -0.0130385501
       -0.0004228165   0.0054631953   0.0079812703  -0.0044999851   0.0096347699
       -0.4653631326   0.0683609948  -0.0179998917   0.7414360153  -0.0545746038
        0.0414369764  -0.0665472682   0.0066594193   0.0103915585  -0.1341268789
       -0.1060431655  -0.0651879906  -0.0753987356   0.0855973553   0.0313593475
        0.0687611116  -0.0673753023  -0.0086928096  -0.0545746038   0.4416039006
        0.1578476360   0.0092323826   0.0099987301   0.0026372277  -0.1101310658
       -0.1587136632  -0.0713222345   0.0867121753  -0.2255136652  -0.0804698196
       -0.0187373916  -0.0085897141  -0.0380955269   0.0414369764   0.1578476360
        0.1727888356   0.0050009507   0.0034267510   0.0040670424  -0.0635108049
       -0.0726471649  -0.0732420924   0.0358102695  -0.0800375080  -0.0655182587
       -0.6362783544   0.0042684783   0.1765000124  -0.0665472682   0.0092323826
        0.0050009507   0.7035656581  -0.0196805034  -0.1687824276  -0.0002837809
        0.0032093053  -0.0059969650  -0.0004562546   0.0029703371  -0.0067215705
        0.0134054623  -0.0194479720  -0.0133700290   0.0066594193   0.0099987301
        0.0034267510  -0.0196805034   0.0099970742   0.0089888031   0.0008137044
       -0.0013406788   0.0021101660  -0.0011980826   0.0007928464  -0.0011556910
        0.1574693596  -0.0106144703  -0.0497966297   0.0103915585   0.0026372277
        0.0040670424  -0.1687824276   0.0089888031   0.0439892712   0.0010203711
       -0.0008552600   0.0017493063  -0.0000988616  -0.0001563005  -0.0000089902
       -0.0284005766  -0.0161077041  -0.0130385501  -0.1341268789  -0.1101310658
       -0.0635108049  -0.0002837809   0.0008137044   0.0010203711   0.1567353193
        0.1188725074   0.0732789745   0.0060759172   0.0065525581   0.0022500094
       -0.0030189518   0.0087591334  -0.0004228165  -0.1060431655  -0.1587136632
       -0.0726471649   0.0032093053  -0.0013406788  -0.0008552600   0.1188725074
        0.1679052054   0.0883337308  -0.0130196953  -0.0166099967  -0.0144084894
        0.0047855391  -0.0073664884   0.0054631953  -0.0651879906  -0.0713222345
       -0.0732420924  -0.0059969650   0.0021101660   0.0017493063   0.0732789745
        0.0883337308   0.0618547134  -0.0068795580  -0.0117551739   0.0041748774
       -0.0211329719   0.0263881161   0.0079812703  -0.0753987356   0.0867121753
        0.0358102695  -0.0004562546  -0.0011980826  -0.0000988616   0.0060759172
       -0.0130196953  -0.0068795580   0.0909120450  -0.0988825136  -0.0368131201
        0.0037622630  -0.0029362872  -0.0044999851   0.0855973553  -0.2255136652
       -0.0800375080   0.0029703371   0.0007928464  -0.0001563005   0.0065525581
       -0.0166099967  -0.0117551739  -0.0988825136   0.2442671027   0.0964489674
        0.0099253338  -0.0004149673   0.0096347699   0.0313593475  -0.0804698196
       -0.0655182587  -0.0067215705  -0.0011556910  -0.0000089902   0.0022500094
       -0.0144084894   0.0041748774  -0.0368131201   0.0964489674   0.0517176017
