$hessian                                                                        
        1.2182258830  -0.2680072172  -0.0604687477  -0.5197103949   0.1096431136
        0.0237857747  -0.0809596980   0.0223416485   0.0049941341  -0.6326406103
        0.1403753844   0.0323119686   0.0155475639  -0.0041875908  -0.0013219225
       -0.2680072172   0.0940466367   0.0136769258   0.1093634997  -0.0619030984
       -0.0053896065   0.0223633350   0.0120247431  -0.0011381888   0.1403454198
       -0.0425421676  -0.0072928722  -0.0041690149  -0.0016679776   0.0003017738
       -0.0604687477   0.0136769258   0.0365161778   0.0235657747  -0.0053539051
       -0.0382236106   0.0049494735  -0.0011273980   0.0168675857   0.0328689426
       -0.0074205310  -0.0125593626  -0.0009392123   0.0002163204  -0.0025599502
       -0.5197103949   0.1093634997   0.0235657747   1.2085472964  -0.2606843246
       -0.0563432010  -0.5187371194   0.1088186833   0.0231143138  -0.0852840963
        0.0211305660   0.0053590446  -0.0853379579   0.0212042287   0.0050159395
        0.1096431136  -0.0619030984  -0.0053539051  -0.2606843246   0.1177148617
        0.0127728733   0.1091054373  -0.0618418046  -0.0052369020   0.0209970541
        0.0030501947  -0.0012091013   0.0210608355   0.0030326836  -0.0011342409
        0.0237857747  -0.0053896065  -0.0382236106  -0.0563432010   0.0127728733
        0.0613656519   0.0234191754  -0.0052920189  -0.0383142500   0.0047578671
       -0.0010797648   0.0075454049   0.0044069134  -0.0010032376   0.0075905433
       -0.0809596980   0.0223633350   0.0049494735  -0.5187371194   0.1091054373
        0.0234191754   1.2185916507  -0.2683281823  -0.0570912377   0.0155789892
       -0.0041828204  -0.0013814725  -0.6339212671   0.1411769439   0.0295588075
        0.0223416485   0.0120247431  -0.0011273980   0.1088186833  -0.0618418046
       -0.0052920189  -0.2683281823   0.0941464805   0.0129252289  -0.0041413495
       -0.0016693451   0.0003139762   0.1411847022  -0.0426951569  -0.0066962407
        0.0049941341  -0.0011381888   0.0168675857   0.0231143138  -0.0052369020
       -0.0383142500  -0.0570912377   0.0129252289   0.0361515545  -0.0010147653
        0.0002326402  -0.0025471213   0.0299710625  -0.0067892689  -0.0121278319
       -0.6326406103   0.1403454198   0.0328689426  -0.0852840963   0.0209970541
        0.0047578671   0.0155789892  -0.0041413495  -0.0010147653   0.7052119787
       -0.1581630629  -0.0366506097  -0.0030748094   0.0008825504   0.0003705292
        0.1403753844  -0.0425421676  -0.0074205310   0.0211305660   0.0030501947
       -0.0010797648  -0.0041828204  -0.0016693451   0.0002326402  -0.1581630629
        0.0406396042   0.0082774706   0.0008844006   0.0005366388  -0.0000847155
        0.0323119686  -0.0072928722  -0.0125593626   0.0053590446  -0.0012091013
        0.0075454049  -0.0013814725   0.0003139762  -0.0025471213  -0.0366506097
        0.0082774706   0.0068277903   0.0003716615  -0.0000852060   0.0007116887
        0.0155475639  -0.0041690149  -0.0009392123  -0.0853379579   0.0210608355
        0.0044069134  -0.6339212671   0.1411847022   0.0299710625  -0.0030748094
        0.0008844006   0.0003716615   0.7065019920  -0.1590142404  -0.0336102137
       -0.0041875908  -0.0016679776   0.0002163204   0.0212042287   0.0030326836
       -0.0010032376   0.1411769439  -0.0426951569  -0.0067892689   0.0008825504
        0.0005366388  -0.0000852060  -0.1590142404   0.0408029971   0.0076159892
       -0.0013219225   0.0003017738  -0.0025599502   0.0050159395  -0.0011342409
        0.0075905433   0.0295588075  -0.0066962407  -0.0121278319   0.0003705292
       -0.0000847155   0.0007116887  -0.0336102137   0.0076159892   0.0063726336
