      -----------------------------------------------------------      
     |                   =====================                   |     
     |                           x T B                           |     
     |                   =====================                   |     
     |                         S. Grimme                         |     
     |          Mulliken Center for Theoretical Chemistry        |     
     |                    University of Bonn                     |     
      -----------------------------------------------------------      

   * xtb version 6.2.2 (9d81278992624c895f80dd42a50cac0aa55982e2) compiled by '@Darwin' on 04/03/2020

   xtb is free software: you can redistribute it and/or modify it under
   the terms of the GNU Lesser General Public License as published by
   the Free Software Foundation, either version 3 of the License, or
   (at your option) any later version.
   
   xtb is distributed in the hope that it will be useful,
   but WITHOUT ANY WARRANTY; without even the implied warranty of
   MERCHANTABILITY or FITNESS FOR A PARTICULAR PURPOSE.  See the
   GNU Lesser General Public License for more details.
   
   Cite this work as:
   * S. Grimme, C. Bannwarth, P. Shushkov, J. Chem. Theory Comput., 2017,
     13, 1989-2009. DOI: 10.1021/acs.jctc.7b00118
   * C. Bannwarth, S. Ehlert and S. Grimme., J. Chem. Theory Comput., 2019,
     15, 1652-1671. DOI: 10.1021/acs.jctc.8b01176
   * P. Pracht, E. Caldeweyher, S. Ehlert, S. Grimme, ChemRxiv, 2019, preprint.
     DOI: 10.26434/chemrxiv.8326202.v1
   
   for DFT-D4:
   * E. Caldeweyher, C. Bannwarth and S. Grimme, J. Chem. Phys., 2017,
     147, 034112. DOI: 10.1063/1.4993215
   * E. Caldeweyher, S. Ehlert, A. Hansen, H. Neugebauer, S. Spicher,
     C. Bannwarth and S. Grimme, J. Chem. Phys., 2019, 150, 154122.
     DOI: 10.1063/1.5090222
   
   for sTDA-xTB:
   * S. Grimme and C. Bannwarth, J. Chem. Phys., 2016, 145, 054103.
     DOI: 10.1063/1.4959605
   
   in the mass-spec context:
   * V. Asgeirsson, C. Bauer and S. Grimme, Chem. Sci., 2017, 8, 4879.
     DOI: 10.1039/c7sc00601b
   
   for metadynamics refer to:
   * S. Grimme, J. Chem. Theory Comput., 2019, 155, 2847-2862
     DOI: 10.1021/acs.jctc.9b00143
   
   with help from (in alphabetical order)
   C. Bannwarth, F. Bohle, G. Brandenburg, E. Caldeweyher, M. Checinski,
   S. Dohm, S. Ehlert, S. Ehrlich, F. März, H. Neugebauer, J. Pisarek,
   P. Pracht, P. Shushkov, and S. Spicher.
   
 * started run on 2020/05/12 at 11:44:35.086     

           -------------------------------------------------
          |                Calculation Setup                |
           -------------------------------------------------

          program call               : xtb --input C5_9_S_0.input C5_9_S_0.xyz --ohess --molden --namespace C5_9_S_0 output.out
          calculation namespace      : C5_9_S_0
          coordinate file            : C5_9_S_0.xyz
          number of atoms            :                     5
          number of electrons        :                    20
          charge                     :                     0
          spin                       :                   0.0
          first test random number   :      0.09991637696651

   ID    Z sym.   atoms
    1    6 C      1-5

           -------------------------------------------------
          |                 G F N 2 - x T B                 |
           -------------------------------------------------

        Reference                      10.1021/acs.jctc.8b01176
      * Hamiltonian:
        H0-scaling (s, p, d)           1.850000    2.230000    2.230000
        zeta-weighting                 0.500000
      * Dispersion:
        s8                             2.700000
        a1                             0.520000
        a2                             5.000000
        s9                             5.000000
      * Repulsion:
        kExp                           1.500000    1.000000
        rExp                           1.000000
      * Coulomb:
        alpha                          2.000000
        third order                    shell-resolved
        anisotropic                    true
        a3                             3.000000
        a5                             4.000000
        cn-shift                       1.200000
        cn-exp                         4.000000
        max-rad                        5.000000


          ...................................................
          :                      SETUP                      :
          :.................................................:
          :  # basis functions                  20          :
          :  # atomic orbitals                  20          :
          :  # shells                           10          :
          :  # electrons                        20          :
          :  max. iterations                   250          :
          :  Hamiltonian                  GFN2-xTB          :
          :  restarted?                      false          :
          :  GBSA solvation                  false          :
          :  PC potential                    false          :
          :  electronic temp.          300.0000000     K    :
          :  accuracy                    1.0000000          :
          :  -> integral cutoff          0.2500000E+02      :
          :  -> integral neglect         0.1000000E-07      :
          :  -> SCF convergence          0.1000000E-05 Eh   :
          :  -> wf. convergence          0.1000000E-03 e    :
          :  Broyden damping             0.4000000          :
          ...................................................

 iter      E             dE          RMSdq      gap      omega  full diag
   1    -10.1961846 -0.101962E+02  0.111E+01    0.67       0.0  T
   2    -10.1959360  0.248657E-03  0.666E+00    0.63       1.0  T
   3    -10.1668211  0.291148E-01  0.224E+00    0.58       1.0  T
   4    -10.2001216 -0.333005E-01  0.675E-01    0.58       1.0  T
   5    -10.2005812 -0.459532E-03  0.472E-01    0.58       1.0  T
   6    -10.2002845  0.296621E-03  0.206E-01    0.59       1.0  T
   7    -10.2006199 -0.335341E-03  0.889E-02    0.59       1.0  T
   8    -10.2006465 -0.266300E-04  0.327E-02    0.59       1.4  T
   9    -10.2006504 -0.386232E-05  0.387E-03    0.59      11.6  T
  10    -10.2006505 -0.991246E-07  0.171E-03    0.59      26.2  T
  11    -10.2006505 -0.468378E-08  0.890E-04    0.59      50.3  T
  12    -10.2006505 -0.521147E-08  0.111E-04    0.59     404.1  T

   *** convergence criteria satisfied after 12 iterations ***

         #    Occupation            Energy/Eh            Energy/eV
      -------------------------------------------------------------
         1        2.0000           -0.7552886             -20.5524
       ...           ...                  ...                  ...
         4        2.0000           -0.5974309             -16.2569
         5        2.0000           -0.5531465             -15.0519
         6        2.0000           -0.5490789             -14.9412
         7        2.0000           -0.5281713             -14.3723
         8        2.0000           -0.4701615             -12.7937
         9        2.0000           -0.4647357             -12.6461
        10        2.0000           -0.4499430             -12.2436 (HOMO)
        11        0.0000           -0.4283535             -11.6561 (LUMO)
        12                         -0.3859561             -10.5024
        13                         -0.3573672              -9.7245
        14                         -0.3197809              -8.7017
        15                         -0.2609004              -7.0995
       ...                                ...                  ...
        20                          0.2112339               5.7480
      -------------------------------------------------------------
                  HL-Gap            0.0215895 Eh            0.5875 eV
             Fermi-level           -0.4391483 Eh          -11.9498 eV

 SCC (total)                   0 d,  0 h,  0 min,  0.005 sec
 SCC setup                      ...        0 min,  0.000 sec (  1.687%)
 Dispersion                     ...        0 min,  0.000 sec (  0.458%)
 integral evaluation            ...        0 min,  0.001 sec ( 30.219%)
 zeroth order Hamiltonian       ...        0 min,  0.000 sec (  0.422%)
 iterations                     ...        0 min,  0.002 sec ( 33.498%)
 molecular gradient             ...        0 min,  0.001 sec ( 32.348%)
 printout                       ...        0 min,  0.000 sec (  1.176%)

         :::::::::::::::::::::::::::::::::::::::::::::::::::::
         ::                     SUMMARY                     ::
         :::::::::::::::::::::::::::::::::::::::::::::::::::::
         :: total energy             -10.108789599441 Eh    ::
         :: gradient norm              0.150320896876 Eh/a0 ::
         :: HOMO-LUMO gap              0.587480716383 eV    ::
         ::.................................................::
         :: SCC energy               -10.200650490703 Eh    ::
         :: -> isotropic ES           -0.023048880062 Eh    ::
         :: -> anisotropic ES          0.001903888375 Eh    ::
         :: -> anisotropic XC          0.007385102862 Eh    ::
         :: -> dispersion             -0.002887372002 Eh    ::
         :: repulsion energy           0.091860839793 Eh    ::
         :: add. restraining           0.000000000000 Eh    ::
         :::::::::::::::::::::::::::::::::::::::::::::::::::::

      ----------------------------------------------------------- 
     |                   =====================                   |
     |                        A N C O P T                        |
     |                   =====================                   |
     |               Approximate Normal Coordinate               |
     |                Rational Function Optimizer                |
      ----------------------------------------------------------- 

          ...................................................
          :                      SETUP                      :
          :.................................................:
          :   optimization level            normal          :
          :   max. optcycles                   200          :
          :   ANC micro-cycles                  20          :
          :   degrees of freedom                 9          :
          :.................................................:
          :   RF solver                   davidson          :
          :   write xtbopt.log                true          :
          :   linear?                        false          :
          :   energy convergence         0.5000000E-05 Eh   :
          :   grad. convergence          0.1000000E-02 Eh/α :
          :   maximium RF displ.         1.0000000          :
          :   Hlow (freq-cutoff)         0.1000000E-01      :
          :   Hmax (freq-cutoff)         5.0000000          :
          :   S6 in model hess.         20.0000000          :
          ...................................................

generating ANC from model Hessian ...
Using Lindh-Hessian (1995)
 Shifting diagonal of input Hessian by    0.0000000000000000     
 Lowest  eigenvalues of input Hessian
   -0.000000   -0.000000   -0.000000   -0.000000    0.000000    0.000000
    0.038939    0.100084    0.132312    0.441767    0.639394    0.832148
    0.878046    1.153605    1.398483
 Highest eigenvalues
    0.441767    0.639394    0.832148    0.878046    1.153605    1.398483


........................................................................
.............................. CYCLE    1 ..............................
........................................................................
   1    -10.2006505 -0.102007E+02  0.275E-05    0.59       0.0  T
   2    -10.2006505  0.669687E-12  0.231E-05    0.59    1938.0  T
   3    -10.2006505 -0.272493E-11  0.115E-05    0.59    3882.6  T
     SCC iter.                  ...        0 min,  0.000 sec
     gradient                   ...        0 min,  0.001 sec
 * total energy  :   -10.1087896 Eh     change       -0.1090957E-08 Eh
   gradient norm :     0.1503202 Eh/α   predicted     0.0000000E+00 (-100.00%)
   displ. norm   :     0.1540591 α      lambda       -0.2170273E-01
   maximum displ.:     0.1180831 α      in ANC's #8, #5, #3, ...

........................................................................
.............................. CYCLE    2 ..............................
........................................................................
   1    -10.2494042 -0.102494E+02  0.135E+00    0.59       0.0  T
   2    -10.2495594 -0.155183E-03  0.884E-01    0.59       1.0  T
   3    -10.2486593  0.900062E-03  0.596E-01    0.59       1.0  T
   4    -10.2501512 -0.149186E-02  0.808E-02    0.60       1.0  T
   5    -10.2495481  0.603120E-03  0.247E-01    0.60       1.0  T
   6    -10.2501579 -0.609818E-03  0.695E-03    0.60       6.4  T
   7    -10.2501580 -0.107843E-06  0.373E-03    0.60      12.0  T
   8    -10.2501580  0.316022E-07  0.356E-03    0.60      12.6  T
   9    -10.2501581 -0.901803E-07  0.250E-04    0.60     179.0  T
  10    -10.2501581 -0.345661E-09  0.110E-04    0.60     408.1  T
     SCC iter.                  ...        0 min,  0.001 sec
     gradient                   ...        0 min,  0.001 sec
 * total energy  :   -10.1274076 Eh     change       -0.1861799E-01 Eh
   gradient norm :     0.1128445 Eh/α   predicted    -0.1110891E-01 ( -40.33%)
   displ. norm   :     0.6814839 α      lambda       -0.6563262E-01
   maximum displ.:     0.4876587 α      in ANC's #3, #8, #5, ...

........................................................................
.............................. CYCLE    3 ..............................
........................................................................
   1    -10.4368420 -0.104368E+02  0.493E+00    0.40       0.0  T
   2    -10.4381615 -0.131955E-02  0.288E+00    0.40       1.0  T
   3    -10.4361086  0.205292E-02  0.764E-01    0.39       1.0  T
   4    -10.3890391  0.470695E-01  0.216E+00    0.43       1.0  T
   5    -10.4382100 -0.491709E-01  0.307E-01    0.39       1.0  T
   6    -10.4388049 -0.594923E-03  0.457E-02    0.39       1.0  T
   7    -10.4388053 -0.380992E-06  0.469E-02    0.39       1.0  T
   8    -10.4388170 -0.116758E-04  0.102E-02    0.39       4.4  T
   9    -10.4388174 -0.464407E-06  0.196E-03    0.39      22.8  T
  10    -10.4388174 -0.269287E-07  0.711E-04    0.39      62.9  T
  11    -10.4388174 -0.358461E-08  0.162E-04    0.39     276.9  T
     SCC iter.                  ...        0 min,  0.001 sec
     gradient                   ...        0 min,  0.002 sec
 * total energy  :   -10.1607552 Eh     change       -0.3334756E-01 Eh
   gradient norm :     0.2220603 Eh/α   predicted    -0.4805686E-01 (  44.11%)
   displ. norm   :     0.2936941 α      lambda       -0.4151214E-01
   maximum displ.:     0.2750806 α      in ANC's #3, #5, #8, ...

........................................................................
.............................. CYCLE    4 ..............................
........................................................................
   1    -10.3975773 -0.103976E+02  0.113E+00    0.29       0.0  T
   2    -10.3982324 -0.655153E-03  0.665E-01    0.29       1.0  T
   3    -10.3978827  0.349737E-03  0.450E-01    0.30       1.0  T
   4    -10.2505342  0.147349E+00  0.365E+00    0.40       1.0  T
   5    -10.3985764 -0.148042E+00  0.462E-02    0.30       1.0  T
   6    -10.3985765 -0.646281E-07  0.229E-02    0.30       2.0  T
   7    -10.3985768 -0.305625E-06  0.339E-03    0.30      13.2  T
   8    -10.3985768 -0.177554E-08  0.321E-03    0.30      13.9  T
   9    -10.3985768 -0.461016E-07  0.922E-04    0.30      48.5  T
  10    -10.3985768 -0.510889E-08  0.518E-04    0.30      86.3  T
     SCC iter.                  ...        0 min,  0.001 sec
     gradient                   ...        0 min,  0.001 sec
 * total energy  :   -10.1892159 Eh     change       -0.2846071E-01 Eh
   gradient norm :     0.0573274 Eh/α   predicted    -0.2254641E-01 ( -20.78%)
   displ. norm   :     0.5396563 α      lambda       -0.2177865E-01
   maximum displ.:     0.5070791 α      in ANC's #3, #5, #8, ...

........................................................................
.............................. CYCLE    5 ..............................
........................................................................
   1    -10.3770308 -0.103770E+02  0.184E+00    0.16       0.0  T
   2    -10.3775036 -0.472742E-03  0.115E+00    0.16       1.0  T
   3    -10.1768097  0.200694E+00  0.423E+00    0.26       1.0  T
   4    -10.1198745  0.569352E-01  0.476E+00    0.33       1.0  T
   5    -10.3781418 -0.258267E+00  0.210E-01    0.16       1.0  T
   6    -10.3782950 -0.153191E-03  0.159E-01    0.16       1.0  T
   7    -10.3784832 -0.188140E-03  0.708E-02    0.16       1.0  T
   8    -10.3784859 -0.271133E-05  0.617E-02    0.16       1.0  T
   9    -10.3785190 -0.331256E-04  0.277E-02    0.16       1.6  T
  10    -10.3785274 -0.838776E-05  0.293E-03    0.16      15.2  T
  11    -10.3785269  0.451599E-06  0.694E-03    0.16       6.4  T
  12    -10.3785270 -0.473590E-07  0.662E-03    0.16       6.8  T
  13    -10.3785274 -0.471720E-06  0.666E-04    0.16      67.1  T
  14    -10.3785274 -0.309028E-08  0.397E-04    0.16     112.8  T
     SCC iter.                  ...        0 min,  0.001 sec
     gradient                   ...        0 min,  0.001 sec
 * total energy  :   -10.1940211 Eh     change       -0.4805217E-02 Eh
   gradient norm :     0.0450964 Eh/α   predicted    -0.1406060E-01 ( 192.61%)
   displ. norm   :     0.2099591 α      lambda       -0.6638923E-02
   maximum displ.:     0.1969178 α      in ANC's #3, #8, #5, ...

........................................................................
.............................. CYCLE    6 ..............................
........................................................................
   1    -10.3822739 -0.103823E+02  0.836E-01    0.21       0.0  T
   2    -10.3823502 -0.762751E-04  0.499E-01    0.21       1.0  T
   3    -10.3316100  0.507401E-01  0.214E+00    0.23       1.0  T
   4    -10.3290815  0.252859E-02  0.219E+00    0.23       1.0  T
   5    -10.3824573 -0.533758E-01  0.346E-02    0.21       1.3  T
   6    -10.3824505  0.675560E-05  0.443E-02    0.21       1.0  T
   7    -10.3824609 -0.103995E-04  0.111E-02    0.21       4.0  T
   8    -10.3824610 -0.111009E-06  0.705E-04    0.21      63.4  T
   9    -10.3824610  0.512665E-09  0.533E-04    0.21      83.9  T
     SCC iter.                  ...        0 min,  0.001 sec
     gradient                   ...        0 min,  0.001 sec
 * total energy  :   -10.1970391 Eh     change       -0.3017988E-02 Eh
   gradient norm :     0.0080671 Eh/α   predicted    -0.3465796E-02 (  14.84%)
   displ. norm   :     0.0231415 α      lambda       -0.1308249E-03
   maximum displ.:     0.0157438 α      in ANC's #3, #5, #8, ...

........................................................................
.............................. CYCLE    7 ..............................
........................................................................
   1    -10.3822762 -0.103823E+02  0.762E-02    0.21       0.0  T
   2    -10.3822760  0.168331E-06  0.457E-02    0.21       1.0  T
   3    -10.3819195  0.356473E-03  0.181E-01    0.21       1.0  T
   4    -10.3817844  0.135130E-03  0.211E-01    0.21       1.0  T
   5    -10.3822757 -0.491257E-03  0.117E-02    0.21       3.8  T
   6    -10.3822765 -0.858165E-06  0.287E-03    0.21      15.6  T
   7    -10.3822765  0.188648E-07  0.219E-03    0.21      20.4  T
   8    -10.3822765 -0.293493E-07  0.993E-04    0.21      45.0  T
   9    -10.3822765 -0.669030E-08  0.167E-04    0.21     267.0  T
     SCC iter.                  ...        0 min,  0.001 sec
     gradient                   ...        0 min,  0.001 sec
 * total energy  :   -10.1971480 Eh     change       -0.1089043E-03 Eh
   gradient norm :     0.0074066 Eh/α   predicted    -0.6544568E-04 ( -39.91%)
   displ. norm   :     0.0535265 α      lambda       -0.2908969E-03
   maximum displ.:     0.0433165 α      in ANC's #5, #3, #8, ...

........................................................................
.............................. CYCLE    8 ..............................
........................................................................
   1    -10.3829997 -0.103830E+02  0.187E-01    0.21       0.0  T
   2    -10.3829807  0.189141E-04  0.117E-01    0.21       1.0  T
   3    -10.3827081  0.272626E-03  0.235E-01    0.21       1.0  T
   4    -10.3786111  0.409698E-02  0.626E-01    0.21       1.0  T
   5    -10.3829999 -0.438877E-02  0.233E-02    0.21       1.9  T
   6    -10.3830035 -0.361308E-05  0.115E-02    0.21       3.9  T
   7    -10.3830038 -0.253710E-06  0.506E-03    0.21       8.8  T
   8    -10.3830038 -0.511306E-07  0.357E-03    0.21      12.5  T
   9    -10.3830039 -0.824000E-07  0.979E-04    0.21      45.7  T
  10    -10.3830039 -0.293064E-08  0.255E-05    0.21    1755.5  T
     SCC iter.                  ...        0 min,  0.001 sec
     gradient                   ...        0 min,  0.001 sec
 * total energy  :   -10.1973278 Eh     change       -0.1798179E-03 Eh
   gradient norm :     0.0044521 Eh/α   predicted    -0.1458662E-03 ( -18.88%)
   displ. norm   :     0.0263716 α      lambda       -0.7379468E-04
   maximum displ.:     0.0180844 α      in ANC's #5, #1, #8, ...

........................................................................
.............................. CYCLE    9 ..............................
........................................................................
   1    -10.3839841 -0.103840E+02  0.221E-01    0.22       0.0  T
   2    -10.3838303  0.153845E-03  0.166E-01    0.22       1.0  T
   3    -10.3837052  0.125140E-03  0.278E-01    0.22       1.0  T
   4    -10.3795402  0.416494E-02  0.633E-01    0.22       1.0  T
   5    -10.3839652 -0.442494E-02  0.711E-02    0.22       1.0  T
   6    -10.3840130 -0.478616E-04  0.169E-02    0.22       2.6  T
   7    -10.3840143 -0.128838E-05  0.519E-03    0.22       8.6  T
   8    -10.3840143  0.493439E-07  0.471E-03    0.22       9.5  T
   9    -10.3840144 -0.185347E-06  0.316E-04    0.22     141.6  T
  10    -10.3840144 -0.798703E-10  0.322E-05    0.22    1389.5  T
     SCC iter.                  ...        0 min,  0.001 sec
     gradient                   ...        0 min,  0.001 sec
 * total energy  :   -10.1973921 Eh     change       -0.6434127E-04 Eh
   gradient norm :     0.0047925 Eh/α   predicted    -0.3692169E-04 ( -42.62%)
   displ. norm   :     0.4284043 α      lambda       -0.1014187E-02
   maximum displ.:     0.3302594 α      in ANC's #1, #5, #8, ...

........................................................................
.............................. CYCLE   10 ..............................
........................................................................
   1    -10.3932190 -0.103932E+02  0.354E+00    0.47       0.0  T
   2    -10.3881150  0.510400E-02  0.220E+00    0.41       1.0  T
   3    -10.3596746  0.284404E-01  0.263E+00    0.57       1.0  T
   4    -10.3960211 -0.363465E-01  0.592E-01    0.47       1.0  T
   5    -10.3783308  0.176903E-01  0.138E+00    0.49       1.0  T
   6    -10.3972493 -0.189184E-01  0.172E-01    0.48       1.0  T
   7    -10.3972518 -0.256902E-05  0.925E-02    0.48       1.0  T
   8    -10.3972538 -0.190830E-05  0.186E-02    0.48       2.4  T
   9    -10.3972564 -0.266590E-05  0.695E-03    0.48       6.4  T
  10    -10.3972565 -0.778229E-07  0.201E-03    0.48      22.3  T
  11    -10.3972565 -0.206444E-08  0.178E-04    0.48     251.8  T
  12    -10.3972565 -0.479705E-10  0.717E-05    0.48     623.9  T
     SCC iter.                  ...        0 min,  0.001 sec
     gradient                   ...        0 min,  0.001 sec
 * total energy  :   -10.1983176 Eh     change       -0.9254428E-03 Eh
   gradient norm :     0.0530378 Eh/α   predicted    -0.6001718E-03 ( -35.15%)
   displ. norm   :     0.2060879 α      lambda       -0.2692956E-02
   maximum displ.:     0.1558701 α      in ANC's #1, #5, #8, ...

........................................................................
.............................. CYCLE   11 ..............................
........................................................................
   1    -10.3898726 -0.103899E+02  0.144E+00    0.31       0.0  T
   2    -10.3900127 -0.140083E-03  0.932E-01    0.30       1.0  T
   3    -10.3862176  0.379512E-02  0.784E-01    0.32       1.0  T
   4    -10.2962958  0.899218E-01  0.297E+00    0.34       1.0  T
   5    -10.3797855 -0.834897E-01  0.104E+00    0.29       1.0  T
   6    -10.3903978 -0.106123E-01  0.656E-02    0.30       1.0  T
   7    -10.3904032 -0.538547E-05  0.407E-02    0.30       1.1  T
   8    -10.3904099 -0.666542E-05  0.138E-02    0.30       3.2  T
   9    -10.3904112 -0.134523E-05  0.545E-03    0.30       8.2  T
  10    -10.3904114 -0.185491E-06  0.173E-03    0.30      25.9  T
  11    -10.3904114 -0.200359E-07  0.332E-04    0.30     134.8  T
  12    -10.3904114 -0.635779E-09  0.159E-04    0.30     280.9  T
     SCC iter.                  ...        0 min,  0.001 sec
     gradient                   ...        0 min,  0.001 sec
 * total energy  :   -10.1986806 Eh     change       -0.3630337E-03 Eh
   gradient norm :     0.0341240 Eh/α   predicted    -0.1403666E-02 ( 286.65%)
   displ. norm   :     0.2365282 α      lambda       -0.2727767E-02
   maximum displ.:     0.1880904 α      in ANC's #1, #5, #3, ...

........................................................................
.............................. CYCLE   12 ..............................
........................................................................
   1    -10.3945952 -0.103946E+02  0.170E+00    0.46       0.0  T
   2    -10.3947545 -0.159370E-03  0.993E-01    0.47       1.0  T
   3    -10.3939128  0.841761E-03  0.524E-01    0.48       1.0  T
   4    -10.3940144 -0.101595E-03  0.308E-01    0.48       1.0  T
   5    -10.3945082 -0.493835E-03  0.213E-01    0.48       1.0  T
   6    -10.3949167 -0.408508E-03  0.748E-02    0.48       1.0  T
   7    -10.3949421 -0.253924E-04  0.635E-03    0.48       7.0  T
   8    -10.3949422 -0.861951E-07  0.235E-03    0.48      19.0  T
   9    -10.3949422  0.392701E-07  0.236E-03    0.48      19.0  T
  10    -10.3949422 -0.507024E-07  0.154E-04    0.48     291.3  T
  11    -10.3949422 -0.631779E-10  0.195E-05    0.48    2289.7  T
     SCC iter.                  ...        0 min,  0.001 sec
     gradient                   ...        0 min,  0.001 sec
 * total energy  :   -10.2015652 Eh     change       -0.2884603E-02 Eh
   gradient norm :     0.0399164 Eh/α   predicted    -0.1440186E-02 ( -50.07%)
   displ. norm   :     0.7681758 α      lambda       -0.1066560E-01
   maximum displ.:     0.6494874 α      in ANC's #1, #5, #3, ...

........................................................................
.............................. CYCLE   13 ..............................
........................................................................
   1    -10.3665919 -0.103666E+02  0.470E+00    1.47       0.0  T
   2    -10.2445921  0.122000E+00  0.502E+00    1.21       1.0  T
   3    -10.3650211 -0.120429E+00  0.304E+00    1.48       1.0  T
   4    -10.4007276 -0.357064E-01  0.418E-01    1.55       1.0  T
   5    -10.4011723 -0.444720E-03  0.226E-01    1.55       1.0  T
   6    -10.4013418 -0.169508E-03  0.754E-02    1.55       1.0  T
   7    -10.4013457 -0.390880E-05  0.160E-02    1.55       2.8  T
   8    -10.4013452  0.552525E-06  0.161E-02    1.55       2.8  T
   9    -10.4013464 -0.124890E-05  0.361E-03    1.55      12.4  T
  10    -10.4013464 -0.370349E-07  0.298E-03    1.55      15.0  T
  11    -10.4013465 -0.799395E-07  0.352E-04    1.55     127.1  T
  12    -10.4013465 -0.276966E-09  0.170E-05    1.55    2623.3  T
     SCC iter.                  ...        0 min,  0.001 sec
     gradient                   ...        0 min,  0.001 sec
 * total energy  :   -10.1868287 Eh     change        0.1473653E-01 Eh
   gradient norm :     0.1753723 Eh/α   predicted    -0.8479612E-02 (-157.54%)
   displ. norm   :     0.3661546 α      lambda       -0.3723736E-01
   maximum displ.:     0.3305765 α      in ANC's #1, #5, #8, ...

........................................................................
.............................. CYCLE   14 ..............................
........................................................................
   1    -10.3951200 -0.103951E+02  0.214E+00    1.07       0.0  T
   2    -10.3841551  0.109649E-01  0.184E+00    0.95       1.0  T
   3    -10.3981493 -0.139941E-01  0.119E+00    1.05       1.0  T
   4    -10.4024401 -0.429083E-02  0.147E-01    1.01       1.0  T
   5    -10.4024610 -0.208618E-04  0.110E-01    1.01       1.0  T
   6    -10.4022159  0.245064E-03  0.186E-01    1.01       1.0  T
   7    -10.4025130 -0.297083E-03  0.991E-03    1.01       4.5  T
   8    -10.4025132 -0.240445E-06  0.304E-03    1.01      14.7  T
   9    -10.4025132  0.464850E-08  0.106E-03    1.01      42.1  T
  10    -10.4025132 -0.906768E-08  0.212E-04    1.01     210.6  T
  11    -10.4025132 -0.156062E-09  0.915E-05    1.01     488.6  T
     SCC iter.                  ...        0 min,  0.001 sec
     gradient                   ...        0 min,  0.001 sec
 * total energy  :   -10.2056747 Eh     change       -0.1884605E-01 Eh
   gradient norm :     0.0425014 Eh/α   predicted    -0.2111487E-01 (  12.04%)
   displ. norm   :     0.1675928 α      lambda       -0.4451649E-02
   maximum displ.:     0.1487484 α      in ANC's #5, #8, #3, ...

........................................................................
.............................. CYCLE   15 ..............................
........................................................................
   1    -10.4142626 -0.104143E+02  0.641E-01    0.92       0.0  T
   2    -10.4138651  0.397479E-03  0.465E-01    0.90       1.0  T
   3    -10.4138935 -0.283748E-04  0.409E-01    0.93       1.0  T
   4    -10.4145685 -0.675049E-03  0.324E-02    0.91       1.4  T
   5    -10.4145346  0.339553E-04  0.673E-02    0.91       1.0  T
   6    -10.4145736 -0.390554E-04  0.721E-03    0.91       6.2  T
   7    -10.4145738 -0.160152E-06  0.279E-03    0.91      16.0  T
   8    -10.4145738 -0.241485E-07  0.125E-03    0.91      35.8  T
   9    -10.4145738  0.160979E-08  0.738E-04    0.91      60.6  T
  10    -10.4145738 -0.461455E-08  0.494E-05    0.91     906.0  T
     SCC iter.                  ...        0 min,  0.001 sec
     gradient                   ...        0 min,  0.001 sec
 * total energy  :   -10.2089202 Eh     change       -0.3245510E-02 Eh
   gradient norm :     0.0271431 Eh/α   predicted    -0.2288345E-02 ( -29.49%)
   displ. norm   :     0.2018336 α      lambda       -0.4886856E-02
   maximum displ.:     0.1740967 α      in ANC's #5, #1, #8, ...

........................................................................
.............................. CYCLE   16 ..............................
........................................................................
   1    -10.4165711 -0.104166E+02  0.819E-01    0.97       0.0  T
   2    -10.4164226  0.148513E-03  0.529E-01    0.99       1.0  T
   3    -10.4150631  0.135954E-02  0.518E-01    0.95       1.0  T
   4    -10.4167199 -0.165678E-02  0.734E-02    0.98       1.0  T
   5    -10.4167469 -0.270489E-04  0.298E-02    0.98       1.5  T
   6    -10.4167290  0.178696E-04  0.509E-02    0.98       1.0  T
   7    -10.4167515 -0.224906E-04  0.164E-03    0.98      27.3  T
   8    -10.4167515 -0.282668E-08  0.742E-04    0.98      60.3  T
   9    -10.4167515  0.398350E-08  0.833E-04    0.98      53.7  T
     SCC iter.                  ...        0 min,  0.001 sec
     gradient                   ...        0 min,  0.001 sec
 * total energy  :   -10.2126155 Eh     change       -0.3695255E-02 Eh
   gradient norm :     0.0280752 Eh/α   predicted    -0.2542964E-02 ( -31.18%)
   displ. norm   :     0.4105072 α      lambda       -0.8068314E-02
   maximum displ.:     0.2336435 α      in ANC's #1, #5, #3, ...

........................................................................
.............................. CYCLE   17 ..............................
........................................................................
   1    -10.4268074 -0.104268E+02  0.218E+00    1.51       0.0  T
   2    -10.4218685  0.493884E-02  0.159E+00    1.59       1.0  T
   3    -10.4173588  0.450967E-02  0.151E+00    1.47       1.0  T
   4    -10.4293172 -0.119584E-01  0.234E-01    1.55       1.0  T
   5    -10.4296211 -0.303824E-03  0.729E-02    1.55       1.0  T
   6    -10.4296326 -0.114816E-04  0.179E-02    1.56       2.5  T
   7    -10.4296265  0.602330E-05  0.289E-02    1.56       1.5  T
   8    -10.4296340 -0.743321E-05  0.239E-03    1.56      18.7  T
   9    -10.4296340  0.306731E-08  0.118E-03    1.56      38.0  T
  10    -10.4296340 -0.999476E-08  0.236E-04    1.56     189.1  T
  11    -10.4296340 -0.222428E-09  0.103E-04    1.56     435.9  T
     SCC iter.                  ...        0 min,  0.001 sec
     gradient                   ...        0 min,  0.001 sec
 * total energy  :   -10.2220775 Eh     change       -0.9461989E-02 Eh
   gradient norm :     0.0475057 Eh/α   predicted    -0.4713971E-02 ( -50.18%)
   displ. norm   :     0.4885240 α      lambda       -0.1629615E-01
   maximum displ.:     0.2942501 α      in ANC's #1, #3, #4, ...

........................................................................
.............................. CYCLE   18 ..............................
........................................................................
   1    -10.4492250 -0.104492E+02  0.226E+00    1.69       0.0  T
   2    -10.4394324  0.979261E-02  0.176E+00    1.75       1.0  T
   3    -10.4356469  0.378556E-02  0.176E+00    1.72       1.0  T
   4    -10.4520531 -0.164062E-01  0.402E-01    1.70       1.0  T
   5    -10.4529032 -0.850093E-03  0.765E-02    1.74       1.0  T
   6    -10.4529197 -0.164406E-04  0.206E-02    1.74       2.2  T
   7    -10.4529201 -0.397662E-06  0.104E-02    1.74       4.3  T
   8    -10.4529210 -0.933122E-06  0.222E-03    1.74      20.2  T
   9    -10.4529210  0.572582E-08  0.165E-03    1.74      27.0  T
  10    -10.4529210 -0.161563E-07  0.228E-04    1.74     196.0  T
  11    -10.4529210 -0.159998E-09  0.946E-05    1.74     472.7  T
     SCC iter.                  ...        0 min,  0.001 sec
     gradient                   ...        0 min,  0.001 sec
 * total energy  :   -10.2409927 Eh     change       -0.1891519E-01 Eh
   gradient norm :     0.0926840 Eh/α   predicted    -0.1009265E-01 ( -46.64%)
   displ. norm   :     0.4657052 α      lambda       -0.2309302E-01
   maximum displ.:     0.2807622 α      in ANC's #3, #4, #1, ...

........................................................................
.............................. CYCLE   19 ..............................
........................................................................
   1    -10.4870687 -0.104871E+02  0.181E+00    1.71       0.0  T
   2    -10.4781392  0.892952E-02  0.149E+00    1.72       1.0  T
   3    -10.4777826  0.356568E-03  0.145E+00    1.73       1.0  T
   4    -10.4894940 -0.117113E-01  0.149E-01    1.71       1.0  T
   5    -10.4896262 -0.132231E-03  0.435E-02    1.73       1.0  T
   6    -10.4896237  0.244188E-05  0.324E-02    1.73       1.4  T
   7    -10.4896264 -0.262552E-05  0.260E-02    1.73       1.7  T
   8    -10.4896321 -0.576748E-05  0.657E-04    1.73      68.1  T
   9    -10.4896321  0.100869E-09  0.264E-04    1.73     169.4  T
  10    -10.4896321 -0.943192E-10  0.144E-04    1.73     309.7  T
     SCC iter.                  ...        0 min,  0.001 sec
     gradient                   ...        0 min,  0.001 sec
 * total energy  :   -10.2626280 Eh     change       -0.2163529E-01 Eh
   gradient norm :     0.1107294 Eh/α   predicted    -0.1405074E-01 ( -35.06%)
   displ. norm   :     0.8018117 α      lambda       -0.4920024E-01
   maximum displ.:     0.5288011 α      in ANC's #4, #3, #8, ...

........................................................................
.............................. CYCLE   20 ..............................
........................................................................
   1    -10.5741960 -0.105742E+02  0.292E+00    1.61       0.0  T
   2    -10.5721445  0.205147E-02  0.179E+00    1.61       1.0  T
   3    -10.5337671  0.383774E-01  0.224E+00    1.57       1.0  T
   4    -10.5748840 -0.411169E-01  0.179E-01    1.62       1.0  T
   5    -10.5749701 -0.860992E-04  0.755E-02    1.60       1.0  T
   6    -10.5749504  0.197247E-04  0.837E-02    1.60       1.0  T
   7    -10.5749996 -0.491790E-04  0.376E-02    1.60       1.2  T
   8    -10.5750100 -0.104110E-04  0.208E-03    1.60      21.5  T
   9    -10.5750100  0.150929E-08  0.113E-03    1.60      39.6  T
  10    -10.5750100 -0.709418E-08  0.325E-04    1.60     137.7  T
  11    -10.5750100 -0.637694E-09  0.839E-05    1.60     533.0  T
     SCC iter.                  ...        0 min,  0.001 sec
     gradient                   ...        0 min,  0.001 sec
 * total energy  :   -10.2991925 Eh     change       -0.3656459E-01 Eh
   gradient norm :     0.0714552 Eh/α   predicted    -0.4041556E-01 (  10.53%)
   displ. norm   :     0.7065631 α      lambda       -0.2526633E-01
   maximum displ.:     0.4676149 α      in ANC's #3, #4, #5, ...
 * RMSD in coord.:     1.9016081 α      energy gain  -0.1904029E+00 Eh

generating ANC from model Hessian ...
Using Lindh-Hessian (1995)
 Shifting diagonal of input Hessian by    9.4491293696323565E-003
 Lowest  eigenvalues of input Hessian
   -0.000000   -0.000000   -0.000000   -0.000000    0.000000    0.000000
    0.010000    0.012409    0.172034    0.409128    0.470610    0.550224
    1.138894    1.759510    2.512504
 Highest eigenvalues
    0.409128    0.470610    0.550224    1.138894    1.759510    2.512504


........................................................................
.............................. CYCLE   21 ..............................
........................................................................
   1    -10.5256566 -0.105257E+02  0.196E+00    1.68       0.0  T
   2    -10.5152805  0.103762E-01  0.160E+00    1.70       1.0  T
   3    -10.5116948  0.358569E-02  0.157E+00    1.67       1.0  T
   4    -10.5253994 -0.137046E-01  0.536E-01    1.71       1.0  T
   5    -10.5277202 -0.232076E-02  0.270E-01    1.71       1.0  T
   6    -10.5284375 -0.717338E-03  0.562E-02    1.70       1.0  T
   7    -10.5284512 -0.136799E-04  0.192E-02    1.70       2.3  T
   8    -10.5284529 -0.165951E-05  0.212E-03    1.70      21.1  T
   9    -10.5284529 -0.108068E-07  0.580E-04    1.70      77.0  T
  10    -10.5284529 -0.175687E-08  0.191E-04    1.70     234.2  T
     SCC iter.                  ...        0 min,  0.001 sec
     gradient                   ...        0 min,  0.001 sec
 * total energy  :   -10.3097444 Eh     change       -0.1055186E-01 Eh
   gradient norm :     0.1225356 Eh/α   predicted     0.0000000E+00 (-100.00%)
   displ. norm   :     0.1464425 α      lambda       -0.1470808E-01
   maximum displ.:     0.0944218 α      in ANC's #6, #5, #8, ...

........................................................................
.............................. CYCLE   22 ..............................
........................................................................
   1    -10.5800621 -0.105801E+02  0.704E-01    1.79       0.0  T
   2    -10.5743897  0.567245E-02  0.941E-01    1.72       1.0  T
   3    -10.5818198 -0.743010E-02  0.323E-01    1.77       1.0  T
   4    -10.5813140  0.505758E-03  0.265E-01    1.74       1.0  T
   5    -10.5820225 -0.708461E-03  0.790E-02    1.75       1.0  T
   6    -10.5820642 -0.417249E-04  0.357E-02    1.75       1.3  T
   7    -10.5820695 -0.532094E-05  0.563E-03    1.75       7.9  T
   8    -10.5820695 -0.287937E-07  0.681E-04    1.75      65.7  T
   9    -10.5820695  0.202167E-10  0.328E-04    1.75     136.5  T
     SCC iter.                  ...        0 min,  0.001 sec
     gradient                   ...        0 min,  0.001 sec
 * total energy  :   -10.3191257 Eh     change       -0.9381288E-02 Eh
   gradient norm :     0.0313230 Eh/α   predicted    -0.7511751E-02 ( -19.93%)
   displ. norm   :     0.1168660 α      lambda       -0.2876658E-02
   maximum displ.:     0.0868693 α      in ANC's #3, #6, #5, ...

........................................................................
.............................. CYCLE   23 ..............................
........................................................................
   1    -10.5963753 -0.105964E+02  0.446E-01    1.72       0.0  T
   2    -10.5958575  0.517759E-03  0.357E-01    1.69       1.0  T
   3    -10.5958518  0.569781E-05  0.341E-01    1.72       1.0  T
   4    -10.5961988 -0.346947E-03  0.180E-01    1.70       1.0  T
   5    -10.5965626 -0.363840E-03  0.141E-02    1.70       3.2  T
   6    -10.5965627 -0.856243E-07  0.110E-02    1.70       4.1  T
   7    -10.5965630 -0.328366E-06  0.307E-03    1.70      14.6  T
   8    -10.5965631 -0.637488E-07  0.352E-04    1.70     127.1  T
   9    -10.5965631 -0.743174E-10  0.167E-04    1.70     267.2  T
     SCC iter.                  ...        0 min,  0.001 sec
     gradient                   ...        0 min,  0.001 sec
 * total energy  :   -10.3212881 Eh     change       -0.2162359E-02 Eh
   gradient norm :     0.0236442 Eh/α   predicted    -0.1457973E-02 ( -32.57%)
   displ. norm   :     0.2722814 α      lambda       -0.4159980E-02
   maximum displ.:     0.2274952 α      in ANC's #3, #6, #1, ...

........................................................................
.............................. CYCLE   24 ..............................
........................................................................
   1    -10.5979783 -0.105980E+02  0.959E-01    1.63       0.0  T
   2    -10.5979657  0.125969E-04  0.566E-01    1.62       1.0  T
   3    -10.5969886  0.977163E-03  0.364E-01    1.66       1.0  T
   4    -10.5979266 -0.938068E-03  0.100E-01    1.63       1.0  T
   5    -10.5979806 -0.540135E-04  0.536E-02    1.63       1.0  T
   6    -10.5980095 -0.288778E-04  0.184E-02    1.63       2.4  T
   7    -10.5980112 -0.164727E-05  0.152E-03    1.63      29.3  T
   8    -10.5980112 -0.827615E-08  0.498E-04    1.63      89.8  T
   9    -10.5980112 -0.112009E-08  0.283E-04    1.63     158.0  T
     SCC iter.                  ...        0 min,  0.001 sec
     gradient                   ...        0 min,  0.001 sec
 * total energy  :   -10.3247227 Eh     change       -0.3434669E-02 Eh
   gradient norm :     0.0254339 Eh/α   predicted    -0.2234190E-02 ( -34.95%)
   displ. norm   :     0.5983878 α      lambda       -0.5858073E-02
   maximum displ.:     0.3920105 α      in ANC's #1, #3, #6, ...

........................................................................
.............................. CYCLE   25 ..............................
........................................................................
   1    -10.5624258 -0.105624E+02  0.203E+00    1.66       0.0  T
   2    -10.5583134  0.411233E-02  0.138E+00    1.72       1.0  T
   3    -10.5393507  0.189628E-01  0.178E+00    1.60       1.0  T
   4    -10.5520553 -0.127046E-01  0.990E-01    1.65       1.0  T
   5    -10.5637613 -0.117060E-01  0.144E-01    1.70       1.0  T
   6    -10.5638596 -0.982234E-04  0.575E-02    1.69       1.0  T
   7    -10.5638769 -0.173625E-04  0.188E-02    1.70       2.4  T
   8    -10.5638782 -0.126732E-05  0.325E-03    1.70      13.8  T
   9    -10.5638783 -0.763078E-07  0.128E-03    1.70      35.1  T
  10    -10.5638783 -0.278175E-08  0.276E-04    1.70     162.1  T
  11    -10.5638783 -0.323336E-09  0.462E-05    1.70     967.2  T
     SCC iter.                  ...        0 min,  0.001 sec
     gradient                   ...        0 min,  0.001 sec
 * total energy  :   -10.3254918 Eh     change       -0.7690677E-03 Eh
   gradient norm :     0.0695405 Eh/α   predicted    -0.3977843E-02 ( 417.23%)
   displ. norm   :     0.3011777 α      lambda       -0.5356474E-02
   maximum displ.:     0.2243792 α      in ANC's #1, #3, #6, ...

........................................................................
.............................. CYCLE   26 ..............................
........................................................................
   1    -10.5947427 -0.105947E+02  0.985E-01    1.65       0.0  T
   2    -10.5921031  0.263955E-02  0.818E-01    1.59       1.0  T
   3    -10.5894514  0.265172E-02  0.877E-01    1.64       1.0  T
   4    -10.5813010  0.815044E-02  0.114E+00    1.58       1.0  T
   5    -10.5956037 -0.143027E-01  0.274E-02    1.61       1.6  T
   6    -10.5956035  0.203061E-06  0.210E-02    1.61       2.1  T
   7    -10.5956039 -0.390477E-06  0.153E-02    1.61       2.9  T
   8    -10.5956047 -0.811355E-06  0.161E-03    1.61      27.7  T
   9    -10.5956047 -0.269422E-08  0.109E-03    1.61      41.0  T
  10    -10.5956047 -0.421965E-08  0.193E-04    1.61     232.3  T
  11    -10.5956047 -0.190006E-09  0.328E-05    1.61    1361.9  T
     SCC iter.                  ...        0 min,  0.001 sec
     gradient                   ...        0 min,  0.001 sec
 * total energy  :   -10.3272263 Eh     change       -0.1734537E-02 Eh
   gradient norm :     0.0099111 Eh/α   predicted    -0.2921179E-02 (  68.41%)
   displ. norm   :     0.1036857 α      lambda       -0.5465002E-03
   maximum displ.:     0.0707027 α      in ANC's #1, #2, #3, ...

........................................................................
.............................. CYCLE   27 ..............................
........................................................................
   1    -10.5944789 -0.105945E+02  0.383E-01    1.61       0.0  T
   2    -10.5899233  0.455561E-02  0.673E-01    1.58       1.0  T
   3    -10.5941821 -0.425881E-02  0.296E-01    1.61       1.0  T
   4    -10.5947460 -0.563918E-03  0.698E-02    1.61       1.0  T
   5    -10.5947874 -0.414050E-04  0.118E-02    1.61       3.8  T
   6    -10.5947875 -0.133020E-06  0.791E-03    1.61       5.7  T
   7    -10.5947879 -0.327859E-06  0.338E-03    1.61      13.2  T
   8    -10.5947879 -0.459067E-07  0.555E-04    1.61      80.5  T
   9    -10.5947879 -0.598094E-09  0.381E-04    1.61     117.3  T
     SCC iter.                  ...        0 min,  0.001 sec
     gradient                   ...        0 min,  0.001 sec
 * total energy  :   -10.3276248 Eh     change       -0.3985105E-03 Eh
   gradient norm :     0.0170003 Eh/α   predicted    -0.2761874E-03 ( -30.70%)
   displ. norm   :     0.4791131 α      lambda       -0.2237545E-02
   maximum displ.:     0.3358784 α      in ANC's #1, #3, #6, ...

........................................................................
.............................. CYCLE   28 ..............................
........................................................................
   1    -10.5600793 -0.105601E+02  0.180E+00    1.68       0.0  T
   2    -10.4348215  0.125258E+00  0.352E+00    1.31       1.0  T
   3    -10.5498137 -0.114992E+00  0.156E+00    1.72       1.0  T
   4    -10.5572865 -0.747277E-02  0.113E+00    1.60       1.0  T
   5    -10.5675794 -0.102929E-01  0.221E-01    1.68       1.0  T
   6    -10.5680320 -0.452606E-03  0.805E-02    1.67       1.0  T
   7    -10.5680360 -0.406093E-05  0.577E-02    1.67       1.0  T
   8    -10.5680448 -0.877060E-05  0.145E-02    1.67       3.1  T
   9    -10.5680462 -0.144502E-05  0.339E-03    1.67      13.2  T
  10    -10.5680463 -0.457795E-07  0.996E-04    1.67      44.9  T
  11    -10.5680463 -0.143518E-08  0.139E-04    1.67     321.1  T
     SCC iter.                  ...        0 min,  0.001 sec
     gradient                   ...        0 min,  0.001 sec
 * total energy  :   -10.3249498 Eh     change        0.2675018E-02 Eh
   gradient norm :     0.0936611 Eh/α   predicted    -0.1375574E-02 (-151.42%)
   displ. norm   :     0.2998801 α      lambda       -0.8203043E-02
   maximum displ.:     0.1994560 α      in ANC's #1, #3, #2, ...

........................................................................
.............................. CYCLE   29 ..............................
........................................................................
   1    -10.5881875 -0.105882E+02  0.124E+00    1.62       0.0  T
   2    -10.5067275  0.814600E-01  0.281E+00    1.33       1.0  T
   3    -10.5922551 -0.855276E-01  0.707E-01    1.60       1.0  T
   4    -10.5904709  0.178416E-02  0.745E-01    1.64       1.0  T
   5    -10.5944366 -0.396570E-02  0.205E-01    1.59       1.0  T
   6    -10.5947066 -0.269904E-03  0.428E-02    1.60       1.0  T
   7    -10.5947137 -0.718944E-05  0.211E-02    1.60       2.1  T
   8    -10.5947160 -0.222814E-05  0.818E-03    1.60       5.5  T
   9    -10.5947163 -0.364458E-06  0.116E-03    1.60      38.4  T
  10    -10.5947163 -0.186504E-08  0.631E-04    1.60      70.8  T
  11    -10.5947163 -0.240616E-08  0.675E-05    1.60     662.8  T
     SCC iter.                  ...        0 min,  0.001 sec
     gradient                   ...        0 min,  0.001 sec
 * total energy  :   -10.3283218 Eh     change       -0.3371936E-02 Eh
   gradient norm :     0.0150240 Eh/α   predicted    -0.4470358E-02 (  32.58%)
   displ. norm   :     0.0335740 α      lambda       -0.1782596E-03
   maximum displ.:     0.0209501 α      in ANC's #6, #2, #3, ...

........................................................................
.............................. CYCLE   30 ..............................
........................................................................
   1    -10.5964063 -0.105964E+02  0.159E-01    1.59       0.0  T
   2    -10.5948885  0.151776E-02  0.380E-01    1.58       1.0  T
   3    -10.5964727 -0.158422E-02  0.928E-02    1.59       1.0  T
   4    -10.5964485  0.242095E-04  0.868E-02    1.60       1.0  T
   5    -10.5965160 -0.675028E-04  0.594E-03    1.59       7.5  T
   6    -10.5965161 -0.722936E-07  0.409E-03    1.59      10.9  T
   7    -10.5965162 -0.102858E-06  0.173E-03    1.59      25.9  T
   8    -10.5965162 -0.111031E-07  0.213E-04    1.59     209.9  T
   9    -10.5965162  0.758753E-10  0.182E-04    1.59     246.0  T
     SCC iter.                  ...        0 min,  0.001 sec
     gradient                   ...        0 min,  0.001 sec
 * total energy  :   -10.3284546 Eh     change       -0.1328509E-03 Eh
   gradient norm :     0.0069285 Eh/α   predicted    -0.8922933E-04 ( -32.83%)
   displ. norm   :     0.1210124 α      lambda       -0.3100809E-03
   maximum displ.:     0.0772116 α      in ANC's #1, #6, #3, ...

........................................................................
.............................. CYCLE   31 ..............................
........................................................................
   1    -10.5970595 -0.105971E+02  0.411E-01    1.59       0.0  T
   2    -10.5969871  0.723365E-04  0.266E-01    1.58       1.0  T
   3    -10.5920082  0.497894E-02  0.664E-01    1.57       1.0  T
   4    -10.5970360 -0.502783E-02  0.588E-02    1.59       1.0  T
   5    -10.5970674 -0.313292E-04  0.923E-03    1.58       4.8  T
   6    -10.5970675 -0.194334E-06  0.607E-03    1.58       7.4  T
   7    -10.5970676 -0.983254E-07  0.180E-03    1.58      24.9  T
   8    -10.5970676 -0.318934E-08  0.183E-04    1.58     244.5  T
   9    -10.5970676 -0.211998E-09  0.868E-05    1.58     515.2  T
     SCC iter.                  ...        0 min,  0.001 sec
     gradient                   ...        0 min,  0.001 sec
 * total energy  :   -10.3286516 Eh     change       -0.1970035E-03 Eh
   gradient norm :     0.0044863 Eh/α   predicted    -0.1573093E-03 ( -20.15%)
   displ. norm   :     0.0627471 α      lambda       -0.6328418E-04
   maximum displ.:     0.0541416 α      in ANC's #1, #6, #5, ...

........................................................................
.............................. CYCLE   32 ..............................
........................................................................
   1    -10.5980852 -0.105981E+02  0.199E-01    1.58       0.0  T
   2    -10.5980529  0.323250E-04  0.134E-01    1.58       1.0  T
   3    -10.5966648  0.138806E-02  0.353E-01    1.58       1.0  T
   4    -10.5980834 -0.141856E-02  0.228E-02    1.58       2.0  T
   5    -10.5980881 -0.470287E-05  0.403E-03    1.58      11.1  T
   6    -10.5980881  0.745056E-08  0.289E-03    1.58      15.5  T
   7    -10.5980881 -0.319785E-07  0.639E-04    1.58      70.0  T
   8    -10.5980881 -0.780801E-09  0.668E-05    1.58     669.9  T
     SCC iter.                  ...        0 min,  0.001 sec
     gradient                   ...        0 min,  0.001 sec
 * total energy  :   -10.3286910 Eh     change       -0.3936689E-04 Eh
   gradient norm :     0.0038578 Eh/α   predicted    -0.3176848E-04 ( -19.30%)
   displ. norm   :     0.0290003 α      lambda       -0.1996971E-04
   maximum displ.:     0.0243323 α      in ANC's #1, #5, #6, ...

........................................................................
.............................. CYCLE   33 ..............................
........................................................................
   1    -10.5985942 -0.105986E+02  0.947E-02    1.58       0.0  T
   2    -10.5985835  0.107137E-04  0.666E-02    1.58       1.0  T
   3    -10.5983869  0.196534E-03  0.139E-01    1.58       1.0  T
   4    -10.5985646 -0.177708E-03  0.550E-02    1.58       1.0  T
   5    -10.5985960 -0.313069E-04  0.180E-03    1.58      24.8  T
   6    -10.5985960  0.774275E-09  0.999E-04    1.58      44.8  T
   7    -10.5985960 -0.160385E-08  0.428E-04    1.58     104.5  T
     SCC iter.                  ...        0 min,  0.001 sec
     gradient                   ...        0 min,  0.001 sec
 * total energy  :   -10.3287051 Eh     change       -0.1411988E-04 Eh
   gradient norm :     0.0015734 Eh/α   predicted    -0.9994714E-05 ( -29.22%)
   displ. norm   :     0.0503675 α      lambda       -0.1492042E-04
   maximum displ.:     0.0461229 α      in ANC's #1, #5, #8, ...

........................................................................
.............................. CYCLE   34 ..............................
........................................................................
   1    -10.5992246 -0.105992E+02  0.161E-01    1.58       0.0  T
   2    -10.5992226  0.199315E-05  0.994E-02    1.57       1.0  T
   3    -10.5990824  0.140188E-03  0.116E-01    1.58       1.0  T
   4    -10.5992059 -0.123448E-03  0.421E-02    1.58       1.1  T
   5    -10.5992255 -0.195588E-04  0.300E-03    1.58      14.9  T
   6    -10.5992254  0.779542E-08  0.188E-03    1.58      23.8  T
   7    -10.5992255 -0.245466E-07  0.359E-04    1.58     124.7  T
   8    -10.5992255 -0.864137E-09  0.428E-05    1.58    1044.1  T
     SCC iter.                  ...        0 min,  0.001 sec
     gradient                   ...        0 min,  0.001 sec
 * total energy  :   -10.3287197 Eh     change       -0.1459929E-04 Eh
   gradient norm :     0.0020603 Eh/α   predicted    -0.7469250E-05 ( -48.84%)
   displ. norm   :     0.0234031 α      lambda       -0.1052412E-04
   maximum displ.:     0.0213670 α      in ANC's #1, #5, #6, ...

........................................................................
.............................. CYCLE   35 ..............................
........................................................................
   1    -10.5990339 -0.105990E+02  0.757E-02    1.58       0.0  T
   2    -10.5990313  0.257426E-05  0.485E-02    1.58       1.0  T
   3    -10.5988642  0.167089E-03  0.122E-01    1.57       1.0  T
   4    -10.5990333 -0.169055E-03  0.954E-03    1.58       4.7  T
   5    -10.5990341 -0.859466E-06  0.126E-03    1.58      35.6  T
   6    -10.5990341  0.315893E-08  0.895E-04    1.58      50.0  T
   7    -10.5990341 -0.487349E-08  0.172E-04    1.58     260.2  T
     SCC iter.                  ...        0 min,  0.001 sec
     gradient                   ...        0 min,  0.001 sec
 * total energy  :   -10.3287281 Eh     change       -0.8377495E-05 Eh
   gradient norm :     0.0015748 Eh/α   predicted    -0.5263023E-05 ( -37.18%)
   displ. norm   :     0.0460115 α      lambda       -0.1271366E-04
   maximum displ.:     0.0375672 α      in ANC's #1, #5, #6, ...

........................................................................
.............................. CYCLE   36 ..............................
........................................................................
   1    -10.5991838 -0.105992E+02  0.154E-01    1.58       0.0  T
   2    -10.5991603  0.235489E-04  0.103E-01    1.58       1.0  T
   3    -10.5983206  0.839646E-03  0.276E-01    1.57       1.0  T
   4    -10.5991852 -0.864552E-03  0.818E-03    1.58       5.5  T
   5    -10.5991857 -0.487835E-06  0.291E-03    1.58      15.3  T
   6    -10.5991857 -0.459742E-08  0.207E-03    1.58      21.6  T
   7    -10.5991857 -0.221047E-07  0.469E-04    1.58      95.3  T
   8    -10.5991857 -0.623473E-09  0.615E-05    1.58     726.7  T
     SCC iter.                  ...        0 min,  0.001 sec
     gradient                   ...        0 min,  0.001 sec
 * total energy  :   -10.3287321 Eh     change       -0.4067033E-05 Eh
   gradient norm :     0.0010173 Eh/α   predicted    -0.6363133E-05 (  56.46%)
   displ. norm   :     0.0191253 α      lambda       -0.3378438E-05
   maximum displ.:     0.0157942 α      in ANC's #1, #5, #6, ...

........................................................................
.............................. CYCLE   37 ..............................
........................................................................
   1    -10.5988137 -0.105988E+02  0.651E-02    1.58       0.0  T
   2    -10.5987862  0.274653E-04  0.630E-02    1.58       1.0  T
   3    -10.5987419  0.442937E-04  0.856E-02    1.58       1.0  T
   4    -10.5988139 -0.719766E-04  0.140E-02    1.58       3.2  T
   5    -10.5988157 -0.182429E-05  0.127E-03    1.58      35.2  T
   6    -10.5988157  0.286952E-08  0.102E-03    1.58      44.0  T
   7    -10.5988157 -0.587995E-08  0.184E-04    1.58     242.6  T
   8    -10.5988157 -0.133285E-09  0.493E-05    1.58     907.5  T
     SCC iter.                  ...        0 min,  0.001 sec
     gradient                   ...        0 min,  0.001 sec
 * total energy  :   -10.3287346 Eh     change       -0.2423152E-05 Eh
   gradient norm :     0.0005989 Eh/α   predicted    -0.1687361E-05 ( -30.37%)
   displ. norm   :     0.0095891 α      lambda       -0.4186737E-06
   maximum displ.:     0.0087846 α      in ANC's #1, #5, #2, ...

   *** GEOMETRY OPTIMIZATION CONVERGED AFTER 37 ITERATIONS ***

------------------------------------------------------------------------
 total energy gain   :        -0.2199450 Eh     -138.0176 kcal/mol
 total RMSD          :         2.1141913 a0        1.1188 Å
 total power (kW/mol):       -15.6071740 (step)-3993.8751 (real)
------------------------------------------------------------------------

 ANCopt (total)                0 d,  0 h,  0 min,  0.145 sec
 optimizer setup                ...        0 min,  0.000 sec (  0.046%)
 model hessian                  ...        0 min,  0.000 sec (  0.083%)
 ANC generation                 ...        0 min,  0.000 sec (  0.066%)
 coordinate transformation      ...        0 min,  0.000 sec (  0.055%)
 single point calculation       ...        0 min,  0.141 sec ( 97.822%)
 optimization log               ...        0 min,  0.001 sec (  0.630%)
 hessian update                 ...        0 min,  0.000 sec (  0.058%)
 rational function              ...        0 min,  0.001 sec (  0.552%)

================
 final structure:
================
5
 xtb: 6.2.2 (9d81278992624c895f80dd42a50cac0aa55982e2)
C        -1.25243678165510    0.28405492703760    0.06029606639139
C        -0.00013551526051    0.00000529402425   -0.00167501963412
C         1.25261829105903   -0.28359414686455   -0.06220477406642
C        -2.49509119943193    0.56475190143039    0.12568344802280
C         2.49504620528847   -0.56521897562772   -0.12209972071355

 Bond Distances (Angstroems)
 ---------------------------
C1-C2=1.2856         C1-C4=1.2756         C2-C1=1.2856         C2-C3=1.2859         C3-C2=1.2859         C3-C5=1.2754         
C4-C1=1.2756         C5-C3=1.2754         
 C  C  Rav=1.2806 sigma=0.0051  Rmin=1.2754  Rmax=1.2859     4

 selected bond angles (degree)
 --------------------
C4-C1-C2=179.82                C3-C2-C1=179.93                C5-C3-C2=179.98                

 selected dihedral angles (degree)
 ---------------------------------
C3-C2-C1-C4=323.45            C5-C3-C2-C1= 88.81            
           -------------------------------------------------
          |                Final Singlepoint                |
           -------------------------------------------------

          ...................................................
          :                      SETUP                      :
          :.................................................:
          :  # basis functions                  20          :
          :  # atomic orbitals                  20          :
          :  # shells                           10          :
          :  # electrons                        20          :
          :  max. iterations                   250          :
          :  Hamiltonian                  GFN2-xTB          :
          :  restarted?                      false          :
          :  GBSA solvation                  false          :
          :  PC potential                    false          :
          :  electronic temp.          300.0000000     K    :
          :  accuracy                    1.0000000          :
          :  -> integral cutoff          0.2500000E+02      :
          :  -> integral neglect         0.1000000E-07      :
          :  -> SCF convergence          0.1000000E-05 Eh   :
          :  -> wf. convergence          0.1000000E-03 e    :
          :  Broyden damping             0.4000000          :
          ...................................................

 iter      E             dE          RMSdq      gap      omega  full diag
   1    -10.5988157 -0.105988E+02  0.222E-05    1.58       0.0  T
   2    -10.5988157  0.300346E-10  0.509E-05    1.58     878.3  T
   3    -10.5988157 -0.282334E-10  0.221E-05    1.58    2022.1  T

   *** convergence criteria satisfied after 3 iterations ***

         #    Occupation            Energy/Eh            Energy/eV
      -------------------------------------------------------------
         1        2.0000           -0.6928694             -18.8539
       ...           ...                  ...                  ...
         4        2.0000           -0.6136624             -16.6986
         5        2.0000           -0.5388583             -14.6631
         6        2.0000           -0.5388582             -14.6631
         7        2.0000           -0.4709022             -12.8139
         8        2.0000           -0.4709019             -12.8139
         9        2.0000           -0.4636707             -12.6171
        10        2.0000           -0.4471229             -12.1668 (HOMO)
        11                         -0.3891426             -10.5891 (LUMO)
        12                         -0.3891425             -10.5891
        13                         -0.2441936              -6.6448
        14                         -0.2441933              -6.6448
        15                         -0.1168110              -3.1786
       ...                                ...                  ...
        20                          1.4161323              38.5349
      -------------------------------------------------------------
                  HL-Gap            0.0579803 Eh            1.5777 eV
             Fermi-level           -0.4184345 Eh          -11.3862 eV

 SCC (total)                   0 d,  0 h,  0 min,  0.004 sec
 SCC setup                      ...        0 min,  0.000 sec (  1.932%)
 Dispersion                     ...        0 min,  0.000 sec (  0.471%)
 integral evaluation            ...        0 min,  0.001 sec ( 39.955%)
 zeroth order Hamiltonian       ...        0 min,  0.000 sec (  0.584%)
 iterations                     ...        0 min,  0.001 sec ( 17.660%)
 molecular gradient             ...        0 min,  0.001 sec ( 37.518%)
 printout                       ...        0 min,  0.000 sec (  1.580%)

         :::::::::::::::::::::::::::::::::::::::::::::::::::::
         ::                     SUMMARY                     ::
         :::::::::::::::::::::::::::::::::::::::::::::::::::::
         :: total energy             -10.328734569029 Eh    ::
         :: gradient norm              0.000599239228 Eh/a0 ::
         :: HOMO-LUMO gap              1.577725319205 eV    ::
         ::.................................................::
         :: SCC energy               -10.598815727578 Eh    ::
         :: -> isotropic ES           -0.017418480498 Eh    ::
         :: -> anisotropic ES         -0.000330756307 Eh    ::
         :: -> anisotropic XC          0.021787080263 Eh    ::
         :: -> dispersion             -0.002738246563 Eh    ::
         :: repulsion energy           0.270082512978 Eh    ::
         :: add. restraining           0.000000000000 Eh    ::
         :::::::::::::::::::::::::::::::::::::::::::::::::::::

           ------------------------------------------------- 
          |                Numerical Hessian                |
           ------------------------------------------------- 
step length          :   0.00500
SCC accuracy         :   0.30000
Hessian scale factor :   1.00000
frozen atoms in %    :   0.00000    0
RMS gradient         :   0.00059
estimated CPU  time      0.00 min
estimated wall time      0.00 min

writing file <hessian>.

 vibrational frequencies (cm-1)
eigval :        0.00     0.00     0.00     0.00     0.00   101.07
eigval :      101.26   211.74   211.76   492.10   492.10   821.77
eigval :     1551.64  1994.53  2155.58
           -------------------------------------------------
          |                Property Printout                |
           -------------------------------------------------

    * Orbital Energies and Occupations

         #    Occupation            Energy/Eh            Energy/eV
      -------------------------------------------------------------
         1        2.0000           -0.6928695             -18.8539
         2        2.0000           -0.6801875             -18.5088
         3        2.0000           -0.6590164             -17.9327
         4        2.0000           -0.6136625             -16.6986
         5        2.0000           -0.5388585             -14.6631
         6        2.0000           -0.5388584             -14.6631
         7        2.0000           -0.4709022             -12.8139
         8        2.0000           -0.4709019             -12.8139
         9        2.0000           -0.4636706             -12.6171
        10        2.0000           -0.4471228             -12.1668 (HOMO)
        11                         -0.3891426             -10.5891 (LUMO)
        12                         -0.3891424             -10.5891
        13                         -0.2441936              -6.6448
        14                         -0.2441933              -6.6448
        15                         -0.1168111              -3.1786
        16                         -0.1168092              -3.1785
        17                          0.0892733               2.4293
        18                          0.4583965              12.4736
        19                          0.9479235              25.7943
        20                          1.4161321              38.5349
      -------------------------------------------------------------
                  HL-Gap            0.0579803 Eh            1.5777 eV
             Fermi-level           -0.4184344 Eh          -11.3862 eV

     #   Z        covCN         q      C6AA      α(0)
     1   6 C      1.963     0.048    29.858     8.824
     2   6 C      1.964     0.112    28.309     8.592
     3   6 C      1.963     0.048    29.858     8.824
     4   6 C      0.982    -0.103    39.218    10.519
     5   6 C      0.982    -0.104    39.221    10.520

 Mol. C6AA /au·bohr⁶  :        827.820526
 Mol. C8AA /au·bohr⁸  :      23942.008169
 Mol. α(0) /au        :         47.279586


Wiberg/Mayer (AO) data.
largest (>0.10) Wiberg bond orders for each atom
          total WBO             WBO to atom ...
     1  C   3.976        C    4 2.037    C    2 1.760    C    5 0.163
     2  C   3.934        C    1 1.760    C    3 1.760    C    4 0.207    C    5 0.207
     3  C   3.976        C    5 2.037    C    2 1.760    C    4 0.164
     4  C   2.681        C    1 2.037    C    5 0.274    C    2 0.207    C    3 0.164
     5  C   2.682        C    3 2.037    C    4 0.274    C    2 0.207    C    1 0.163

MOs/occ written to file <molden.input>


molecular dipole:
                 x           y           z       tot (Debye)
 q only:       -0.000       0.000      -0.001
   full:       -0.001       0.000      -0.003       0.008
molecular quadrupole (traceless):
                xx          xy          yy          xz          yz          zz
 q only:       -3.958       1.381       1.830       0.304      -0.069       2.128
  q+dip:       -6.958       2.428       3.218       0.538      -0.122       3.740
   full:      -12.326       4.301       5.700       0.951      -0.215       6.626

           -------------------------------------------------
          |                Geometry Summary                 |
           -------------------------------------------------
Molecule has the following symmetry elements: (i) (Cinf) (C2) 2*(sigma) 
It seems to be the Dinfh point group

      molecular mass/u    :       60.0536795
   center of mass at/Å    :        0.0000002      -0.0000002      -0.0000000
  moments of inertia/u·Å² :        0.1532911E-03   0.1972897E+03   0.1972899E+03
rotational constants/cm⁻¹ :        0.1099714E+06   0.8544607E-01   0.8544600E-01

 * 2 selected distances

     #   Z        #   Z                                     value/Å
     1   6 C      2   6 C                                 1.2856061 (min)
     2   6 C      3   6 C                                 1.2858789 (max)

 * 1 distinct bonds (by element types)

   Z      Z             #   av. dist./Å        max./Å        min./Å
   6 C    6 C           2     1.2857425     1.2858789     1.2856061

           -------------------------------------------------
          |               Frequency Printout                |
           -------------------------------------------------
 vibrational frequencies (cm-1)
eigval :        0.00     0.00     0.00     0.00     0.00   101.07
eigval :      101.26   211.74   211.76   492.10   492.10   821.77
eigval :     1551.64  1994.53  2155.58
 reduced masses (amu)
   1: 12.01   2: 12.01   3: 12.01   4: 12.01   5: 12.01   6: 12.01   7: 12.01   8: 12.01
   9: 12.01  10: 12.01  11: 12.01  12: 12.01  13: 12.01  14: 12.01  15: 12.01
 IR intensities (amu)
   1:  0.05   2:  0.00   3:  0.00   4:  0.00   5:  0.00   6:  0.51   7:  0.51   8:  0.01
   9:  0.00  10:  0.19  11:  0.19  12:  0.00  13:  0.11  14:  0.00  15:  2.77
 Raman intensities (amu)
   1:  0.00   2:  0.00   3:  0.00   4:  0.00   5:  0.00   6:  0.00   7:  0.00   8:  0.00
   9:  0.00  10:  0.00  11:  0.00  12:  0.00  13:  0.00  14:  0.00  15:  0.00
 output can be read by thermo (or use thermo option).
 writing <g98.out> molden fake output.
 recommended (thermochemical) frequency scaling factor: 1.0
           -------------------------------------------------
          |             Thermodynamic Functions             |
           -------------------------------------------------

din symmetry found (for desy threshold:  0.10E+00) used in thermo

          ...................................................
          :                      SETUP                      :
          :.................................................:
          :  # frequencies                          10      :
          :  # imaginary freq.                       0      :
          :  linear?                              true      :
          :  only rotor calc.                    false      :
          :  symmetry                              din      :
          :  rotational number                       2      :
          :  scaling factor                  1.0000000      :
          :  rotor cutoff                   50.0000000 cm⁻¹ :
          :  imag. cutoff                  -20.0000000 cm⁻¹ :
          :.................................................:

    mode    ω/cm⁻¹     T·S(HO)/kcal·mol⁻¹    T·S(FR)/kcal·mol⁻¹   T·S(vib)
   ------------------------------------------------------------------------
       1    101.07    -0.00000 ( 94.35%)     0.00530 (  5.65%)     0.00030
       2    101.26    -0.00000 ( 94.39%)     0.00532 (  5.61%)     0.00030
       3    211.74    -0.00000 ( 99.69%)     0.01264 (  0.31%)     0.00004
       4    211.76    -0.00000 ( 99.69%)     0.01264 (  0.31%)     0.00004
   ------------------------------------------------------------------------

   temp. (K)  partition function   enthalpy   heat capacity  entropy
                                   cal/mol     cal/K/mol   cal/K/mol   J/K/mol
 298.15  VIB   20.3                 1937.234     10.774     12.413
         ROT  0.121E+04              592.502      1.987     16.098
         INT  0.246E+05             2529.736     12.762     28.511
         TR   0.450E+27             1481.254      4.968     38.181
         TOT                        4010.9895    17.7298    66.6917   279.0383

   temp. (K)  partition function   enthalpy   heat capacity  entropy
                                   cal/mol     cal/K/mol   cal/K/mol   J/K/mol
 120.00  VIB   2.40                  356.430      6.297      4.739
         ROT   488.                  238.471      1.987     14.289
         INT  0.117E+04              594.901      8.284     19.028
         TR   0.115E+27              596.178      4.968     33.661
         TOT                        1191.0793    13.2521    52.6894   220.4524

   temp. (K)  partition function   enthalpy   heat capacity  entropy
                                   cal/mol     cal/K/mol   cal/K/mol   J/K/mol
 100.00  VIB   1.88                  238.804      5.444      3.684
         ROT   407.                  198.726      1.987     13.927
         INT   764.                  437.530      7.431     17.611
         TR   0.875E+26              496.815      4.968     32.756
         TOT                         934.3452    12.3990    50.3667   210.7343

   temp. (K)  partition function   enthalpy   heat capacity  entropy
                                   cal/mol     cal/K/mol   cal/K/mol   J/K/mol
  80.00  VIB   1.49                  139.810      4.421      2.598
         ROT   325.                  158.981      1.987     13.483
         INT   485.                  298.791      6.408     16.082
         TR   0.626E+26              397.452      4.968     31.648
         TOT                         696.2428    11.3760    47.7299   199.7018

   temp. (K)  partition function   enthalpy   heat capacity  entropy
                                   cal/mol     cal/K/mol   cal/K/mol   J/K/mol
  60.00  VIB   1.22                   63.714      3.139      1.525
         ROT   244.                  119.236      1.987     12.912
         INT   297.                  182.950      5.126     14.436
         TR   0.406E+26              298.089      4.968     30.219
         TOT                         481.0387    10.0945    44.6557   186.8396

   temp. (K)  partition function   enthalpy   heat capacity  entropy
                                   cal/mol     cal/K/mol   cal/K/mol   J/K/mol
  40.00  VIB   1.06                   16.211      1.572      0.581
         ROT   163.                   79.490      1.987     12.106
         INT   172.                   95.701      3.560     12.687
         TR   0.221E+26              198.726      4.968     28.206
         TOT                         294.4273     8.5279    40.8929   171.0958

   temp. (K)  partition function   enthalpy   heat capacity  entropy
                                   cal/mol     cal/K/mol   cal/K/mol   J/K/mol
  20.00  VIB   1.00                    0.400      0.146      0.035
         ROT   81.3                   39.745      1.987     10.729
         INT   81.5                   40.145      2.133     10.764
         TR   0.782E+25               99.363      4.968     24.764
         TOT                         139.5084     7.1012    35.5278   148.6485

   temp. (K)  partition function   enthalpy   heat capacity  entropy
                                   cal/mol     cal/K/mol   cal/K/mol   J/K/mol
  10.00  VIB   1.00                    0.000      0.000     -0.068
         ROT   40.7                   19.873      1.987      9.351
         INT   40.7                   19.873      1.988      9.283
         TR   0.277E+25               49.681      4.968     21.322
         TOT                          69.5544     6.9558    30.6050   128.0512

       T/K    H(0)-H(T)+PV         H(T)/Eh          T*S/Eh         G(T)/Eh
   ------------------------------------------------------------------------
    298.15    0.639192E-02    0.249215E-01    0.316874E-01   -0.676585E-02
    120.00    0.189811E-02    0.204277E-01    0.100759E-01    0.103518E-01
    100.00    0.148897E-02    0.200186E-01    0.802645E-02    0.119922E-01
     80.00    0.110953E-02    0.196392E-01    0.608499E-02    0.135542E-01
     60.00    0.766584E-03    0.192962E-01    0.426981E-02    0.150264E-01
     40.00    0.469200E-03    0.189988E-01    0.260668E-02    0.163921E-01
     20.00    0.222321E-03    0.187519E-01    0.113234E-02    0.176196E-01
     10.00    0.110842E-03    0.186405E-01    0.487721E-03    0.181527E-01 (used)
   ------------------------------------------------------------------------

         :::::::::::::::::::::::::::::::::::::::::::::::::::::
         ::                  THERMODYNAMIC                  ::
         :::::::::::::::::::::::::::::::::::::::::::::::::::::
         :: total free energy         -10.310581819332 Eh   ::
         ::.................................................::
         :: total energy              -10.328734567951 Eh   ::
         :: zero point energy           0.018529627780 Eh   ::
         :: G(RRHO) w/o ZPVE           -0.000376879161 Eh   ::
         :: G(RRHO) contrib.            0.018152748619 Eh   ::
         :::::::::::::::::::::::::::::::::::::::::::::::::::::

optimized geometry written to: xtbopt.xyz


           -------------------------------------------------
          | TOTAL ENERGY              -10.328734567951 Eh   |
          | TOTAL ENTHALPY            -10.310094098218 Eh   |
          | TOTAL FREE ENERGY         -10.310581819332 Eh   |
          | GRADIENT NORM               0.000591669384 Eh/α |
          | HOMO-LUMO GAP               1.577723648258 eV   |
           -------------------------------------------------

------------------------------------------------------------------------
 * finished run on 2020/05/12 at 11:44:35.360     
------------------------------------------------------------------------
 total:
 * wall-time:     0 d,  0 h,  0 min,  0.273 sec
 *  cpu-time:     0 d,  0 h,  0 min,  0.272 sec
 * ratio c/w:     0.998 speedup
 SCF:
 * wall-time:     0 d,  0 h,  0 min,  0.005 sec
 *  cpu-time:     0 d,  0 h,  0 min,  0.005 sec
 * ratio c/w:     1.000 speedup
 ANC optimizer:
 * wall-time:     0 d,  0 h,  0 min,  0.149 sec
 *  cpu-time:     0 d,  0 h,  0 min,  0.149 sec
 * ratio c/w:     0.999 speedup
 numerical hessian:
 * wall-time:     0 d,  0 h,  0 min,  0.103 sec
 *  cpu-time:     0 d,  0 h,  0 min,  0.102 sec
 * ratio c/w:     0.997 speedup

