[Molden Format]
[Title]
[Atoms] AU
C      1     6 -0.23667590777623E+01  0.53679855784490E+00  0.11395036599014E+00
C      2     6 -0.25609770102923E-03  0.10000071377747E-04 -0.31653271917083E-02
C      3     6  0.23671020727616E+01 -0.53592781768616E+00 -0.11755730313028E+00
C      4     6 -0.47150321682999E+01  0.10672514254401E+01  0.23752186905224E+00
C      5     6  0.47149471607176E+01 -0.10681340554061E+01 -0.23074960472349E+00
[GTO]
           1 0
 s           4   1.0000000000000000     
   51.049363095579913      -0.16312063210127389     
   8.7911227406887544      -0.19911024581000730     
  0.70640422258929825       0.31882047753655751     
  0.26922813413411617       0.12706504184240380     
 p           4   1.0000000000000000     
   5.8263656140800002       0.73716451545209605     
   1.5106896018720002       0.68216371614850257     
  0.53256483288000001       0.35783053929253711     
  0.21202323690600003        5.3983030275847881E-002

           2 0
 s           4   1.0000000000000000     
   51.049363095579913      -0.16312063210127389     
   8.7911227406887544      -0.19911024581000730     
  0.70640422258929825       0.31882047753655751     
  0.26922813413411617       0.12706504184240380     
 p           4   1.0000000000000000     
   5.8263656140800002       0.73716451545209605     
   1.5106896018720002       0.68216371614850257     
  0.53256483288000001       0.35783053929253711     
  0.21202323690600003        5.3983030275847881E-002

           3 0
 s           4   1.0000000000000000     
   51.049363095579913      -0.16312063210127389     
   8.7911227406887544      -0.19911024581000730     
  0.70640422258929825       0.31882047753655751     
  0.26922813413411617       0.12706504184240380     
 p           4   1.0000000000000000     
   5.8263656140800002       0.73716451545209605     
   1.5106896018720002       0.68216371614850257     
  0.53256483288000001       0.35783053929253711     
  0.21202323690600003        5.3983030275847881E-002

           4 0
 s           4   1.0000000000000000     
   51.049363095579913      -0.16312063210127389     
   8.7911227406887544      -0.19911024581000730     
  0.70640422258929825       0.31882047753655751     
  0.26922813413411617       0.12706504184240380     
 p           4   1.0000000000000000     
   5.8263656140800002       0.73716451545209605     
   1.5106896018720002       0.68216371614850257     
  0.53256483288000001       0.35783053929253711     
  0.21202323690600003        5.3983030275847881E-002

           5 0
 s           4   1.0000000000000000     
   51.049363095579913      -0.16312063210127389     
   8.7911227406887544      -0.19911024581000730     
  0.70640422258929825       0.31882047753655751     
  0.26922813413411617       0.12706504184240380     
 p           4   1.0000000000000000     
   5.8263656140800002       0.73716451545209605     
   1.5106896018720002       0.68216371614850257     
  0.53256483288000001       0.35783053929253711     
  0.21202323690600003        5.3983030275847881E-002

[MO]
Sym=     1a
Ene=  -0.69286953838700271     
Spin= Alpha
Occup=     2.00000000
           1 -0.34303978499407412     
           2 -0.11323722794889425     
           3   2.5728790171386687E-002
           4   5.3856157303237657E-003
           5 -0.54628528099612883     
           6   3.7158700581308926E-004
           7  -1.4197411329378172E-004
           8  -2.3496637153696824E-004
           9 -0.34196168639758140     
          10  0.11328088914992053     
          11  -2.5640502803971718E-002
          12  -5.5112857990411747E-003
          13 -0.12900371935319052     
          14  -7.1322524025969752E-002
          15   1.6132859014996663E-002
          16   3.6690584352739300E-003
          17 -0.12828124283369630     
          18   7.1047358642992359E-002
          19  -1.6099954758401567E-002
          20  -3.4307417556703351E-003
Sym=     2a
Ene=  -0.68018751793518517     
Spin= Alpha
Occup=     2.00000000
           1 -0.37563581465518769     
           2   7.0428623032665116E-002
           3  -1.5844613451073176E-002
           4  -3.8738358215232188E-003
           5   8.2152129167851031E-004
           6  0.24518894501870014     
           7  -5.5539965344796632E-002
           8  -1.2091491598985636E-002
           9  0.37643732705767968     
          10   6.9898577716481336E-002
          11  -1.5863724275950192E-002
          12  -3.4151772591313866E-003
          13 -0.32252123823317430     
          14 -0.11398414297951652     
          15   2.5763222607628339E-002
          16   5.9535004056369811E-003
          17  0.32248449266159629     
          18 -0.11410919305432475     
          19   2.5862619888786836E-002
          20   5.4905461561683281E-003
Sym=     3a
Ene=  -0.65901642183477360     
Spin= Alpha
Occup=     2.00000000
           1  0.15364698584998723     
           2 -0.26455827535871212     
           3   5.9837416417365417E-002
           4   1.3642880929084514E-002
           5 -0.26294837613753486     
           6   2.0887694759457777E-004
           7  -1.0738322602428185E-004
           8   1.4722297506613910E-004
           9  0.15411448906076694     
          10  0.26440351356999547     
          11  -5.9920121419509698E-002
          12  -1.2737077716201950E-002
          13  0.41475800947683095     
          14   9.3342010353577226E-002
          15  -2.1075940254927723E-002
          16  -4.9495199385377296E-003
          17  0.41467752816806958     
          18  -9.3424994043356469E-002
          19   2.1179545993842495E-002
          20   4.4996348858957836E-003
Sym=     4a
Ene=  -0.61366253268972881     
Spin= Alpha
Occup=     2.00000000
           1 -0.16180011476168679     
           2 -0.29909472353766670     
           3   6.7703820937161124E-002
           4   1.5448694510748873E-002
           5   2.6789531764580108E-004
           6  0.41121889763645281     
           7  -9.3227477496465969E-002
           8  -1.9911707087197979E-002
           9  0.16178587539722109     
          10 -0.29945795081447973     
          11   6.7801947660875647E-002
          12   1.4435204710226414E-002
          13  0.34663750045143754     
          14  -1.4503433298567049E-003
          15   3.6602211056109183E-004
          16  -1.2332828300209268E-005
          17 -0.34675646889243661     
          18  -1.4080640508646954E-003
          19   2.9830695816436830E-004
          20   7.4555802568861216E-005
Sym=     5a
Ene=  -0.53885852402828993     
Spin= Alpha
Occup=     2.00000000
           1   1.1419817763581026E-004
           2   8.9358014369059713E-002
           3  0.38138702487917969     
           4   5.9435969001998899E-002
           5  -2.0169377818380420E-004
           6  0.12864582413528916     
           7  0.54919541086304258     
           8   8.5587869698381280E-002
           9   8.6366161603211898E-005
          10   8.9186851359747549E-002
          11  0.38108114831328754     
          12   5.9389549179589600E-002
          13  -4.3558203361131685E-005
          14   4.1839822754709648E-002
          15  0.17856076460888193     
          16   2.7827124990901897E-002
          17  -6.2915092172037597E-005
          18   4.1742412614336144E-002
          19  0.17839820138291965     
          20   2.7802570291496461E-002
Sym=     6a
Ene=  -0.53885841304723403     
Spin= Alpha
Occup=     2.00000000
           1   6.8766479778080934E-004
           2  -6.0138579311649369E-003
           3   6.2375954135163045E-002
           4 -0.39121103301318061     
           5   2.4531537469925824E-004
           6  -7.1190438347668089E-003
           7   8.9471213730927687E-002
           8 -0.56341333482201883     
           9   1.7491600294996721E-004
          10  -4.9034550759601081E-003
          11   6.2072275941071453E-002
          12 -0.39093177456156053     
          13   2.9281085934129144E-004
          14  -2.9116732881290623E-003
          15   2.9225587757738834E-002
          16 -0.18315643304029225     
          17  -6.6521279492031483E-005
          18  -2.3005166688909512E-003
          19   2.9059177725518286E-002
          20 -0.18300754130756977     
Sym=     7a
Ene=  -0.47090217868630724     
Spin= Alpha
Occup=     2.00000000
           1  -2.0846123403180489E-003
           2  -5.8863804557602092E-003
           3 -0.13162964015655423     
           4  0.44635089016538654     
           5   1.1658907396039904E-003
           6  -3.2711997679758304E-004
           7   1.0652350867814946E-004
           8  -9.2022652162042977E-005
           9  -1.2153960239161832E-003
          10   7.8330479925420946E-003
          11  0.13127853927739155     
          12 -0.44674619252416231     
          13   3.4964119188993763E-003
          14  -9.1787428093451397E-003
          15 -0.12224301215978019     
          16  0.41752922190059844     
          17   2.4038584092201248E-003
          18   9.8809618460663773E-003
          19  0.12210766707492099     
          20 -0.41763589321672451     
Sym=     8a
Ene=  -0.47090190029093021     
Spin= Alpha
Occup=     2.00000000
           1   4.8338686151007577E-006
           2 -0.10497635014053226     
           3 -0.43451217726184360     
           4 -0.12952229869418230     
           5  -9.0234745480991327E-005
           6  -3.7214784434511962E-005
           7   1.1545923551523821E-004
           8   3.3368407410962534E-005
           9   2.5067678776830948E-004
          10  0.10486784898572182     
          11  0.43484423509135395     
          12  0.12961793347047329     
          13  -2.9106644834898943E-005
          14  -9.8129813137178459E-002
          15 -0.40627375567114393     
          16 -0.12110440796454919     
          17  -4.2729976696503767E-004
          18   9.7547057320031105E-002
          19  0.40649486702664273     
          20  0.12115867064856040     
Sym=     9a
Ene=  -0.46367056381983773     
Spin= Alpha
Occup=     2.00000000
           1 -0.19535477470755203     
           2  0.11595804553722790     
           3  -2.5593420213943563E-002
           4  -8.6375821007065728E-003
           5  0.19204487171303800     
           6  -5.0003051168861373E-004
           7   3.1577142293807471E-004
           8  -5.6741453287576047E-004
           9 -0.19480320123773620     
          10 -0.11473290987205176     
          11   2.5414849571768216E-002
          12   8.5744096664027904E-003
          13  0.46049390894662839     
          14 -0.45244990282847325     
          15  0.10282951482054134     
          16   2.1147946224943582E-002
          17  0.45828301770779400     
          18  0.44991404869546603     
          19 -0.10259429451758423     
          20  -1.8583327074045027E-002
Sym=    10a
Ene=  -0.44712283711528567     
Spin= Alpha
Occup=     2.00000000
           1  0.10328375441613837     
           2 -0.19676225811303000     
           3   4.4194054724004131E-002
           4   1.0492643829759951E-002
           5   5.8872345612886610E-004
           6  0.19807201641415795     
           7  -4.4998445468987319E-002
           8  -9.1511090850157663E-003
           9 -0.10433414850451611     
          10 -0.19724372769449858     
          11   4.5079153876342364E-002
          12   8.8313408082945511E-003
          13 -0.41093197504903389     
          14  0.47773271779747289     
          15 -0.10824259559726583     
          16  -2.4934510569809248E-002
          17  0.41347313303371425     
          18  0.48034866393588577     
          19 -0.10841070909486730     
          20  -2.4050476257869751E-002
Sym=    11a
Ene=  -0.38914255991297098     
Spin= Alpha
Occup=     0.00000000
           1   3.4502507749250979E-005
           2  -1.8829522163127367E-002
           3  -7.8532666107916635E-002
           4  -2.2192177134216371E-002
           5  -2.3180086922950142E-004
           6  0.12809588885738940     
           7  0.53287525402208524     
           8  0.15058574598315336     
           9   3.2379394722114948E-005
          10  -1.8995451080455833E-002
          11  -7.8846076924487141E-002
          12  -2.2281776580505161E-002
          13   4.3187582219351911E-005
          14 -0.13164081136312261     
          15 -0.54628529413570426     
          16 -0.15437913971543127     
          17   2.0770048312006769E-005
          18 -0.13112058360284809     
          19 -0.54586478682302242     
          20 -0.15425499784774668     
Sym=    12a
Ene=  -0.38914241078680845     
Spin= Alpha
Occup=     0.00000000
           1   7.1532870005536123E-006
           2   1.2718516648030946E-003
           3   2.2489956541847839E-002
           4  -8.0666684850393758E-002
           5   8.3968227030194415E-005
           6  -8.1793206219404491E-003
           7 -0.15272451508020843     
           8  0.54740186809194824     
           9  -2.5856131489147655E-005
          10   1.2427502960121383E-003
          11   2.2592682423276101E-002
          12  -8.1005415568306760E-002
          13   3.2919939194946628E-004
          14   5.0262663106073226E-003
          15  0.15734817013476848     
          16 -0.56107663224182014     
          17  -2.1095823974855398E-005
          18   8.4129056835795645E-003
          19  0.15643349450010671     
          20 -0.56072544418942749     
Sym=    13a
Ene=  -0.24419360066200327     
Spin= Alpha
Occup=     0.00000000
           1  -1.2010792432030717E-003
           2  -1.7920692431987604E-002
           3 -0.19834128579106708     
           4  0.53061835796333701     
           5   6.3080457176549682E-004
           6  -3.9269024483680199E-004
           7   2.8671855588140833E-004
           8  -4.9871611826363322E-004
           9  -3.3974449026312708E-004
          10   1.9559891775124277E-002
          11  0.19782630166454104     
          12 -0.53032003770006331     
          13  -1.3155212264528995E-004
          14   1.8045850728084938E-002
          15  0.20448416581587670     
          16 -0.54677569617824762     
          17   1.7873784897287800E-006
          18  -2.0158318582557476E-002
          19 -0.20409422719230991     
          20  0.54710911839839271     
Sym=    14a
Ene=  -0.24419329291200434     
Spin= Alpha
Occup=     0.00000000
           1  -4.4422101486812568E-005
           2  0.12689242271440251     
           3  0.51598578390422312     
           4  0.19715808693422449     
           5   9.6243269987979341E-005
           6  -1.0783612156819640E-004
           7  -5.0537085254100111E-004
           8  -1.9267647010654505E-004
           9  -1.9009391053885957E-004
          10 -0.12624624470126528     
          11 -0.51574816399403511     
          12 -0.19704591661855403     
          13  -5.8073214941360069E-006
          14 -0.13077201963475138     
          15 -0.53171551965906916     
          16 -0.20316882011257240     
          17  -1.3951860845191803E-005
          18  0.13029961973910340     
          19  0.53206285613975202     
          20  0.20328131035503405     
Sym=    15a
Ene=  -0.11681108805384889     
Spin= Alpha
Occup=     0.00000000
           1   2.8243854648361383E-003
           2  -1.0444926580381445E-002
           3   9.6710300450733422E-002
           4 -0.64454601270512035     
           5  -2.2170060513904632E-003
           6   1.0641642304807689E-002
           7 -0.10246747688272458     
           8  0.68358148214353132     
           9   1.3847443998314514E-003
          10  -9.9878992612858347E-003
          11   9.6652116900076468E-002
          12 -0.64486874006496964     
          13  -4.0509119393796828E-004
          14   5.5221497615358531E-003
          15  -5.8842568703459081E-002
          16  0.39349941124331600     
          17  -1.8698928276243958E-004
          18   6.4702086022553435E-003
          19  -5.9131802405591426E-002
          20  0.39395632287759347     
Sym=    16a
Ene=  -0.11680918771264022     
Spin= Alpha
Occup=     0.00000000
           1  -8.8463329104751558E-005
           2 -0.14684253896699437     
           3 -0.62841529753757297     
           4  -9.1911630127760324E-002
           5  -2.3785299762364085E-004
           6  0.15575927957150859     
           7  0.66643887840637728     
           8   9.7471966216311018E-002
           9   2.6888584199263036E-006
          10 -0.14694201010849930     
          11 -0.62868690510550362     
          12  -9.1950320372874497E-002
          13   1.2047901409726591E-005
          14   8.9668149725466509E-002
          15  0.38359930640954465     
          16   5.6104427607220335E-002
          17  -1.7259632682628585E-006
          18   8.9772092909101556E-002
          19  0.38408597445529813     
          20   5.6175529900457905E-002
Sym=    17a
Ene=    8.9273328006869962E-002
Spin= Alpha
Occup=     0.00000000
           1 -0.75548512511082899     
           2 -0.21639318945302360     
           3   4.9615714291416646E-002
           4   7.6330117840375227E-003
           5  0.89696576814552764     
           6   3.9094889617195664E-004
           7  -6.9646950548782227E-005
           8   2.4423223662999216E-003
           9 -0.75544283342030172     
          10  0.21706461817909362     
          11  -4.8984057203362005E-002
          12  -1.1804366174711528E-002
          13  0.19375829438611608     
          14  0.41133746937673871     
          15  -9.3231615167100379E-002
          16  -2.0053125242386415E-002
          17  0.19341773509775900     
          18 -0.41100720290893344     
          19   9.3071719368182981E-002
          20   2.0377535116456572E-002
Sym=    18a
Ene=   0.45839652006317383     
Spin= Alpha
Occup=     0.00000000
           1  0.87440931682287792     
           2 -0.22441808612195860     
           3   5.0213441460036763E-002
           4   1.3181765932403472E-002
           5   8.3341302146126720E-004
           6  0.64300481284195499     
           7 -0.14556004062722103     
           8  -3.2144202211620704E-002
           9 -0.87417986836080841     
          10 -0.22251336759963988     
          11   5.0556299524403207E-002
          12   1.1057894360937221E-002
          13 -0.44002365730454618     
          14 -0.59319749697947288     
          15  0.13414168524260467     
          16   3.0810035211073731E-002
          17  0.43913823488985920     
          18 -0.59226679019738981     
          19  0.13421893995123210     
          20   2.8449678716591747E-002
Sym=    19a
Ene=   0.94792347610080663     
Spin= Alpha
Occup=     0.00000000
           1  0.26010744987214984     
           2 -0.94588132463108554     
           3  0.21392433044018447     
           4   4.8580994838144077E-002
           5  0.82996690034816700     
           6  -7.5522326829413839E-004
           7   5.5690503111284885E-004
           8   2.2073362748589569E-005
           9  0.26238475778363352     
          10  0.94620001842715018     
          11 -0.21447435495107148     
          12  -4.5641950901950876E-002
          13 -0.58396738847467489     
          14 -0.60341955398789238     
          15  0.13623739585510480     
          16   3.2072103071204915E-002
          17 -0.58508780505670133     
          18  0.60467964264207885     
          19 -0.13707067388765978     
          20  -2.9145572206348166E-002
Sym=    20a
Ene=    1.4161321077105560     
Spin= Alpha
Occup=     0.00000000
           1  0.32222968794179135     
           2   1.0564704277832282     
           3 -0.23935417494069389     
           4  -5.3653323366070906E-002
           5  -5.6479191819957218E-004
           6   1.3004338160142703     
           7 -0.29474613267637501     
           8  -6.3323127581821972E-002
           9 -0.32110254166385860     
          10   1.0566638312765331     
          11 -0.23923665962551419     
          12  -5.0909969415308773E-002
          13  0.45554938055383798     
          14  0.40704042613184932     
          15  -9.1789876355357139E-002
          16  -2.1841996489617856E-002
          17 -0.45606291425284484     
          18  0.40749971176343025     
          19  -9.2436094901613100E-002
          20  -1.9655385104820025E-002
