 Entering Gaussian System
 *********************************************
 Gaussian 98:
 frequency output generated by the xtb code
 *********************************************
                         Standard orientation:
 --------------------------------------------------------------------
  Center     Atomic     Atomic              Coordinates (Angstroms)
  Number     Number      Type              X           Y           Z
 --------------------------------------------------------------------
    1          7             0        0.067294   -0.025506    0.120882
    2          6             0       -1.037580   -0.426633    0.084533
    3          7             0        1.277997    0.044428    0.146329
    4          1             0       -1.986734   -0.215062   -0.320154
    5          1             0        1.679026    0.622775    0.873618
 --------------------------------------------------------------------
     1 basis functions        1 primitive gaussians
     1 alpha electrons        1 beta electrons

 Harmonic frequencies (cm**-1), IR intensities (KM/Mole),
 Raman scattering activities (A**4/amu), Raman depolarization ratios,
 reduced masses (AMU), force constants (mDyne/A) and normal coordinates:
                      1                      2                      3
                        a                      a                      a 
 Frequencies --   410.5103               473.1868               600.1428
 Red. masses --    10.7971                12.2833                 2.4348
 Frc consts  --     0.0000                 0.0000                 0.0000
 IR Inten    --     0.1723                 0.4397                 0.5734
 Raman Activ --     0.0000                 0.0000                 0.0000
 Depolar     --     0.0000                 0.0000                 0.0000
 Atom AN      X      Y      Z        X      Y      Z        X      Y      Z
   1   7    -0.13   0.45   0.56     0.10  -0.63   0.45     0.02  -0.01  -0.05
   2   6     0.12  -0.16  -0.30    -0.16   0.34  -0.19     0.01   0.30  -0.16
   3   7    -0.05  -0.28  -0.16     0.06   0.26  -0.18     0.06  -0.04   0.07
   4   1     0.02  -0.19  -0.12    -0.01  -0.01  -0.18    -0.35  -0.74   0.44
   5   1     0.21   0.13  -0.34    -0.01   0.22  -0.16    -0.00  -0.09   0.08
                      4                      5                      6
                        a                      a                      a 
 Frequencies --   670.0567              1131.7206              1373.7987
 Red. masses --     2.3199                 3.4842                12.5566
 Frc consts  --     0.0000                 0.0000                 0.0000
 IR Inten    --     0.2367                 0.7267                 1.0440
 Raman Activ --     0.0000                 0.0000                 0.0000
 Depolar     --     0.0000                 0.0000                 0.0000
 Atom AN      X      Y      Z        X      Y      Z        X      Y      Z
   1   7     0.01  -0.06  -0.01    -0.02   0.14   0.17     0.19  -0.11   0.01
   2   6     0.05  -0.11  -0.26     0.04   0.02   0.03     0.57   0.20   0.01
   3   7     0.03  -0.07   0.14     0.19  -0.18  -0.26    -0.72  -0.07  -0.03
   4   1    -0.19   0.43   0.65     0.03  -0.05  -0.08     0.17  -0.01   0.05
   5   1    -0.15   0.42  -0.22    -0.82   0.15   0.32    -0.15  -0.04  -0.03
                      7                      8                      9
                        a                      a                      a 
 Frequencies --  2344.1729              3324.0511              3363.0390
 Red. masses --    12.8317                 2.2973                 1.8367
 Frc consts  --     0.0000                 0.0000                 0.0000
 IR Inten    --     2.7010                 0.4262                 0.0509
 Raman Activ --     0.0000                 0.0000                 0.0000
 Depolar     --     0.0000                 0.0000                 0.0000
 Atom AN      X      Y      Z        X      Y      Z        X      Y      Z
   1   7     0.77   0.18   0.05    -0.07  -0.03   0.00    -0.01  -0.01  -0.01
   2   6    -0.46  -0.17  -0.01     0.32  -0.02   0.10     0.00   0.01  -0.00
   3   7    -0.27  -0.02  -0.02     0.00  -0.00  -0.00    -0.11  -0.14  -0.17
   4   1    -0.22  -0.01  -0.06    -0.85   0.17  -0.35     0.02  -0.01   0.01
   5   1    -0.06   0.00   0.00     0.01   0.01   0.01     0.42   0.55   0.68
