[Molden Format]
[Title]
[Atoms] AU
C      1     6 -0.80316741129299E+00  0.14503445917786E+00  0.31021922630722E-01
O      2     8  0.16329845070021E+01  0.67774870187262E+00  0.40445977930494E+00
O      3     8 -0.24734495076322E+01  0.15238612654791E+01  0.61203392565203E+00
H      4     1 -0.11282871309644E+01 -0.17185213397510E+01 -0.88139845377141E+00
H      5     1  0.27719214326135E+01 -0.62812308678846E+00 -0.16611717382288E+00
[GTO]
           1 0
 s           4   1.0000000000000000     
   51.049363095579913      -0.16312063210127389     
   8.7911227406887544      -0.19911024581000730     
  0.70640422258929825       0.31882047753655751     
  0.26922813413411617       0.12706504184240380     
 p           4   1.0000000000000000     
   5.8263656140800002       0.73716451545209605     
   1.5106896018720002       0.68216371614850257     
  0.53256483288000001       0.35783053929253711     
  0.21202323690600003        5.3983030275847881E-002

           2 0
 s           4   1.0000000000000000     
   69.137961906196551      -0.20478756370077797     
   11.906129132707308      -0.24997023136827334     
  0.95670827744340703       0.40025880240639616     
  0.36462520496073686       0.15952206667693555     
 p           4   1.0000000000000000     
   8.2124193257781641        1.1321556799186829     
   2.1293576997098116        1.0476840782254817     
  0.75066448202360914       0.54956508217158984     
  0.29885246543283073        8.2908486592766617E-002

           3 0
 s           4   1.0000000000000000     
   69.137961906196551      -0.20478756370077797     
   11.906129132707308      -0.24997023136827334     
  0.95670827744340703       0.40025880240639616     
  0.36462520496073686       0.15952206667693555     
 p           4   1.0000000000000000     
   8.2124193257781641        1.1321556799186829     
   2.1293576997098116        1.0476840782254817     
  0.75066448202360914       0.54956508217158984     
  0.29885246543283073        8.2908486592766617E-002

           4 0
 s           3   1.0000000000000000     
   3.3702276975336001       0.27359110588908298     
  0.61389118221497996       0.26460540653860526     
  0.16614291148415999        8.2465947534082318E-002

           5 0
 s           3   1.0000000000000000     
   3.3702276975336001       0.27359110588908298     
  0.61389118221497996       0.26460540653860526     
  0.16614291148415999        8.2465947534082318E-002

[MO]
Sym=     1a
Ene=  -0.76280527992901570     
Spin= Alpha
Occup=     2.00000000
           1  0.30586597833787543     
           2  0.16470906378729747     
           3   6.6096862169903126E-002
           4   3.9692174198611263E-002
           5  0.68694707581128811     
           6 -0.11422992817432037     
           7  -5.8662088553256983E-002
           8  -3.3633291322493770E-002
           9  0.11335819597219217     
          10   9.7339915894941703E-002
          11  -3.3917721133232277E-002
          12  -1.1567445478660456E-002
          13   3.1427890080250688E-002
          14  0.11609279425981485     
Sym=     2a
Ene=  -0.73809729649425404     
Spin= Alpha
Occup=     2.00000000
           1 -0.29609382838589832     
           2  0.22354619318333860     
           3 -0.14332445521480172     
           4  -5.7971207840809919E-002
           5  0.27021107257341320     
           6  0.14302813136217343     
           7  -7.4661362383561386E-002
           8  -2.8872243668610024E-002
           9 -0.57307344978923580     
          10 -0.13260368071410500     
          11  0.12245710504262129     
          12   5.2346033505866356E-002
          13  -2.4147074769364070E-002
          14  0.10964604529813622     
Sym=     3a
Ene=  -0.66425009033457028     
Spin= Alpha
Occup=     2.00000000
           1 -0.22546877217007127     
           2 -0.25896858197717926     
           3   9.0946428532525988E-003
           4  -8.0267521409790321E-003
           5  0.21965462444194478     
           6  0.55928179045723025     
           7  -8.5577106979301196E-002
           8  -1.3790475097721119E-002
           9  0.41827889204516777     
          10 -0.15736586879789921     
          11   1.0070067763300463E-002
          12  -2.6960863699144158E-003
          13  -6.3955755403979242E-002
          14  0.28303343539241410     
Sym=     4a
Ene=  -0.63885497093190136     
Spin= Alpha
Occup=     2.00000000
           1 -0.28007601676682531     
           2  0.10496040503386890     
           3  0.32591385631969394     
           4  0.16161937161507506     
           5  0.25664318197213271     
           6  -5.3741198008579572E-002
           7  0.40072660412416738     
           8  0.18969707992130053     
           9  0.14653268462513186     
          10   3.8141936962623142E-002
          11  0.22927266472783747     
          12  0.11197087305307628     
          13 -0.29210545945412658     
          14 -0.17346341472796759     
Sym=     5a
Ene=  -0.59443601992264583     
Spin= Alpha
Occup=     2.00000000
           1  -1.4917026249574740E-004
           2   2.3115180869747648E-002
           3  0.23077361860156231     
           4 -0.48092598908489192     
           5   4.0970801791876364E-004
           6   2.5149351968479373E-002
           7  0.24695016033696252     
           8 -0.51363690355720104     
           9   8.8637712093788488E-005
          10   1.8285789728136055E-002
          11  0.18303464299164823     
          12 -0.38139875198497125     
          13   2.6192679162323295E-004
          14  -1.6014154821599551E-004
Sym=     6a
Ene=  -0.57036180080339349     
Spin= Alpha
Occup=     2.00000000
           1   8.7792400804621015E-002
           2 -0.28789605209737418     
           3   2.2321866771345442E-002
           4  -2.9762222777595933E-003
           5  0.23561945429285375     
           6  0.26852997392273015     
           7  0.42835670069370002     
           8  0.21879000601054882     
           9 -0.46680544141545366     
          10  0.26606522800320326     
          11 -0.42930649230477541     
          12 -0.19299188550599364     
          13   4.9024369541307268E-002
          14  -6.6865618817141537E-002
Sym=     7a
Ene=  -0.52939027696785246     
Spin= Alpha
Occup=     2.00000000
           1   1.5928910852963901E-003
           2   2.6837116572092798E-002
           3 -0.30311201250456316     
           4 -0.14381571206932578     
           5  0.27107549413490711     
           6  -7.9789106276023758E-002
           7  0.40834733476288343     
           8  0.19221423274480792     
           9  0.24244323783576038     
          10 -0.58643382472364769     
          11   2.9311055298622997E-002
          12  -1.3679622099816807E-002
          13  0.28133232835896632     
          14 -0.24194838909749919     
Sym=     8a
Ene=  -0.49564096479235747     
Spin= Alpha
Occup=     2.00000000
           1  -2.7238414489578774E-005
           2   7.9329421124145379E-003
           3   7.8405974271123599E-002
           4 -0.16348195673255547     
           5  -2.3164290427771337E-005
           6  -3.2285257525446663E-002
           7 -0.31883594006157046     
           8  0.66524782333587196     
           9   7.0666319986170567E-005
          10   2.8188733242408462E-002
          11  0.28141339224547340     
          12 -0.58604639918900292     
          13   2.0012349208488431E-004
          14   5.0171631694613049E-006
Sym=     9a
Ene=  -0.43892041813853627     
Spin= Alpha
Occup=     2.00000000
           1  -6.7620078514573634E-002
           2   2.0565894060780156E-002
           3  0.14246979003141871     
           4   6.9431310138906299E-002
           5   6.3733634504792233E-002
           6 -0.25828564250221681     
           7 -0.20877939331064782     
           8 -0.11282770008789300     
           9  -2.2275584304355150E-002
          10 -0.49384191264800775     
          11 -0.60273136113280512     
          12 -0.31363108710999493     
          13 -0.42681316162518973     
          14  -1.0471127290943015E-002
Sym=    10a
Ene=  -0.25429002429990016     
Spin= Alpha
Occup=     0.00000000
           1  -4.9438626088422458E-004
           2   3.8237405013160461E-002
           3  0.37932915611007650     
           4 -0.78892851017704713     
           5  -1.1641595216590331E-004
           6  -1.7602397613531884E-002
           7 -0.17231095795859583     
           8  0.35889807847106053     
           9  -5.3171530469736764E-005
          10  -2.9475248706150221E-002
          11 -0.29123706522893444     
          12  0.60596871756811210     
          13   3.3616349353841467E-004
          14   2.2762759650474192E-004
Sym=    11a
Ene=    4.3936563265341975E-002
Spin= Alpha
Occup=     0.00000000
           1   2.6096333132102384E-002
           2 -0.28254625809041606     
           3 -0.38613477244465433     
           4 -0.19951339660124776     
           5  0.72666147117346025     
           6  0.19904869450315213     
           7 -0.51815467941299520     
           8 -0.23849094840416249     
           9   7.3390582340859004E-002
          10  0.22062085112737215     
          11   8.7502448991079423E-002
          12   5.2859988833486124E-002
          13 -0.36681854513044637     
          14  -1.0066686767458355     
Sym=    12a
Ene=   0.10132427596460847     
Spin= Alpha
Occup=     0.00000000
           1  -1.0249329174056547     
           2 -0.24922355484553166     
           3  0.39979959069900117     
           4  0.18077008272023048     
           5  0.35988463606350524     
           6 -0.39987469081210231     
           7 -0.24896005764578644     
           8 -0.13896477527654583     
           9   5.4747088290508006E-002
          10  0.15983505714522847     
          11 -0.16827131313595348     
          12  -7.3356909673540902E-002
          13  0.89434684121484376     
          14 -0.12768224713965068     
Sym=    13a
Ene=   0.29504555870728844     
Spin= Alpha
Occup=     0.00000000
           1 -0.18118576584737595     
           2 -0.80618987368757733     
           3 -0.55108435880931805     
           4 -0.30388148671262533     
           5  0.19162349847598478     
           6 -0.84999064538553093     
           7  0.19712566398963854     
           8   5.3360194365457379E-002
           9  -4.0187726181256787E-002
          10  0.17278595970452937     
          11  0.21170700247076443     
          12  0.11007880193380387     
          13 -0.51849164722461150     
          14  0.60352261661960183     
Sym=    14a
Ene=   0.63767685775979566     
Spin= Alpha
Occup=     0.00000000
           1 -0.62563671731800941     
           2  0.82716745496266642     
           3 -0.72893817226505309     
           4 -0.31000426813224868     
           5 -0.15682237754321493     
           6   1.5043978200653429E-002
           7  0.20841136987003711     
           8  0.10074446262510883     
           9  0.83883283123031382     
          10  0.68385641112013884     
          11 -0.56462252623190601     
          12 -0.23790010989381591     
          13 -0.19444439092438257     
          14   8.2469646047302808E-002
