$hessian                                                                        
        0.7661321904  -0.2422165333  -0.0869630401  -0.2535906443  -0.0503926342
       -0.0344561649  -0.4443954372   0.3199313760   0.1349812475  -0.0418915228
       -0.0270112521  -0.0124049198  -0.0262545861  -0.0003109564  -0.0011571226
       -0.2422165333   0.6139584640   0.2067518586  -0.0759390785  -0.0942154449
       -0.0288258259   0.3242700422  -0.3578020242  -0.1276214558  -0.0297784325
       -0.1678634416  -0.0562675547   0.0236640021   0.0059224467   0.0059629778
       -0.0869630401   0.2067518586   0.2548472386  -0.0467063563  -0.0275886012
       -0.0573657784   0.1371189974  -0.1278865947  -0.1142180172  -0.0137348967
       -0.0560861697  -0.0818878966   0.0102852957   0.0048095070  -0.0013755464
       -0.2535906443  -0.0759390785  -0.0467063563   0.5300355803  -0.1124249257
       -0.0291749269  -0.0824870029   0.0251318970   0.0075510694  -0.0281705998
       -0.0209198287  -0.0122548297  -0.1657873332   0.1841519359   0.0805850435
       -0.0503926342  -0.0942154449  -0.0275886012  -0.1124249257   0.3433332343
        0.1489073571   0.0390398250   0.0115281381   0.0021883200  -0.0330917379
       -0.0125629062  -0.0160017829   0.1568694728  -0.2480830213  -0.1075052930
       -0.0344561649  -0.0288258259  -0.0573657784  -0.0291749269   0.1489073571
        0.0914639219   0.0142237052   0.0015390409   0.0122946085  -0.0181153968
       -0.0154446790   0.0091891846   0.0675227835  -0.1061758930  -0.0555819365
       -0.4443954372   0.3242700422   0.1371189974  -0.0824870029   0.0390398250
        0.0142237052   0.5414897077  -0.3808538052  -0.1578434198  -0.0038258546
        0.0194393262   0.0082329728  -0.0107814129  -0.0018953882  -0.0017322555
        0.3199313760  -0.3578020242  -0.1278865947   0.0251318970   0.0115281381
        0.0015390409  -0.3808538052   0.3796972974   0.1522922584   0.0374885260
       -0.0372586503  -0.0250269525  -0.0016979938   0.0038352391  -0.0009177521
        0.1349812475  -0.1276214558  -0.1142180172   0.0075510694   0.0021883200
        0.0122946085  -0.1578434198   0.1522922584   0.0897417311   0.0169290195
       -0.0259345766   0.0070828522  -0.0016179166  -0.0009245460   0.0050988253
       -0.0418915228  -0.0297784325  -0.0137348967  -0.0281705998  -0.0330917379
       -0.0181153968  -0.0038258546   0.0374885260   0.0169290195   0.0749662343
        0.0273474832   0.0158626830  -0.0010782570  -0.0019658388  -0.0009414090
       -0.0270112521  -0.1678634416  -0.0560861697  -0.0209198287  -0.0125629062
       -0.0154446790   0.0194393262  -0.0372586503  -0.0259345766   0.0273474832
        0.2169267599   0.0963629967   0.0011442715   0.0007582383   0.0011024286
       -0.0124049198  -0.0562675547  -0.0818878966  -0.0122548297  -0.0160017829
        0.0091891846   0.0082329728  -0.0250269525   0.0070828522   0.0158626830
        0.0963629967   0.0665390103   0.0005640937   0.0009332934  -0.0009231506
       -0.0262545861   0.0236640021   0.0102852957  -0.1657873332   0.1568694728
        0.0675227835  -0.0107814129  -0.0016979938  -0.0016179166  -0.0010782570
        0.0011442715   0.0005640937   0.2039015892  -0.1799797526  -0.0767542564
       -0.0003109564   0.0059224467   0.0048095070   0.1841519359  -0.2480830213
       -0.1061758930  -0.0018953882   0.0038352391  -0.0009245460  -0.0019658388
        0.0007582383   0.0009332934  -0.1799797526   0.2375670972   0.1013576386
       -0.0011571226   0.0059629778  -0.0013755464   0.0805850435  -0.1075052930
       -0.0555819365  -0.0017322555  -0.0009177521   0.0050988253  -0.0009414090
        0.0011024286  -0.0009231506  -0.0767542564   0.1013576386   0.0527818082
