5
 energy: -11.183874789791 gnorm: 0.262023749487 xtb: 6.2.2 (9d81278992624c895f80dd42a50cac0aa55982e2)
C        -0.34933900000000    0.05662100000000   -0.27406700000000
O         0.83341600000000    0.07652000000000    0.46434800000000
O        -1.28855900000000    0.89030000000000    0.33078000000000
H        -0.74681700000000   -0.97923300000000   -0.31339500000000
H         1.55130000000000   -0.04420800000000   -0.20766600000000
5
 energy: -11.244114670565 gnorm: 0.165381662560 xtb: 6.2.2 (9d81278992624c895f80dd42a50cac0aa55982e2)
C        -0.39062242059353    0.03562815355059   -0.09809901146043
O         0.87036244538077    0.12671801957660    0.45363946204763
O        -1.27054194392894    0.88635894148809    0.26787802827028
H        -0.75101154899014   -0.98184447607613   -0.39426376750680
H         1.54181446813185   -0.06686063853914   -0.22915471135068
5
 energy: -11.239965228915 gnorm: 0.387375365444 xtb: 6.2.2 (9d81278992624c895f80dd42a50cac0aa55982e2)
C        -0.45198328399742    0.07673648118719    0.00856495135849
O         0.83974741342138    0.18959156047275    0.40262753624079
O        -1.20606759363411    0.80937570512043    0.22788150113113
H        -0.69521597515728   -0.93956854180624   -0.42247903379404
H         1.51352043936742   -0.13613520497413   -0.21659495493638
5
 energy: -11.265074716051 gnorm: 0.049944843594 xtb: 6.2.2 (9d81278992624c895f80dd42a50cac0aa55982e2)
C        -0.42806141793693    0.04625193287893    0.02637812062603
O         0.86501324820989    0.18692607751940    0.41677256034900
O        -1.27555019419919    0.87807578869995    0.24140342740781
H        -0.67071419596521   -0.96257233623225   -0.44762946636981
H         1.50931355989144   -0.14868146286602   -0.23692464201302
5
 energy: -11.267334294430 gnorm: 0.036814165084 xtb: 6.2.2 (9d81278992624c895f80dd42a50cac0aa55982e2)
C        -0.42805204091732    0.06286098494040    0.02201508024272
O         0.85663426660692    0.22669593911265    0.40002221440547
O        -1.28814610663982    0.85504316853369    0.25488175517443
H        -0.63367380769868   -0.93963758728384   -0.44833843936255
H         1.49323868864890   -0.20496250530291   -0.22858061046008
5
 energy: -11.268407273941 gnorm: 0.035981725170 xtb: 6.2.2 (9d81278992624c895f80dd42a50cac0aa55982e2)
C        -0.42989358858624    0.05989211755885    0.02358439217732
O         0.84321771633274    0.23360134106107    0.36686391652329
O        -1.27493011112559    0.83855061399411    0.25837261420895
H        -0.60968424643847   -0.91378693752413   -0.44171489059854
H         1.47129122981756   -0.21825713508990   -0.20710603231103
5
 energy: -11.269335291984 gnorm: 0.044806291388 xtb: 6.2.2 (9d81278992624c895f80dd42a50cac0aa55982e2)
C        -0.43401985002778    0.06752914442293    0.03948851984592
O         0.85210827483673    0.28756890560680    0.34592555025310
O        -1.29586733343047    0.82877469933790    0.27157141486489
H        -0.58664636463043   -0.90727976593171   -0.46139128299719
H         1.46442627325196   -0.27659298343593   -0.19559420196672
5
 energy: -11.270114245041 gnorm: 0.019521689168 xtb: 6.2.2 (9d81278992624c895f80dd42a50cac0aa55982e2)
C        -0.42905719375772    0.06602584850597    0.03366191299364
O         0.85948292848781    0.28332001089265    0.34009100924987
O        -1.30165310469752    0.82928115807682    0.27349195606855
H        -0.60053204843847   -0.90923708744710   -0.45841946110770
H         1.47176041840589   -0.26938993002834   -0.18882541720437
5
 energy: -11.270845481873 gnorm: 0.013945279739 xtb: 6.2.2 (9d81278992624c895f80dd42a50cac0aa55982e2)
C        -0.42615156691853    0.06682285406836    0.02778815703594
O         0.86262168092474    0.30468507624342    0.31017689889513
O        -1.30643138357335    0.82443195052800    0.28756469775645
H        -0.59887612035725   -0.90825351067182   -0.46124537274501
H         1.46883838992439   -0.28768637016796   -0.16428438094252
5
 energy: -11.271429710576 gnorm: 0.014544521629 xtb: 6.2.2 (9d81278992624c895f80dd42a50cac0aa55982e2)
C        -0.42522849544496    0.07210689810422    0.02356828229459
O         0.86407986644485    0.33732487634242    0.26337183457798
O        -1.31230910063134    0.81520013215254    0.30700561550250
H        -0.59112720134751   -0.90598578344652   -0.46582429951279
H         1.46458593097896   -0.31864612315265   -0.12812143286228
5
 energy: -11.271657158195 gnorm: 0.004895705390 xtb: 6.2.2 (9d81278992624c895f80dd42a50cac0aa55982e2)
C        -0.42581410736415    0.07332033642792    0.02090128524030
O         0.86277055133628    0.34894781161517    0.23151612319901
O        -1.30659402425201    0.81252169650726    0.31716643176639
H        -0.59352658064478   -0.91051601165518   -0.46730704931015
H         1.46316516092467   -0.32427383289517   -0.10227679089556
5
 energy: -11.271657379022 gnorm: 0.007868281119 xtb: 6.2.2 (9d81278992624c895f80dd42a50cac0aa55982e2)
C        -0.42433520849233    0.07845269001675    0.01483791586285
O         0.86445236029770    0.36668674988586    0.20419631740048
O        -1.31158672393043    0.80241437847676    0.32812622896265
H        -0.59482965614720   -0.90646519134738   -0.46664086191938
H         1.46630022827226   -0.34108862703200   -0.08051960030660
5
 energy: -11.271705904448 gnorm: 0.000943459318 xtb: 6.2.2 (9d81278992624c895f80dd42a50cac0aa55982e2)
C        -0.42471245378904    0.07663388215148    0.01668922493382
O         0.86405482591768    0.35646765515069    0.21728464855079
O        -1.30932911457771    0.80648918204023    0.32246055049234
H        -0.59658445432520   -0.90839866522035   -0.46576356991205
H         1.46657219677427   -0.33119205412204   -0.09067085406490
5
 energy: -11.271707077156 gnorm: 0.000460704895 xtb: 6.2.2 (9d81278992624c895f80dd42a50cac0aa55982e2)
C        -0.42501838918039    0.07674668367457    0.01641474637196
O         0.86413564202903    0.35865335207775    0.21403456016504
O        -1.30889858596877    0.80638531046557    0.32387127429594
H        -0.59705750272625   -0.90940472597318   -0.46641969007306
H         1.46683983584637   -0.33238062024471   -0.08790089075988
