$hessian                                                                        
        0.3589818981   0.1798812410  -0.0893594705  -0.3476331724  -0.1532888588
        0.0788516786  -0.0494403060  -0.0181980184   0.0114571280   0.0274580748
       -0.0105905284   0.0009939142   0.0106335055   0.0021961645  -0.0019432503
        0.1798812410   0.4821957492  -0.1649284078  -0.2614760381  -0.1127356448
        0.0548069579   0.0213970151   0.0020870669   0.0002326250   0.0686320970
       -0.3711398381   0.1094078096  -0.0084343150  -0.0004073332   0.0004810153
       -0.0893594705  -0.1649284078   0.0639781779   0.1123787706   0.0444169072
       -0.0403461531  -0.0009331698   0.0041668023   0.0086844719  -0.0235312217
        0.1169103164  -0.0307303654   0.0014450914  -0.0005656181  -0.0015861313
       -0.3476331724  -0.2614760381   0.1123787706   0.9097808255   0.1224719363
       -0.1197963313  -0.2649887447  -0.0143142897   0.0252761928  -0.1900899739
        0.1610589904  -0.0329443583  -0.1070689346  -0.0077405989   0.0150857262
       -0.1532888588  -0.1127356448   0.0444169072   0.1224719363   0.1634338364
       -0.0416588748  -0.0203120442  -0.0436244540  -0.0020287831   0.0566058113
       -0.0214329202  -0.0022440246  -0.0054768445   0.0143591825   0.0015147753
        0.0788516786   0.0548069579  -0.0403461531  -0.1197963313  -0.0416588748
        0.0912500656   0.0274176990  -0.0025444017  -0.0584756058  -0.0005979288
       -0.0122894919  -0.0077692277   0.0141248825   0.0016858105   0.0153409210
       -0.0494403060   0.0213970151  -0.0009331698  -0.2649887447  -0.0203120442
        0.0274176990   1.4883141126   0.0901102514  -0.1717310753  -0.0338822317
       -0.0227258152   0.0109580834  -1.1400028303  -0.0684694071   0.1342884627
       -0.0181980184   0.0020870669   0.0041668023  -0.0143142897  -0.0436244540
       -0.0025444017   0.0901102514   0.0772515406  -0.0119100092   0.0115754577
       -0.0008500791   0.0013636268  -0.0691734011  -0.0348640745   0.0089239817
        0.0114571280   0.0002326250   0.0086844719   0.0252761928  -0.0020287831
       -0.0584756058  -0.1717310753  -0.0119100092   0.0893171846   0.0003520201
        0.0048398356   0.0056810413   0.1346457344   0.0088663316  -0.0452070920
        0.0274580748   0.0686320970  -0.0235312217  -0.1900899739   0.0566058113
       -0.0005979288  -0.0338822317   0.0115754577   0.0003520201   0.1893541577
       -0.1357674920   0.0242616081   0.0071599730  -0.0010458740  -0.0004844777
       -0.0105905284  -0.3711398381   0.1169103164   0.1610589904  -0.0214329202
       -0.0122894919  -0.0227258152  -0.0008500791   0.0048398356  -0.1357674920
        0.3929896678  -0.1081093935   0.0080248452   0.0004331696  -0.0013512666
        0.0009939142   0.1094078096  -0.0307303654  -0.0329443583  -0.0022440246
       -0.0077692277   0.0109580834   0.0013636268   0.0056810413   0.0242616081
       -0.1081093935   0.0335436101  -0.0032692475  -0.0004180184  -0.0007250583
        0.0106335055  -0.0084343150   0.0014450914  -0.1070689346  -0.0054768445
        0.0141248825  -1.1400028303  -0.0691734011   0.1346457344   0.0071599730
        0.0080248452  -0.0032692475   1.2292782863   0.0750597154  -0.1469464608
        0.0021961645  -0.0004073332  -0.0005656181  -0.0077405989   0.0143591825
        0.0016858105  -0.0684694071  -0.0348640745   0.0088663316  -0.0010458740
        0.0004331696  -0.0004180184   0.0750597154   0.0204790556  -0.0095685057
       -0.0019432503   0.0004810153  -0.0015861313   0.0150857262   0.0015147753
        0.0153409210   0.1342884627   0.0089239817  -0.0452070920  -0.0004844777
       -0.0013512666  -0.0007250583  -0.1469464608  -0.0095685057   0.0321773607
