 Entering Gaussian System
 *********************************************
 Gaussian 98:
 frequency output generated by the xtb code
 *********************************************
                         Standard orientation:
 --------------------------------------------------------------------
  Center     Atomic     Atomic              Coordinates (Angstroms)
  Number     Number      Type              X           Y           Z
 --------------------------------------------------------------------
    1          6             0       -1.427039   -0.694710    0.354693
    2          6             0       -0.279512   -0.058848    0.049362
    3          6             0        1.076377    0.024933   -0.112341
    4          6             0       -1.586567    0.632839   -0.041244
    5          7             0        2.216741    0.095784   -0.250470
 --------------------------------------------------------------------
     1 basis functions        1 primitive gaussians
     1 alpha electrons        1 beta electrons

 Harmonic frequencies (cm**-1), IR intensities (KM/Mole),
 Raman scattering activities (A**4/amu), Raman depolarization ratios,
 reduced masses (AMU), force constants (mDyne/A) and normal coordinates:
                      1                      2                      3
                        a                      a                      a 
 Frequencies --   189.4634               201.5550               499.0107
 Red. masses --    12.5317                12.5071                12.1789
 Frc consts  --     0.0000                 0.0000                 0.0000
 IR Inten    --     0.4578                 0.5396                 0.2665
 Raman Activ --     0.0000                 0.0000                 0.0000
 Depolar     --     0.0000                 0.0000                 0.0000
 Atom AN      X      Y      Z        X      Y      Z        X      Y      Z
   1   6     0.35  -0.12   0.00    -0.03  -0.09  -0.30    -0.19  -0.06   0.04
   2   6    -0.03   0.51  -0.16     0.05   0.18   0.56     0.02  -0.39   0.12
   3   6    -0.00   0.32  -0.10     0.05   0.15   0.47    -0.12   0.74  -0.22
   4   6    -0.40  -0.19   0.10    -0.02  -0.07  -0.22     0.32   0.00  -0.03
   5   7     0.08  -0.48   0.15    -0.05  -0.15  -0.47    -0.03  -0.28   0.09
                      4                      5                      6
                        a                      a                      a 
 Frequencies --   546.1200               705.9332               939.6968
 Red. masses --    12.1231                12.4987                12.1707
 Frc consts  --     0.0000                 0.0000                 0.0000
 IR Inten    --     0.0243                 0.0511                 0.3341
 Raman Activ --     0.0000                 0.0000                 0.0000
 Depolar     --     0.0000                 0.0000                 0.0000
 Atom AN      X      Y      Z        X      Y      Z        X      Y      Z
   1   6     0.01   0.04   0.13     0.35  -0.21   0.03    -0.56  -0.24   0.13
   2   6    -0.06  -0.20  -0.63    -0.04   0.28  -0.09    -0.30   0.45  -0.11
   3   6     0.07   0.20   0.65    -0.37  -0.09   0.06     0.20  -0.00  -0.02
   4   6     0.01   0.03   0.10     0.59   0.02  -0.06     0.36  -0.24   0.04
   5   7    -0.02  -0.07  -0.23    -0.49  -0.01   0.05     0.28   0.03  -0.04
                      7                      8                      9
                        a                      a                      a 
 Frequencies --  1204.7348              1792.0213              2302.1290
 Red. masses --    12.0811                12.0708                12.7718
 Frc consts  --     0.0000                 0.0000                 0.0000
 IR Inten    --     0.6808                 0.2938                 0.7995
 Raman Activ --     0.0000                 0.0000                 0.0000
 Depolar     --     0.0000                 0.0000                 0.0000
 Atom AN      X      Y      Z        X      Y      Z        X      Y      Z
   1   6    -0.22   0.51  -0.14    -0.34  -0.43   0.17     0.00   0.03  -0.01
   2   6     0.46   0.10  -0.08     0.69   0.14  -0.11    -0.11  -0.01   0.02
   3   6    -0.13  -0.01   0.01    -0.00  -0.00   0.00     0.77   0.05  -0.09
   4   6     0.08  -0.59   0.18    -0.17   0.30  -0.08    -0.00  -0.03   0.01
   5   7    -0.19  -0.01   0.02    -0.17  -0.01   0.02    -0.61  -0.04   0.07
