$hessian                                                                        
        0.9145064919  -0.0493981032  -0.2598313094  -0.4468818720   0.0347784852
        0.1300449909  -0.4212445727   0.0149256734   0.1196164740  -0.0165168881
        0.0514743937   0.0159017145  -0.0298631591  -0.0517804491  -0.0057318700
       -0.0493981032   0.1298394578   0.0400275613   0.1592184416  -0.0656089412
       -0.0579454096  -0.1146253802  -0.0528706085   0.0196989752  -0.0107812883
       -0.0090509319   0.0015943145   0.0155863301  -0.0023089762  -0.0033754413
       -0.2598313094   0.0400275613   0.1002574502   0.1595591450  -0.0234684866
       -0.0570604009   0.0888999606  -0.0161845865  -0.0305268019   0.0011400450
       -0.0156557935  -0.0071951751   0.0102321588   0.0152813054  -0.0054750722
       -0.4468818720   0.1592184416   0.1595591450   0.8685949720   0.0196228676
       -0.2258476616  -0.1396678439  -0.0378199167   0.0215925982  -0.2855278306
       -0.1584200117   0.0362381923   0.0034825746   0.0173986192   0.0084577260
        0.0347784852  -0.0656089412  -0.0234684866   0.0196228676   0.0942259647
        0.0082469538   0.0674392901   0.0372099674  -0.0029114078  -0.1168847109
       -0.0559095579   0.0236420428  -0.0049559321  -0.0099174330  -0.0055091021
        0.1300449909  -0.0579454096  -0.0570604009  -0.2258476616   0.0082469538
        0.1011116768   0.0465568274   0.0262463834  -0.0360052582   0.0460904660
        0.0351512452  -0.0235253159   0.0031553774  -0.0116991728   0.0154792981
       -0.4212445727  -0.1146253802   0.0888999606  -0.1396678439   0.0674392901
        0.0465568274   0.7356542081  -0.1109483060  -0.2225119865  -0.0007148509
       -0.0207838409   0.0003962948  -0.1740269405   0.1789182369   0.0866589036
        0.0149256734  -0.0528706085  -0.0161845865  -0.0378199167   0.0372099674
        0.0262463834  -0.1109483060   0.1420121439   0.0579651278   0.0007137372
       -0.0062421382  -0.0060553878   0.1331288122  -0.1201093646  -0.0619715369
        0.1196164740   0.0196989752  -0.0305268019   0.0215925982  -0.0029114078
       -0.0360052582  -0.2225119865   0.0579651278   0.1024908273   0.0054925592
       -0.0001006444   0.0169437167   0.0758103550  -0.0746520509  -0.0529024839
       -0.0165168881  -0.0107812883   0.0011400450  -0.2855278306  -0.1168847109
        0.0460904660  -0.0007148509   0.0007137372   0.0054925592   0.3040415086
        0.1262937960  -0.0507410316  -0.0012819389   0.0006584660  -0.0019820385
        0.0514743937  -0.0090509319  -0.0156557935  -0.1584200117  -0.0559095579
        0.0351512452  -0.0207838409  -0.0062421382  -0.0001006444   0.1262937960
        0.0662438973  -0.0223019245   0.0014356628   0.0049587307   0.0029071173
        0.0159017145   0.0015943145  -0.0071951751   0.0362381923   0.0236420428
       -0.0235253159   0.0003962948  -0.0060553878   0.0169437167  -0.0507410316
       -0.0223019245   0.0215348748  -0.0017951700   0.0031209552  -0.0077581005
       -0.0298631591   0.0155863301   0.0102321588   0.0034825746  -0.0049559321
        0.0031553774  -0.1740269405   0.1331288122   0.0758103550  -0.0012819389
        0.0014356628  -0.0017951700   0.2016894640  -0.1451948730  -0.0874027212
       -0.0517804491  -0.0023089762   0.0152813054   0.0173986192  -0.0099174330
       -0.0116991728   0.1789182369  -0.1201093646  -0.0746520509   0.0006584660
        0.0049587307   0.0031209552  -0.1451948730   0.1273770432   0.0679489631
       -0.0057318700  -0.0033754413  -0.0054750722   0.0084577260  -0.0055091021
        0.0154792981   0.0866589036  -0.0619715369  -0.0529024839  -0.0019820385
        0.0029071173  -0.0077581005  -0.0874027212   0.0679489631   0.0506563584
