5
 energy: -7.070539297050 gnorm: 0.311023515287 xtb: 6.2.2 (9d81278992624c895f80dd42a50cac0aa55982e2)
C         0.12172900000000   -0.59235000000000    0.29629200000000
C         0.89146400000000    0.22076900000000   -0.72507500000000
C        -1.36732300000000   -0.36732900000000    0.12111200000000
H         1.97919500000000    0.05058400000000   -0.58915900000000
H        -1.62506500000000    0.68832500000000    0.35036600000000
5
 energy: -7.166283498030 gnorm: 0.163082246708 xtb: 6.2.2 (9d81278992624c895f80dd42a50cac0aa55982e2)
C         0.09562088127727   -0.48106702975185    0.22318750514042
C         0.88398033854235    0.15893218435421   -0.59341010111377
C        -1.32944175040725   -0.38055051309745    0.11559421012421
H         1.97116903694202    0.04134423737136   -0.64295692396108
H        -1.62132850635438    0.66134012112373    0.35112130981022
5
 energy: -7.190437048362 gnorm: 0.239361875819 xtb: 6.2.2 (9d81278992624c895f80dd42a50cac0aa55982e2)
C         0.04651167674063   -0.36924105827900    0.13657821617583
C         0.93138285749918    0.05900988772912   -0.47381698757464
C        -1.31584106118713   -0.38506978007409    0.12543936147197
H         1.99502830026661    0.06033320377126   -0.70567879451354
H        -1.65708177331929    0.63496674685270    0.37101420444038
5
 energy: -7.204499779457 gnorm: 0.153652120804 xtb: 6.2.2 (9d81278992624c895f80dd42a50cac0aa55982e2)
C        -0.06835831037841   -0.24815526733155    0.09530830986277
C         1.09553192047874   -0.00266539019294   -0.44847526992649
C        -1.38685846064791   -0.40532439209651    0.15210424502798
H         2.10447836399372    0.06711612363713   -0.77654687951413
H        -1.74479351344614    0.58902792598387    0.43114559454987
5
 energy: -7.214845297116 gnorm: 0.050608769418 xtb: 6.2.2 (9d81278992624c895f80dd42a50cac0aa55982e2)
C        -0.00186389371523   -0.26419277958995    0.06858966243143
C         1.10166206639486    0.05948317237474   -0.42529701862110
C        -1.35030604289701   -0.38354297112728    0.18354728469263
H         2.09490037332779   -0.00349497796283   -0.78468453221588
H        -1.84439250311040    0.59174655630531    0.41138060371293
5
 energy: -7.217743029078 gnorm: 0.033921587619 xtb: 6.2.2 (9d81278992624c895f80dd42a50cac0aa55982e2)
C         0.00387383742272   -0.20426286526470    0.05240655420535
C         1.11835018768438    0.03643201560776   -0.42592627878357
C        -1.32220501430452   -0.36059241391073    0.16219047213604
H         2.09643371881281   -0.03079191918732   -0.78212744315101
H        -1.89645272961539    0.55921418275499    0.44699269559318
5
 energy: -7.217489962835 gnorm: 0.057850074836 xtb: 6.2.2 (9d81278992624c895f80dd42a50cac0aa55982e2)
C        -0.02775715281024   -0.13731010653170   -0.01846248396652
C         1.15595300462524    0.06727039637131   -0.30552175588817
C        -1.30765161198837   -0.34630765001684    0.22552716534836
H         2.11307021646785   -0.08663852255083   -0.85238553134574
H        -1.93361445629448    0.50298488272807    0.40437860585207
5
 energy: -7.218246475440 gnorm: 0.093519919141 xtb: 6.2.2 (9d81278992624c895f80dd42a50cac0aa55982e2)
C        -0.03711110821053   -0.10175803016555   -0.09816601246843
C         1.17854697651921   -0.03084713153208   -0.39636342582974
C        -1.31377878354663   -0.32404071114464    0.25885911560355
H         2.11780927370417   -0.03560567888609   -0.76016137533178
H        -1.94546635846621    0.49225055172836    0.44936769802641
5
 energy: -7.220062160645 gnorm: 0.046449213088 xtb: 6.2.2 (9d81278992624c895f80dd42a50cac0aa55982e2)
C        -0.01115031368438   -0.10795885441315   -0.00522956850774
C         1.15043163973063   -0.04067348025800   -0.42959641181318
C        -1.29061537335932   -0.31146686246603    0.15497498218328
H         2.13237787561000   -0.04157815098040   -0.77184172958719
H        -1.98104382829692    0.50167634811758    0.50522872772483
5
 energy: -7.221223523732 gnorm: 0.026763458487 xtb: 6.2.2 (9d81278992624c895f80dd42a50cac0aa55982e2)
C        -0.02178291459362   -0.11469033479776   -0.02941821384976
C         1.13763449313431   -0.03000202281434   -0.41006553663952
C        -1.30760739524290   -0.32117240482188    0.18985416939126
H         2.12576038671361   -0.03348682793079   -0.76946591764608
H        -1.93400457001138    0.49935059036477    0.47263149874410
5
 energy: -7.219814897530 gnorm: 0.047766323983 xtb: 6.2.2 (9d81278992624c895f80dd42a50cac0aa55982e2)
C        -0.02780965704506   -0.02409118136906   -0.06915477391650
C         1.18856177258513   -0.02236285199075   -0.38580630544609
C        -1.31868570651622   -0.32147132505032    0.20263222547495
H         2.16638241309494   -0.09111578173261   -0.79304911427276
H        -2.00844882211877    0.45904014014274    0.49891396816040
5
 energy: -7.221924230632 gnorm: 0.005821145845 xtb: 6.2.2 (9d81278992624c895f80dd42a50cac0aa55982e2)
C        -0.02260763099778   -0.07129410482196   -0.04398545845796
C         1.15722266544530   -0.03417980740808   -0.41065615186696
C        -1.30308188962737   -0.31557792214487    0.18634276807128
H         2.14034439563997   -0.05815576234908   -0.77166430170537
H        -1.97187754046012    0.47920659672400    0.49349914395901
5
 energy: -7.222005477964 gnorm: 0.005642368759 xtb: 6.2.2 (9d81278992624c895f80dd42a50cac0aa55982e2)
C        -0.02596460348032   -0.06421060860443   -0.05416891489075
C         1.15726513272966   -0.04356659230049   -0.41302722086389
C        -1.30058046982053   -0.31135649304209    0.19065551703489
H         2.14388057424214   -0.05550772832138   -0.76642501455125
H        -1.97460063367094    0.47464042226839    0.49650163327100
5
 energy: -7.222171789836 gnorm: 0.005437775466 xtb: 6.2.2 (9d81278992624c895f80dd42a50cac0aa55982e2)
C        -0.03085545966911   -0.03295664229339   -0.08331052307511
C         1.15588330902163   -0.06704468960962   -0.42975781474976
C        -1.29413290598439   -0.30155296075877    0.19844232311704
H         2.15684790540292   -0.05722908809658   -0.74448161965910
H        -1.98774284877105    0.45878238075835    0.51264363436692
5
 energy: -7.222229615147 gnorm: 0.004488069091 xtb: 6.2.2 (9d81278992624c895f80dd42a50cac0aa55982e2)
C        -0.03515457532761   -0.02156990419844   -0.09788915558068
C         1.15193506262145   -0.08921798749796   -0.44513322024857
C        -1.29051071788995   -0.29599992928266    0.20023569568106
H         2.16491927635933   -0.04811243540138   -0.72790090275415
H        -1.99118904576322    0.45489925638044    0.52422358290235
5
 energy: -7.222266803460 gnorm: 0.004144154875 xtb: 6.2.2 (9d81278992624c895f80dd42a50cac0aa55982e2)
C        -0.03695411224296   -0.01949812907885   -0.10473392659062
C         1.14708261281090   -0.10134186771255   -0.45614236357021
C        -1.28926735865974   -0.29610663923874    0.20114795764025
H         2.16553138010314   -0.03984745767891   -0.71572591955851
H        -1.98639252201132    0.45679309370905    0.52899025207909
5
 energy: -7.222301863816 gnorm: 0.003937333852 xtb: 6.2.2 (9d81278992624c895f80dd42a50cac0aa55982e2)
C        -0.03873281805520   -0.01956162759173   -0.10926301921303
C         1.14399719641844   -0.11413864175033   -0.46409142895732
C        -1.28927664876133   -0.29793297568228    0.20046208174569
H         2.16405986489219   -0.02945589404882   -0.70660026143097
H        -1.98004759449409    0.46108813907315    0.53302862785563
5
 energy: -7.222345732640 gnorm: 0.004200923562 xtb: 6.2.2 (9d81278992624c895f80dd42a50cac0aa55982e2)
C        -0.04116570319897   -0.02149444090609   -0.11616728119328
C         1.14048246650482   -0.13595033568999   -0.47229298741192
C        -1.29091185196666   -0.30075355446637    0.19946448297193
H         2.16139976892748   -0.01081831020026   -0.69557373997523
H        -1.96980468026667    0.46901564126270    0.53810552560851
5
 energy: -7.222387489688 gnorm: 0.005100370120 xtb: 6.2.2 (9d81278992624c895f80dd42a50cac0aa55982e2)
C        -0.04166231400344   -0.02391362228446   -0.11806169432552
C         1.13942954194686   -0.15434812277023   -0.47277266479435
C        -1.29254242549688   -0.30357662013919    0.19463203757794
H         2.15462962601175    0.00539006995319   -0.69178501727588
H        -1.95985442845828    0.47644729524068    0.54152333881782
5
 energy: -7.222413479746 gnorm: 0.006219936633 xtb: 6.2.2 (9d81278992624c895f80dd42a50cac0aa55982e2)
C        -0.04347748799934   -0.01970208297537   -0.12745714539468
C         1.13841688952329   -0.18553858953914   -0.47661115669183
C        -1.29297469456424   -0.30048749821939    0.19023871621290
H         2.15214696133042    0.02624776872911   -0.68323325803330
H        -1.95411166829012    0.47947940200479    0.55059884390692
5
 energy: -7.222467435302 gnorm: 0.003889678108 xtb: 6.2.2 (9d81278992624c895f80dd42a50cac0aa55982e2)
C        -0.04022203920248   -0.01790890779645   -0.12466811526032
C         1.14224504385568   -0.18856157106169   -0.46637758498355
C        -1.29208941998364   -0.29583569961024    0.18511730028558
H         2.14698269400772    0.02615788123124   -0.69126512056320
H        -1.95691627867727    0.47614729723714    0.55072952052150
5
 energy: -7.222031397296 gnorm: 0.011366696005 xtb: 6.2.2 (9d81278992624c895f80dd42a50cac0aa55982e2)
C        -0.02326563006156   -0.02087999267335   -0.06810579355736
C         1.13062511811828   -0.18057035510641   -0.51065942533739
C        -1.29033250536156   -0.29247976537850    0.18318953872657
H         2.14986500792128    0.02016129312039   -0.68486882741134
H        -1.96689199061642    0.47376782003786    0.53398050757952
5
 energy: -7.222498869678 gnorm: 0.003431625913 xtb: 6.2.2 (9d81278992624c895f80dd42a50cac0aa55982e2)
C        -0.02796180017781   -0.01899095394074   -0.08732511653393
C         1.14214543844654   -0.18952643999973   -0.46507282353254
C        -1.29350005457214   -0.28834289802934    0.16993145782016
H         2.14291455562189    0.02542964374659   -0.70786730717697
H        -1.96359813931846    0.47142964822321    0.54386978942328
5
 energy: -7.222491255541 gnorm: 0.002399727308 xtb: 6.2.2 (9d81278992624c895f80dd42a50cac0aa55982e2)
C        -0.03941345574388   -0.01497711205144   -0.12719919073721
C         1.13978272617021   -0.18869378722608   -0.47500312544951
C        -1.28759925775305   -0.29168115857508    0.19050096301759
H         2.14854963937457    0.02350044586801   -0.68483841140096
H        -1.96131965204785    0.47185061198459    0.55007576457010
5
 energy: -7.222531508189 gnorm: 0.001754638340 xtb: 6.2.2 (9d81278992624c895f80dd42a50cac0aa55982e2)
C        -0.03284602337470   -0.01614015815359   -0.10534279913193
C         1.14140782144236   -0.18982428934117   -0.47098560066435
C        -1.28987483890630   -0.28803788712945    0.18004106437339
H         2.14625960199550    0.02393246772925   -0.69697352629997
H        -1.96494656115686    0.47006886689496    0.54679686172285
5
 energy: -7.222540596947 gnorm: 0.001470346286 xtb: 6.2.2 (9d81278992624c895f80dd42a50cac0aa55982e2)
C        -0.03067536780459   -0.01497881967836   -0.09999155730402
C         1.14239595419824   -0.19153884222986   -0.47090721862561
C        -1.28933132087433   -0.28475961099592    0.17805520695617
H         2.14651308547812    0.02360238191986   -0.69993753592828
H        -1.96890235099743    0.46767389098427    0.54631710490175
5
 energy: -7.222555005094 gnorm: 0.001444758212 xtb: 6.2.2 (9d81278992624c895f80dd42a50cac0aa55982e2)
C        -0.02903412026619   -0.01153678757810   -0.09929734982329
C         1.14322731816637   -0.19604109691557   -0.47257785139431
C        -1.28588595316975   -0.27886355323266    0.17865813226778
H         2.14699944425262    0.02340596573156   -0.70002810063170
H        -1.97530668898304    0.46303447199477    0.54678116958153
5
 energy: -7.222568406072 gnorm: 0.002038897127 xtb: 6.2.2 (9d81278992624c895f80dd42a50cac0aa55982e2)
C        -0.02801443461869   -0.00816581185967   -0.10066620095735
C         1.14399449375770   -0.20294934659275   -0.47436069892348
C        -1.28246027931050   -0.27357850936566    0.17980586448461
H         2.14668857032433    0.02533501149279   -0.69879741719484
H        -1.98020835015283    0.45935765632529    0.54755445259107
5
 energy: -7.222593526014 gnorm: 0.002786803100 xtb: 6.2.2 (9d81278992624c895f80dd42a50cac0aa55982e2)
C        -0.02581169945187   -0.00329394770004   -0.10152997029596
C         1.14446164833912   -0.21675431806177   -0.47822352350109
C        -1.27705276719436   -0.26560080984965    0.18113396931778
H         2.14473526579848    0.03104856172783   -0.69606094355663
H        -1.98633244749136    0.45459951388363    0.54821646803589
5
 energy: -7.222676399674 gnorm: 0.006200395690 xtb: 6.2.2 (9d81278992624c895f80dd42a50cac0aa55982e2)
C        -0.01525462926013    0.01800822432568   -0.10512278818433
C         1.14661716052641   -0.28637176564346   -0.49589942836153
C        -1.25279166104191   -0.22950175718193    0.18618416867053
H         2.13283189190846    0.06294627371393   -0.68268330709072
H        -2.01140276213282    0.43491802478577    0.55105735496605
5
 energy: -7.222723515247 gnorm: 0.004760272014 xtb: 6.2.2 (9d81278992624c895f80dd42a50cac0aa55982e2)
C        -0.01208956294656    0.01992188420280   -0.10473466411312
C         1.14653317330131   -0.30195128933500   -0.49871465581530
C        -1.24809098138632   -0.22290230027448    0.18575097376874
H         2.12509561402380    0.07234527823105   -0.67924597493066
H        -2.01144824299223    0.43258542717562    0.55048032109034
5
 energy: -7.222774006441 gnorm: 0.003997242268 xtb: 6.2.2 (9d81278992624c895f80dd42a50cac0aa55982e2)
C        -0.00833090747234    0.01414777450837   -0.10497970696642
C         1.14650454258248   -0.31584378476050   -0.50046011416923
C        -1.24585422056420   -0.22083462608273    0.18376563767521
H         2.10946670171047    0.08604341996338   -0.67357263699159
H        -2.00178611625640    0.43648621637148    0.54878282045204
5
 energy: -7.222689200960 gnorm: 0.009543931796 xtb: 6.2.2 (9d81278992624c895f80dd42a50cac0aa55982e2)
C         0.00110557386981    0.02259801879789   -0.10754263347922
C         1.14871731718599   -0.37190161957038   -0.51406931350210
C        -1.22858772902099   -0.19548506594855    0.18581295975014
H         2.09187766552954    0.11750986455946   -0.66074654679250
H        -2.01311282756434    0.42727780216158    0.55008153402368
5
 energy: -7.222793649428 gnorm: 0.001542174793 xtb: 6.2.2 (9d81278992624c895f80dd42a50cac0aa55982e2)
C        -0.00717305856465    0.01426941543436   -0.10605091073162
C         1.14768500373657   -0.32580699445642   -0.50350965275634
C        -1.24307625104546   -0.21673083415167    0.18442563619239
H         2.10756305343846    0.09220134579209   -0.67103081153202
H        -2.00499874756491    0.43606606738163    0.54970173882758
5
 energy: -7.222799905986 gnorm: 0.001251685252 xtb: 6.2.2 (9d81278992624c895f80dd42a50cac0aa55982e2)
C        -0.00641512687666    0.01232526551197   -0.10636013401794
C         1.14827243193285   -0.33241472281076   -0.50538261995358
C        -1.24174520429861   -0.21456909998114    0.18439082863753
H         2.10461585227253    0.09763552255982   -0.66896330609953
H        -2.00472795303011    0.43702203472010    0.54985123143353
5
 energy: -7.222803620550 gnorm: 0.001017547902 xtb: 6.2.2 (9d81278992624c895f80dd42a50cac0aa55982e2)
C        -0.00547602097530    0.00934968647005   -0.10602092903434
C         1.14921796009850   -0.33914759262699   -0.50771553508160
C        -1.24040889225942   -0.21178340075727    0.18423143515067
H         2.10152639143852    0.10347963808930   -0.66690710401229
H        -2.00485943830230    0.43810066882492    0.54994813297757
5
 energy: -7.222805079548 gnorm: 0.000825565316 xtb: 6.2.2 (9d81278992624c895f80dd42a50cac0aa55982e2)
C        -0.00507968387124    0.00824607035237   -0.10585690686434
C         1.14965916318297   -0.34106087772813   -0.50861900196558
C        -1.23982903282150   -0.21023812594338    0.18432101126986
H         2.10067523701853    0.10505468126840   -0.66628458716228
H        -2.00542568350876    0.43799725205074    0.54997548472233
