[Molden Format]
[Title]
[Atoms] AU
C      1     6  0.10592563726450E-01  0.88564859184192E-01 -0.27530828163219E-02
N      2     7 -0.21061226949123E+01  0.14251548624335E+01 -0.19730293709491E+00
N      3     7  0.23839924958479E+01  0.89814174043864E+00  0.12517137284634E+00
H      4     1 -0.25588065903019E+00 -0.11410106054391E+01  0.16981411847726E+01
H      5     1 -0.32581705631861E-01 -0.12708508566172E+01 -0.16232565377077E+01
[GTO]
           1 0
 s           4   1.0000000000000000     
   51.049363095579913      -0.16312063210127389     
   8.7911227406887544      -0.19911024581000730     
  0.70640422258929825       0.31882047753655751     
  0.26922813413411617       0.12706504184240380     
 p           4   1.0000000000000000     
   5.8263656140800002       0.73716451545209605     
   1.5106896018720002       0.68216371614850257     
  0.53256483288000001       0.35783053929253711     
  0.21202323690600003        5.3983030275847881E-002

           2 0
 s           4   1.0000000000000000     
   63.594024466941008      -0.19234388414721629     
   10.951417231523665      -0.23478107924953728     
  0.87999310257376984       0.37593753901700888     
  0.33538715296521110       0.14982889271862770     
 p           4   1.0000000000000000     
   7.2965040481495080       0.97658666315667420     
   1.8918745450712575       0.90372226730345739     
  0.66694432110824120       0.47404958461536373     
  0.26552202674130870        7.1516067715011844E-002

           3 0
 s           4   1.0000000000000000     
   63.594024466941008      -0.19234388414721629     
   10.951417231523665      -0.23478107924953728     
  0.87999310257376984       0.37593753901700888     
  0.33538715296521110       0.14982889271862770     
 p           4   1.0000000000000000     
   7.2965040481495080       0.97658666315667420     
   1.8918745450712575       0.90372226730345739     
  0.66694432110824120       0.47404958461536373     
  0.26552202674130870        7.1516067715011844E-002

           4 0
 s           3   1.0000000000000000     
   3.3702276975336001       0.27359110588908298     
  0.61389118221497996       0.26460540653860526     
  0.16614291148415999        8.2465947534082318E-002

           5 0
 s           3   1.0000000000000000     
   3.3702276975336001       0.27359110588908298     
  0.61389118221497996       0.26460540653860526     
  0.16614291148415999        8.2465947534082318E-002

[MO]
Sym=     1a
Ene=  -0.69620465471338944     
Spin= Alpha
Occup=     2.00000000
           1 -0.53348104653111073     
           2  -5.9267624986069434E-003
           3  -4.9548158166443160E-002
           4   1.5372113547467148E-003
           5 -0.25165721779205796     
           6 -0.15443093118022019     
           7   9.9533065124867634E-002
           8  -1.4273263197973339E-002
           9 -0.25165898008555931     
          10  0.17363494120504119     
          11   6.1027832062667660E-002
          12   9.2879815476272689E-003
          13 -0.16195046636078481     
          14 -0.16194919871256097     
Sym=     2a
Ene=  -0.64403399801837757     
Spin= Alpha
Occup=     2.00000000
           1   1.3245799116423782E-006
           2 -0.45160273629832287     
           3   5.3005134707733381E-002
           4  -3.2433521002152653E-002
           5  0.44387222819704830     
           6  0.10182255191009208     
           7 -0.13483465434120734     
           8   1.2115854839386516E-002
           9 -0.44387250651018140     
          10  0.13080899702849283     
          11  0.10752987305676137     
          12   4.5914764029165445E-003
          13   5.8470505293131770E-007
          14   5.6767702198211358E-007
Sym=     3a
Ene=  -0.59601481086997954     
Spin= Alpha
Occup=     2.00000000
           1  -6.6032813959651313E-002
           2   6.0648819809667034E-002
           3  0.50709514052259552     
           4  -1.5744314389321942E-002
           5  0.29219714280305958     
           6  0.14119624323671512     
           7  0.13364227653250765     
           8   4.2683847446660155E-003
           9  0.29219668058391735     
          10 -0.10576154601302928     
          11  0.16262904043948362     
          12  -1.3467854889911817E-002
          13 -0.28649452708787282     
          14 -0.28649530683305346     
Sym=     4a
Ene=  -0.57817424154765551     
Spin= Alpha
Occup=     2.00000000
           1   2.3816343774000637E-006
           2   3.6885639951682918E-002
           3  -2.1445654013093458E-002
           4 -0.54864202555977659     
           5   4.0232315489586956E-007
           6   1.7523913369473534E-002
           7  -1.0188430940382152E-002
           8 -0.26065197615324853     
           9   4.2785079799978950E-007
          10   1.7523939950166469E-002
          11  -1.0188445387760998E-002
          12 -0.26065296339567967     
          13 -0.32280308644058386     
          14  0.32280270803567007     
Sym=     5a
Ene=  -0.48770361461061545     
Spin= Alpha
Occup=     2.00000000
           1  0.17867687399014806     
           2   2.1270345127762512E-002
           3  0.17782875388076724     
           4  -5.5210692840670754E-003
           5 -0.53204124374982742     
           6  0.42721466661340496     
           7   2.0673338215223543E-002
           8   2.7913429927001195E-002
           9 -0.53204542327158877     
          10 -0.41051499604131281     
          11  0.11899694690077384     
          12  -3.2250906054190918E-002
          13  -2.4121680768172789E-002
          14  -2.4122376738386721E-002
Sym=     6a
Ene=  -0.45546329693820209     
Spin= Alpha
Occup=     2.00000000
           1   9.8785386063863089E-007
           2 -0.26225232849752272     
           3   3.0781510745076162E-002
           4  -1.8834595875275077E-002
           5 -0.44790068888282419     
           6  0.27672333148218686     
           7 -0.42781615790232891     
           8   3.5326230527791248E-002
           9  0.44789519711072967     
          10  0.36997622044335232     
          11  0.35191440430149817     
          12   1.1118678972965527E-002
          13   4.1220160472514172E-007
          14   2.9846116478760472E-007
Sym=     7a
Ene=  -0.40895758110783920     
Spin= Alpha
Occup=     1.99448137
           1   3.3254776971626151E-008
           2   4.2841036671952364E-007
           3   4.9552246946797174E-009
           4   1.3152511859361325E-006
           5   2.9428787481316580E-007
           6  -4.7632258528244056E-002
           7   2.7691036365408084E-002
           8  0.70847737965394975     
           9  -4.7652969861215511E-007
          10   4.7631580349811742E-002
          11  -2.7690964826601758E-002
          12 -0.70848286773090230     
          13   1.8435827161786308E-006
          14  -1.7882026683042871E-006
Sym=     8a
Ene=  -0.39908836397520020     
Spin= Alpha
Occup=     1.00551862
           1  -9.6775613125777783E-007
           2   8.6921763290465873E-002
           3  -1.0204379121084246E-002
           4   6.2426501061561895E-003
           5   5.4363375157842640E-002
           6 -0.55791384092229279     
           7 -0.44481239673073769     
           8  -2.0124035581889230E-002
           9  -5.4360754600544625E-002
          10 -0.43753659895396552     
          11  0.56166438375735162     
          12  -5.1368292332046865E-002
          13   2.9386478114154896E-006
          14   3.0790033835752690E-006
Sym=     9a
Ene=  -0.38652371442641414     
Spin= Alpha
Occup=     0.99999520
           1  -5.2712170689580985E-002
           2  -1.6819629970533805E-002
           3 -0.14062750737260662     
           4   4.3652657500582769E-003
           5   3.9322790726082905E-002
           6   8.5265227111397057E-002
           7  0.66398699549688756     
           8  -2.0217048662700833E-002
           9   3.9322590284153081E-002
          10   7.3732414931551776E-002
          11  0.66532861468951288     
          12  -2.1044703988333132E-002
          13  0.27485379294159284     
          14  0.27486003560783667     
Sym=    10a
Ene=  -0.36325869463655630     
Spin= Alpha
Occup=     0.00000481
           1  -6.0909385836950688E-007
           2  -1.0961364293034776E-002
           3   6.3715273527707597E-003
           4  0.16303887079546034     
           5  -2.8663219522329878E-007
           6   4.2931946066303031E-002
           7  -2.4956095375280322E-002
           8 -0.63858698435328376     
           9  -4.0742500161013897E-007
          10   4.2934057292077596E-002
          11  -2.4956070179475549E-002
          12 -0.63858049949900642     
          13  0.38464217873678752     
          14 -0.38463658828706015     
Sym=    11a
Ene=    9.1436576350229587E-002
Spin= Alpha
Occup=     0.00000000
           1  0.53261141937175693     
           2 -0.11705214182421853     
           3 -0.97866647590046718     
           4   3.0409571964424915E-002
           5  0.17672358841634567     
           6  0.23076986264399343     
           7  0.10212332657780715     
           8   1.1517777551034209E-002
           9  0.17672390344042138     
          10 -0.20028996912419347     
          11  0.15271715818817011     
          12  -1.9440372131951805E-002
          13 -0.69269390591625846     
          14 -0.69266233526928411     
Sym=    12a
Ene=   0.12173010419544825     
Spin= Alpha
Occup=     0.00000000
           1  -2.9751173705011140E-005
           2  -7.2049372053816854E-002
           3   4.1907898017010420E-002
           4   1.0717008110400379     
           5   2.1936657440231495E-006
           6   1.5417245822640431E-002
           7  -8.9674778285687828E-003
           8 -0.22925461307442369     
           9   2.1796959792590129E-006
          10   1.5407406365917571E-002
          11  -8.9663078911596389E-003
          12 -0.22925502748705670     
          13 -0.77570078260936326     
          14  0.77573715786900033     
Sym=    13a
Ene=   0.21300522256888124     
Spin= Alpha
Occup=     0.00000000
           1   1.1321638856731644     
           2   4.5695961157249797E-002
           3  0.38207066787682953     
           4  -1.1843005330893374E-002
           5 -0.38733956184208185     
           6 -0.58806879100152853     
           7  0.23635969650217775     
           8  -4.8777766208568406E-002
           9 -0.38734038616895278     
          10  0.62754324157541064     
          11   9.3681689489401490E-002
          12   3.8525912295018505E-002
          13 -0.22933623682873236     
          14 -0.22931041040664546     
Sym=    14a
Ene=   0.39767722502955405     
Spin= Alpha
Occup=     0.00000000
           1  -7.4171426228087527E-007
           2   1.1750150952429042     
           3 -0.13791429345266645     
           4   8.4388101631280965E-002
           5  0.53945916602342348     
           6  0.46857555238136134     
           7 -0.44009117616772558     
           8   4.8703768922691619E-002
           9 -0.53945829364652331     
          10  0.55941457531081007     
          11  0.31943369198216731     
          12   2.5125180053932741E-002
          13  -9.9726480105700550E-008
          14  -1.1464358838457378E-007
