 Entering Gaussian System
 *********************************************
 Gaussian 98:
 frequency output generated by the xtb code
 *********************************************
                         Standard orientation:
 --------------------------------------------------------------------
  Center     Atomic     Atomic              Coordinates (Angstroms)
  Number     Number      Type              X           Y           Z
 --------------------------------------------------------------------
    1          6             0        0.005605    0.046867   -0.001457
    2          7             0       -1.114512    0.754160   -0.104408
    3          7             0        1.261555    0.475276    0.066238
    4          1             0       -0.135406   -0.603797    0.898618
    5          1             0       -0.017241   -0.672505   -0.858990
 --------------------------------------------------------------------
     1 basis functions        1 primitive gaussians
     1 alpha electrons        1 beta electrons

 Harmonic frequencies (cm**-1), IR intensities (KM/Mole),
 Raman scattering activities (A**4/amu), Raman depolarization ratios,
 reduced masses (AMU), force constants (mDyne/A) and normal coordinates:
                      1                      2                      3
                        a                      a                      a 
 Frequencies --  -406.2884               522.3021               687.7394
 Red. masses --     6.9171                12.8319                 1.4944
 Frc consts  --     0.0000                 0.0000                 0.0000
 IR Inten    --     0.3792                 0.4487                 0.0012
 Raman Activ --     0.0000                 0.0000                 0.0000
 Depolar     --     0.0000                 0.0000                 0.0000
 Atom AN      X      Y      Z        X      Y      Z        X      Y      Z
   1   6     0.04  -0.02  -0.63    -0.07  -0.59   0.02    -0.00  -0.00   0.00
   2   7    -0.02   0.01   0.24     0.49   0.26   0.02    -0.01   0.01   0.14
   3   7    -0.02   0.01   0.24    -0.41   0.36  -0.04     0.01  -0.01  -0.14
   4   1     0.04   0.47   0.15    -0.02  -0.13   0.01    -0.69   0.08  -0.05
   5   1    -0.07  -0.45   0.18    -0.02  -0.13  -0.00     0.69  -0.08   0.05
                      4                      5                      6
                        a                      a                      a 
 Frequencies --   823.7557               973.0309              1145.3792
 Red. masses --     3.2888                 1.7493                13.2155
 Frc consts  --     0.0000                 0.0000                 0.0000
 IR Inten    --     0.2777                 0.3454                 0.3610
 Raman Activ --     0.0000                 0.0000                 0.0000
 Depolar     --     0.0000                 0.0000                 0.0000
 Atom AN      X      Y      Z        X      Y      Z        X      Y      Z
   1   6     0.43  -0.05   0.03     0.03   0.25  -0.01     0.06   0.50  -0.02
   2   7    -0.04  -0.08   0.00     0.01   0.02  -0.00     0.51  -0.32   0.05
   3   7    -0.02   0.09  -0.00    -0.01   0.02  -0.00    -0.57  -0.20  -0.03
   4   1    -0.63   0.07  -0.04    -0.03  -0.54  -0.42     0.01   0.10   0.02
   5   1    -0.62   0.07  -0.04    -0.09  -0.51   0.45     0.01   0.10  -0.02
                      7                      8                      9
                        a                      a                      a 
 Frequencies --  1399.2821              2580.8601              2637.5676
 Red. masses --    11.6110                 2.1008                 1.4302
 Frc consts  --     0.0000                 0.0000                 0.0000
 IR Inten    --     0.2807                 0.1332                 0.1513
 Raman Activ --     0.0000                 0.0000                 0.0000
 Depolar     --     0.0000                 0.0000                 0.0000
 Atom AN      X      Y      Z        X      Y      Z        X      Y      Z
   1   6     0.70  -0.08   0.05     0.02  -0.01  -0.31    -0.02  -0.19   0.01
   2   7    -0.36   0.26  -0.03    -0.00   0.00   0.00     0.02  -0.02   0.00
   3   7    -0.41  -0.17  -0.02    -0.00   0.00   0.00    -0.02  -0.02  -0.00
   4   1     0.23  -0.03   0.02    -0.08  -0.39   0.54     0.09   0.39  -0.57
   5   1     0.23  -0.03   0.02     0.01   0.43   0.52     0.01   0.43   0.54
