      -----------------------------------------------------------      
     |                   =====================                   |     
     |                           x T B                           |     
     |                   =====================                   |     
     |                         S. Grimme                         |     
     |          Mulliken Center for Theoretical Chemistry        |     
     |                    University of Bonn                     |     
      -----------------------------------------------------------      

   * xtb version 6.2.2 (9d81278992624c895f80dd42a50cac0aa55982e2) compiled by '@Darwin' on 04/03/2020

   xtb is free software: you can redistribute it and/or modify it under
   the terms of the GNU Lesser General Public License as published by
   the Free Software Foundation, either version 3 of the License, or
   (at your option) any later version.
   
   xtb is distributed in the hope that it will be useful,
   but WITHOUT ANY WARRANTY; without even the implied warranty of
   MERCHANTABILITY or FITNESS FOR A PARTICULAR PURPOSE.  See the
   GNU Lesser General Public License for more details.
   
   Cite this work as:
   * S. Grimme, C. Bannwarth, P. Shushkov, J. Chem. Theory Comput., 2017,
     13, 1989-2009. DOI: 10.1021/acs.jctc.7b00118
   * C. Bannwarth, S. Ehlert and S. Grimme., J. Chem. Theory Comput., 2019,
     15, 1652-1671. DOI: 10.1021/acs.jctc.8b01176
   * P. Pracht, E. Caldeweyher, S. Ehlert, S. Grimme, ChemRxiv, 2019, preprint.
     DOI: 10.26434/chemrxiv.8326202.v1
   
   for DFT-D4:
   * E. Caldeweyher, C. Bannwarth and S. Grimme, J. Chem. Phys., 2017,
     147, 034112. DOI: 10.1063/1.4993215
   * E. Caldeweyher, S. Ehlert, A. Hansen, H. Neugebauer, S. Spicher,
     C. Bannwarth and S. Grimme, J. Chem. Phys., 2019, 150, 154122.
     DOI: 10.1063/1.5090222
   
   for sTDA-xTB:
   * S. Grimme and C. Bannwarth, J. Chem. Phys., 2016, 145, 054103.
     DOI: 10.1063/1.4959605
   
   in the mass-spec context:
   * V. Asgeirsson, C. Bauer and S. Grimme, Chem. Sci., 2017, 8, 4879.
     DOI: 10.1039/c7sc00601b
   
   for metadynamics refer to:
   * S. Grimme, J. Chem. Theory Comput., 2019, 155, 2847-2862
     DOI: 10.1021/acs.jctc.9b00143
   
   with help from (in alphabetical order)
   C. Bannwarth, F. Bohle, G. Brandenburg, E. Caldeweyher, M. Checinski,
   S. Dohm, S. Ehlert, S. Ehrlich, F. März, H. Neugebauer, J. Pisarek,
   P. Pracht, P. Shushkov, and S. Spicher.
   
 * started run on 2020/05/12 at 11:45:22.070     

           -------------------------------------------------
          |                Calculation Setup                |
           -------------------------------------------------

          program call               : xtb --input H2C1N2_6_S_2.input H2C1N2_6_S_2.xyz --ohess --molden --namespace H2C1N2_6_S_2 output.out
          calculation namespace      : H2C1N2_6_S_2
          coordinate file            : H2C1N2_6_S_2.xyz
          number of atoms            :                     5
          number of electrons        :                    16
          charge                     :                     0
          spin                       :                   1.0
          first test random number   :      0.70702162073747

   ID    Z sym.   atoms
    1    6 C      1
    2    7 N      2, 3
    3    1 H      4, 5

           -------------------------------------------------
          |                 G F N 2 - x T B                 |
           -------------------------------------------------

        Reference                      10.1021/acs.jctc.8b01176
      * Hamiltonian:
        H0-scaling (s, p, d)           1.850000    2.230000    2.230000
        zeta-weighting                 0.500000
      * Dispersion:
        s8                             2.700000
        a1                             0.520000
        a2                             5.000000
        s9                             5.000000
      * Repulsion:
        kExp                           1.500000    1.000000
        rExp                           1.000000
      * Coulomb:
        alpha                          2.000000
        third order                    shell-resolved
        anisotropic                    true
        a3                             3.000000
        a5                             4.000000
        cn-shift                       1.200000
        cn-exp                         4.000000
        max-rad                        5.000000


          ...................................................
          :                      SETUP                      :
          :.................................................:
          :  # basis functions                  14          :
          :  # atomic orbitals                  14          :
          :  # shells                            8          :
          :  # electrons                        16          :
          :  max. iterations                   250          :
          :  Hamiltonian                  GFN2-xTB          :
          :  restarted?                      false          :
          :  GBSA solvation                  false          :
          :  PC potential                    false          :
          :  electronic temp.          300.0000000     K    :
          :  accuracy                    1.0000000          :
          :  -> integral cutoff          0.2500000E+02      :
          :  -> integral neglect         0.1000000E-07      :
          :  -> SCF convergence          0.1000000E-05 Eh   :
          :  -> wf. convergence          0.1000000E-03 e    :
          :  Broyden damping             0.4000000          :
          ...................................................

 iter      E             dE          RMSdq      gap      omega  full diag
   1     -8.6786938 -0.867869E+01  0.471E+00    0.02       0.0  T
   2     -8.7056468 -0.269530E-01  0.234E+00    0.25       1.0  T
   3     -8.7126649 -0.701815E-02  0.137E+00    0.09       1.0  T
   4     -8.7138522 -0.118729E-02  0.226E-01    0.11       1.0  T
   5     -8.7138748 -0.225924E-04  0.105E-01    0.12       1.0  T
   6     -8.7125643  0.131051E-02  0.494E-01    0.11       1.0  T
   7     -8.7138355 -0.127122E-02  0.113E-01    0.11       1.0  T
   8     -8.7138825 -0.469948E-04  0.198E-02    0.12       2.3  T
   9     -8.7138828 -0.245327E-06  0.632E-03    0.12       7.1  T
  10     -8.7138828 -0.185103E-07  0.283E-03    0.12      15.8  T
  11     -8.7138828 -0.105826E-07  0.102E-03    0.12      43.7  T
  12     -8.7138828 -0.101707E-08  0.152E-04    0.12     294.9  T
  13     -8.7138828 -0.250537E-10  0.851E-05    0.12     525.7  T

   *** convergence criteria satisfied after 13 iterations ***

         #    Occupation            Energy/Eh            Energy/eV
      -------------------------------------------------------------
         1        2.0000           -0.6756412             -18.3851
       ...           ...                  ...                  ...
         3        2.0000           -0.5926501             -16.1268
         4        2.0000           -0.5640617             -15.3489
         5        2.0000           -0.4884627             -13.2917
         6        2.0000           -0.4659670             -12.6796
         7        1.8837           -0.4141031             -11.2683
         8        1.1163           -0.4102507             -11.1635
         9        0.9049           -0.3950758             -10.7506 (HOMO)
        10        0.0951           -0.3907954             -10.6341 (LUMO)
        11                          0.0611803               1.6648
        12                          0.0702558               1.9118
        13                          0.1021161               2.7787
        14                          0.1438080               3.9132
      -------------------------------------------------------------
                  HL-Gap            0.0042804 Eh            0.1165 eV
             Fermi-level           -0.4025562 Eh          -10.9541 eV

 transition dipole moment (au) for excitation:           8           9
     X       Y       Z   
  -1.4812   0.1738  -0.1064  total (au/Debye):    1.495   3.800
 dE (eV)             :    0.413
 oscillator strength :  0.31984E-01

 SCC (total)                   0 d,  0 h,  0 min,  0.004 sec
 SCC setup                      ...        0 min,  0.000 sec (  2.346%)
 Dispersion                     ...        0 min,  0.000 sec (  0.362%)
 integral evaluation            ...        0 min,  0.001 sec ( 21.555%)
 zeroth order Hamiltonian       ...        0 min,  0.000 sec (  0.442%)
 iterations                     ...        0 min,  0.001 sec ( 34.359%)
 molecular gradient             ...        0 min,  0.001 sec ( 21.614%)
 printout                       ...        0 min,  0.001 sec ( 19.018%)

         :::::::::::::::::::::::::::::::::::::::::::::::::::::
         ::                     SUMMARY                     ::
         :::::::::::::::::::::::::::::::::::::::::::::::::::::
         :: total energy              -8.662481643743 Eh    ::
         :: gradient norm              0.131376385131 Eh/a0 ::
         :: HOMO-LUMO gap              0.116475728948 eV    ::
         ::.................................................::
         :: SCC energy                -8.713882795453 Eh    ::
         :: -> isotropic ES            0.019460994206 Eh    ::
         :: -> anisotropic ES          0.000286630243 Eh    ::
         :: -> anisotropic XC          0.012991371522 Eh    ::
         :: -> dispersion             -0.001279810084 Eh    ::
         :: repulsion energy           0.051401108004 Eh    ::
         :: add. restraining           0.000000000000 Eh    ::
         :::::::::::::::::::::::::::::::::::::::::::::::::::::

      ----------------------------------------------------------- 
     |                   =====================                   |
     |                        A N C O P T                        |
     |                   =====================                   |
     |               Approximate Normal Coordinate               |
     |                Rational Function Optimizer                |
      ----------------------------------------------------------- 

          ...................................................
          :                      SETUP                      :
          :.................................................:
          :   optimization level            normal          :
          :   max. optcycles                   200          :
          :   ANC micro-cycles                  20          :
          :   degrees of freedom                 9          :
          :.................................................:
          :   RF solver                   davidson          :
          :   write xtbopt.log                true          :
          :   linear?                        false          :
          :   energy convergence         0.5000000E-05 Eh   :
          :   grad. convergence          0.1000000E-02 Eh/α :
          :   maximium RF displ.         1.0000000          :
          :   Hlow (freq-cutoff)         0.1000000E-01      :
          :   Hmax (freq-cutoff)         5.0000000          :
          :   S6 in model hess.         20.0000000          :
          ...................................................

generating ANC from model Hessian ...
Using Lindh-Hessian (1995)
 Shifting diagonal of input Hessian by    0.0000000000000000     
 Lowest  eigenvalues of input Hessian
   -0.000000   -0.000000   -0.000000    0.000000    0.000000    0.000000
    0.089922    0.091338    0.104229    0.118822    0.134108    0.455105
    1.025700    1.148128    1.255378
 Highest eigenvalues
    0.118822    0.134108    0.455105    1.025700    1.148128    1.255378


........................................................................
.............................. CYCLE    1 ..............................
........................................................................
   1     -8.7138828 -0.871388E+01  0.698E-06    0.12       0.0  T
   2     -8.7138828  0.611244E-11  0.336E-05    0.12    1329.4  T
   3     -8.7138828 -0.581935E-11  0.883E-06    0.12    5063.9  T
     SCC iter.                  ...        0 min,  0.000 sec
     gradient                   ...        0 min,  0.001 sec
 * total energy  :    -8.6624816 Eh     change        0.1667004E-09 Eh
   gradient norm :     0.1313763 Eh/α   predicted     0.0000000E+00 (-100.00%)
   displ. norm   :     0.2435675 α      lambda       -0.2321131E-01
   maximum displ.:     0.1603880 α      in ANC's #1, #6, #8, ...

........................................................................
.............................. CYCLE    2 ..............................
........................................................................
   1     -8.7475714 -0.874757E+01  0.120E+00    0.53       0.0  T
   2     -8.7489058 -0.133446E-02  0.584E-01    0.47       1.0  T
   3     -8.7490212 -0.115384E-03  0.267E-01    0.48       1.0  T
   4     -8.7490781 -0.568428E-04  0.541E-02    0.48       1.0  T
   5     -8.7490706  0.750045E-05  0.409E-02    0.48       1.1  T
   6     -8.7490718 -0.121619E-05  0.379E-02    0.48       1.2  T
   7     -8.7490793 -0.749543E-05  0.238E-03    0.48      18.8  T
   8     -8.7490793 -0.184341E-09  0.608E-04    0.48      73.6  T
   9     -8.7490793 -0.506311E-09  0.549E-05    0.48     815.0  T
     SCC iter.                  ...        0 min,  0.001 sec
     gradient                   ...        0 min,  0.001 sec
 * total energy  :    -8.6813918 Eh     change       -0.1891020E-01 Eh
   gradient norm :     0.0772995 Eh/α   predicted    -0.1229416E-01 ( -34.99%)
   displ. norm   :     0.3122223 α      lambda       -0.1675729E-01
   maximum displ.:     0.2169120 α      in ANC's #1, #8, #4, ...

........................................................................
.............................. CYCLE    3 ..............................
........................................................................
   1     -8.7754688 -0.877547E+01  0.134E+00    0.66       0.0  T
   2     -8.7765699 -0.110114E-02  0.689E-01    0.64       1.0  T
   3     -8.7766323 -0.623389E-04  0.268E-01    0.64       1.0  T
   4     -8.7766761 -0.438046E-04  0.432E-02    0.63       1.0  T
   5     -8.7766764 -0.312165E-06  0.111E-02    0.63       4.0  T
   6     -8.7766710  0.537159E-05  0.319E-02    0.63       1.4  T
   7     -8.7766767 -0.572572E-05  0.221E-03    0.63      20.3  T
   8     -8.7766767 -0.501315E-08  0.238E-04    0.63     187.7  T
   9     -8.7766767 -0.564881E-10  0.480E-05    0.63     931.1  T
     SCC iter.                  ...        0 min,  0.001 sec
     gradient                   ...        0 min,  0.001 sec
 * total energy  :    -8.6880629 Eh     change       -0.6671014E-02 Eh
   gradient norm :     0.0180803 Eh/α   predicted    -0.9195425E-02 (  37.84%)
   displ. norm   :     0.0497335 α      lambda       -0.7940797E-03
   maximum displ.:     0.0387710 α      in ANC's #6, #1, #8, ...

........................................................................
.............................. CYCLE    4 ..............................
........................................................................
   1     -8.7703265 -0.877033E+01  0.198E-01    0.61       0.0  T
   2     -8.7703670 -0.404577E-04  0.910E-02    0.62       1.0  T
   3     -8.7703697 -0.274115E-05  0.418E-02    0.62       1.1  T
   4     -8.7703705 -0.824134E-06  0.813E-03    0.62       5.5  T
   5     -8.7703705  0.556960E-07  0.427E-03    0.62      10.5  T
   6     -8.7703704  0.606622E-07  0.530E-03    0.62       8.4  T
   7     -8.7703706 -0.149597E-06  0.365E-04    0.62     122.6  T
   8     -8.7703706 -0.344151E-10  0.287E-05    0.62    1557.9  T
     SCC iter.                  ...        0 min,  0.001 sec
     gradient                   ...        0 min,  0.001 sec
 * total energy  :    -8.6884438 Eh     change       -0.3809651E-03 Eh
   gradient norm :     0.0062600 Eh/α   predicted    -0.3980193E-03 (   4.48%)
   displ. norm   :     0.0296857 α      lambda       -0.1039355E-03
   maximum displ.:     0.0241490 α      in ANC's #1, #4, #6, ...

........................................................................
.............................. CYCLE    5 ..............................
........................................................................
   1     -8.7707461 -0.877075E+01  0.115E-01    0.63       0.0  T
   2     -8.7707502 -0.406316E-05  0.601E-02    0.63       1.0  T
   3     -8.7707503 -0.695076E-07  0.187E-02    0.63       2.4  T
   4     -8.7707506 -0.302954E-06  0.251E-03    0.63      17.8  T
   5     -8.7707506 -0.354538E-08  0.756E-04    0.63      59.2  T
   6     -8.7707505  0.417682E-07  0.274E-03    0.63      16.3  T
   7     -8.7707506 -0.425275E-07  0.897E-05    0.63     498.5  T
     SCC iter.                  ...        0 min,  0.001 sec
     gradient                   ...        0 min,  0.001 sec
 * total energy  :    -8.6884879 Eh     change       -0.4409487E-04 Eh
   gradient norm :     0.0017106 Eh/α   predicted    -0.5201456E-04 (  17.96%)
   displ. norm   :     0.0118644 α      lambda       -0.1119741E-04
   maximum displ.:     0.0109823 α      in ANC's #4, #8, #1, ...

........................................................................
.............................. CYCLE    6 ..............................
........................................................................
   1     -8.7707191 -0.877072E+01  0.451E-02    0.63       0.0  T
   2     -8.7707194 -0.324456E-06  0.246E-02    0.63       1.8  T
   3     -8.7707194 -0.361397E-07  0.394E-03    0.63      11.3  T
   4     -8.7707194  0.580489E-07  0.397E-03    0.63      11.3  T
   5     -8.7707193  0.114200E-06  0.592E-03    0.63       7.6  T
   6     -8.7707195 -0.194828E-06  0.290E-04    0.63     154.4  T
   7     -8.7707195 -0.162199E-10  0.564E-05    0.63     793.3  T
     SCC iter.                  ...        0 min,  0.001 sec
     gradient                   ...        0 min,  0.001 sec
 * total energy  :    -8.6884956 Eh     change       -0.7721392E-05 Eh
   gradient norm :     0.0002922 Eh/α   predicted    -0.5598436E-05 ( -27.49%)
   displ. norm   :     0.0045510 α      lambda       -0.8117163E-06
   maximum displ.:     0.0045016 α      in ANC's #1, #6, #4, ...

........................................................................
.............................. CYCLE    7 ..............................
........................................................................
   1     -8.7707064 -0.877071E+01  0.125E-02    0.63       0.0  T
   2     -8.7707064 -0.144795E-07  0.704E-03    0.63       6.4  T
   3     -8.7707064  0.302505E-09  0.108E-03    0.63      41.3  T
   4     -8.7707064  0.849785E-08  0.139E-03    0.63      32.3  T
   5     -8.7707064 -0.788308E-08  0.726E-04    0.63      61.6  T
   6     -8.7707064 -0.276851E-08  0.492E-05    0.63     909.9  T
     SCC iter.                  ...        0 min,  0.000 sec
     gradient                   ...        0 min,  0.001 sec
 * total energy  :    -8.6884962 Eh     change       -0.5775199E-06 Eh
   gradient norm :     0.0001695 Eh/α   predicted    -0.4052735E-06 ( -29.83%)
   displ. norm   :     0.0006123 α      lambda       -0.4989987E-07
   maximum displ.:     0.0004001 α      in ANC's #4, #6, #8, ...

   *** GEOMETRY OPTIMIZATION CONVERGED AFTER 7 ITERATIONS ***

------------------------------------------------------------------------
 total energy gain   :        -0.0260146 Eh      -16.3244 kcal/mol
 total RMSD          :         0.2205419 a0        0.1167 Å
 total power (kW/mol):        -9.7573212 (step)-4158.0962 (real)
------------------------------------------------------------------------

 ANCopt (total)                0 d,  0 h,  0 min,  0.016 sec
 optimizer setup                ...        0 min,  0.000 sec (  0.450%)
 model hessian                  ...        0 min,  0.000 sec (  0.640%)
 ANC generation                 ...        0 min,  0.000 sec (  0.354%)
 coordinate transformation      ...        0 min,  0.000 sec (  0.110%)
 single point calculation       ...        0 min,  0.016 sec ( 94.361%)
 optimization log               ...        0 min,  0.000 sec (  1.118%)
 hessian update                 ...        0 min,  0.000 sec (  0.099%)
 rational function              ...        0 min,  0.000 sec (  1.149%)

================
 final structure:
================
5
 xtb: 6.2.2 (9d81278992624c895f80dd42a50cac0aa55982e2)
C         0.00560510354199    0.04686654140686   -0.00145676745826
N        -1.11451582121210    0.75415389182786   -0.10441080178991
N         1.26155189703438    0.47528267515970    0.06624307728538
H        -0.13540620132442   -0.60379914317631    0.89861617277284
H        -0.01723497803984   -0.67250396521811   -0.85899168081005

 Bond Distances (Angstroems)
 ---------------------------
C1-N2=1.3287         C1-N3=1.3287         C1-H4=1.1195         C1-H5=1.1195         N2-C1=1.3287         N3-C1=1.3287         
H4-C1=1.1195         H5-C1=1.1195         
 C  H  Rav=1.1195 sigma=0.0000  Rmin=1.1195  Rmax=1.1195     2
 N  C  Rav=1.3287 sigma=0.0000  Rmin=1.3287  Rmax=1.3287     2

 selected bond angles (degree)
 --------------------
N3-C1-N2=128.99                H4-C1-N2=105.40                H4-C1-N3=105.40                H5-C1-N2=105.40                
H5-C1-N3=105.40                H5-C1-H4=103.87                

 selected dihedral angles (degree)
 ---------------------------------

           -------------------------------------------------
          |                Final Singlepoint                |
           -------------------------------------------------

          ...................................................
          :                      SETUP                      :
          :.................................................:
          :  # basis functions                  14          :
          :  # atomic orbitals                  14          :
          :  # shells                            8          :
          :  # electrons                        16          :
          :  max. iterations                   250          :
          :  Hamiltonian                  GFN2-xTB          :
          :  restarted?                      false          :
          :  GBSA solvation                  false          :
          :  PC potential                    false          :
          :  electronic temp.          300.0000000     K    :
          :  accuracy                    1.0000000          :
          :  -> integral cutoff          0.2500000E+02      :
          :  -> integral neglect         0.1000000E-07      :
          :  -> SCF convergence          0.1000000E-05 Eh   :
          :  -> wf. convergence          0.1000000E-03 e    :
          :  Broyden damping             0.4000000          :
          ...................................................

 iter      E             dE          RMSdq      gap      omega  full diag
   1     -8.7707064 -0.877071E+01  0.817E-06    0.63       0.0  T
   2     -8.7707064 -0.213163E-13  0.423E-06    0.63   10576.2  T
   3     -8.7707064  0.419220E-12  0.882E-06    0.63    5071.5  T

   *** convergence criteria satisfied after 3 iterations ***

         #    Occupation            Energy/Eh            Energy/eV
      -------------------------------------------------------------
         1        2.0000           -0.6962046             -18.9447
       ...           ...                  ...                  ...
         3        2.0000           -0.5960148             -16.2184
         4        2.0000           -0.5781742             -15.7329
         5        2.0000           -0.4877036             -13.2711
         6        2.0000           -0.4554633             -12.3938
         7        1.9945           -0.4089576             -11.1283
         8        1.0055           -0.3990884             -10.8597
         9        1.0000           -0.3865237             -10.5178 (HOMO)
        10        0.0000           -0.3632587              -9.8848 (LUMO)
        11                          0.0914366               2.4881
        12                          0.1217301               3.3124
        13                          0.2130052               5.7962
        14                          0.3976772              10.8213
      -------------------------------------------------------------
                  HL-Gap            0.0232650 Eh            0.6331 eV
             Fermi-level           -0.3894571 Eh          -10.5977 eV

 transition dipole moment (au) for excitation:           8           9
     X       Y       Z   
  -1.3982   0.1641  -0.1004  total (au/Debye):    1.411   3.587
 dE (eV)             :    0.342
 oscillator strength :  0.23598E-01

 SCC (total)                   0 d,  0 h,  0 min,  0.003 sec
 SCC setup                      ...        0 min,  0.000 sec (  2.240%)
 Dispersion                     ...        0 min,  0.000 sec (  0.356%)
 integral evaluation            ...        0 min,  0.001 sec ( 26.869%)
 zeroth order Hamiltonian       ...        0 min,  0.000 sec (  0.399%)
 iterations                     ...        0 min,  0.001 sec ( 19.428%)
 molecular gradient             ...        0 min,  0.001 sec ( 27.708%)
 printout                       ...        0 min,  0.001 sec ( 22.601%)

         :::::::::::::::::::::::::::::::::::::::::::::::::::::
         ::                     SUMMARY                     ::
         :::::::::::::::::::::::::::::::::::::::::::::::::::::
         :: total energy              -8.688496214952 Eh    ::
         :: gradient norm              0.000169588584 Eh/a0 ::
         :: HOMO-LUMO gap              0.633073290852 eV    ::
         ::.................................................::
         :: SCC energy                -8.770706435189 Eh    ::
         :: -> isotropic ES            0.027187237187 Eh    ::
         :: -> anisotropic ES          0.001874826885 Eh    ::
         :: -> anisotropic XC          0.011577730379 Eh    ::
         :: -> dispersion             -0.001268676995 Eh    ::
         :: repulsion energy           0.082210191256 Eh    ::
         :: add. restraining           0.000000000000 Eh    ::
         :::::::::::::::::::::::::::::::::::::::::::::::::::::

           ------------------------------------------------- 
          |                Numerical Hessian                |
           ------------------------------------------------- 
step length          :   0.00500
SCC accuracy         :   0.30000
Hessian scale factor :   1.00000
frozen atoms in %    :   0.00000    0
RMS gradient         :   0.00017
estimated CPU  time      0.00 min
estimated wall time      0.00 min

writing file <hessian>.

 projected vibrational frequencies (cm-1)
eigval :       -0.00    -0.00    -0.00     0.00     0.00     0.00
eigval :     -406.29   522.30   687.74   823.76   973.03  1145.38
eigval :     1399.28  2580.86  2637.57
           -------------------------------------------------
          |                Property Printout                |
           -------------------------------------------------

    * Orbital Energies and Occupations

         #    Occupation            Energy/Eh            Energy/eV
      -------------------------------------------------------------
         1        2.0000           -0.6962047             -18.9447
         2        2.0000           -0.6440340             -17.5251
         3        2.0000           -0.5960148             -16.2184
         4        2.0000           -0.5781742             -15.7329
         5        2.0000           -0.4877036             -13.2711
         6        2.0000           -0.4554633             -12.3938
         7        1.9945           -0.4089576             -11.1283
         8        1.0055           -0.3990884             -10.8597
         9        1.0000           -0.3865237             -10.5178 (HOMO)
        10        0.0000           -0.3632587              -9.8848 (LUMO)
        11                          0.0914366               2.4881
        12                          0.1217301               3.3124
        13                          0.2130052               5.7962
        14                          0.3976772              10.8213
      -------------------------------------------------------------
                  HL-Gap            0.0232650 Eh            0.6331 eV
             Fermi-level           -0.3894571 Eh          -10.5977 eV

     #   Z        covCN         q      C6AA      α(0)
     1   6 C      3.660     0.134    18.658     6.198
     2   7 N      0.912    -0.271    26.991     7.513
     3   7 N      0.912    -0.271    26.991     7.513
     4   1 H      0.920     0.203     1.082     1.627
Molecule has the following symmetry elements: (C2) 2*(sigma) 
It seems to be the C2v point group
     5   1 H      0.920     0.203     1.082     1.627

 Mol. C6AA /au·bohr⁶  :        281.490947
 Mol. C8AA /au·bohr⁸  :       6275.776522
 Mol. α(0) /au        :         24.477539


Wiberg/Mayer (AO) data.
largest (>0.10) Wiberg bond orders for each atom
          total WBO             WBO to atom ...
     1  C   3.961        N    2 1.252    N    3 1.252    H    5 0.728    H    4 0.728
     2  N   2.127        C    1 1.252    N    3 0.741
     3  N   2.127        C    1 1.252    N    2 0.741
     4  H   0.892        C    1 0.728
     5  H   0.892        C    1 0.728

MOs/occ written to file <molden.input>


molecular dipole:
                 x           y           z       tot (Debye)
 q only:       -0.132      -1.107       0.034
   full:       -0.172      -1.435       0.045       3.675
molecular quadrupole (traceless):
                xx          xy          yy          xz          yz          zz
 q only:       -3.192       0.451       0.635      -0.406       0.107       2.557
  q+dip:       -5.493       0.792       1.221      -0.691       0.175       4.272
   full:       -5.895       0.867       1.444      -0.733       0.178       4.451

           -------------------------------------------------
          |                Geometry Summary                 |
           -------------------------------------------------

      molecular mass/u    :       42.0400238
   center of mass at/Å    :        0.0469325       0.3924071      -0.0121836
  moments of inertia/u·Å² :        0.6601508E+01   0.4185368E+02   0.4532264E+02
rotational constants/cm⁻¹ :        0.2553603E+01   0.4027754E+00   0.3719473E+00

 * 4 selected distances

     #   Z        #   Z                                     value/Å
     1   6 C      2   7 N                                 1.3287309
     1   6 C      3   7 N                                 1.3287310 (max)
     1   6 C      4   1 H                                 1.1195451 (min)
     1   6 C      5   1 H                                 1.1195453

 * 2 distinct bonds (by element types)

   Z      Z             #   av. dist./Å        max./Å        min./Å
   1 H    6 C           2     1.1195452     1.1195453     1.1195451
   6 C    7 N           2     1.3287309     1.3287310     1.3287309

           -------------------------------------------------
          |               Frequency Printout                |
           -------------------------------------------------
 projected vibrational frequencies (cm-1)
eigval :       -0.00    -0.00    -0.00     0.00     0.00     0.00
eigval :     -406.29   522.30   687.74   823.76   973.03  1145.38
eigval :     1399.28  2580.86  2637.57
 reduced masses (amu)
   1:  6.83   2: 13.01   3: 13.35   4: 12.71   5: 13.27   6: 12.31   7:  6.92   8: 12.83
   9:  1.49  10:  3.29  11:  1.75  12: 13.22  13: 11.61  14:  2.10  15:  1.43
 IR intensities (amu)
   1:  0.15   2:  0.10   3:  0.20   4:  0.27   5:  0.25   6:  0.13   7:  0.38   8:  0.45
   9:  0.00  10:  0.28  11:  0.35  12:  0.36  13:  0.28  14:  0.13  15:  0.15
 Raman intensities (amu)
   1:  0.00   2:  0.00   3:  0.00   4:  0.00   5:  0.00   6:  0.00   7:  0.00   8:  0.00
   9:  0.00  10:  0.00  11:  0.00  12:  0.00  13:  0.00  14:  0.00  15:  0.00
 output can be read by thermo (or use thermo option).
 writing <g98.out> molden fake output.
 recommended (thermochemical) frequency scaling factor: 1.0
           -------------------------------------------------
          |             Thermodynamic Functions             |
           -------------------------------------------------

c2v symmetry found (for desy threshold:  0.10E+00) used in thermo

          ...................................................
          :                      SETUP                      :
          :.................................................:
          :  # frequencies                           8      :
          :  # imaginary freq.                       1      :
          :  linear?                             false      :
          :  only rotor calc.                    false      :
          :  symmetry                              c2v      :
          :  rotational number                       2      :
          :  scaling factor                  1.0000000      :
          :  rotor cutoff                   50.0000000 cm⁻¹ :
          :  imag. cutoff                  -20.0000000 cm⁻¹ :
          :.................................................:

    mode    ω/cm⁻¹     T·S(HO)/kcal·mol⁻¹    T·S(FR)/kcal·mol⁻¹   T·S(vib)
   ------------------------------------------------------------------------
   ------------------------------------------------------------------------

   temp. (K)  partition function   enthalpy   heat capacity  entropy
                                   cal/mol     cal/K/mol   cal/K/mol   J/K/mol
 298.15  VIB   1.17                  292.979      3.425      1.289
         ROT  0.427E+04              888.752      2.981     19.595
         INT  0.499E+04             1181.731      6.406     20.884
         TR   0.264E+27             1481.254      4.968     37.118
         TOT                        2662.9849    11.3743    58.0020   242.6805

   temp. (K)  partition function   enthalpy   heat capacity  entropy
                                   cal/mol     cal/K/mol   cal/K/mol   J/K/mol
 120.00  VIB   1.00                    3.518      0.197      0.034
         ROT  0.109E+04              357.707      2.981     16.882
         INT  0.109E+04              361.224      3.178     16.916
         TR   0.673E+26              596.178      4.968     32.599
         TOT                         957.4025     8.1464    49.5148   207.1698

   temp. (K)  partition function   enthalpy   heat capacity  entropy
                                   cal/mol     cal/K/mol   cal/K/mol   J/K/mol
 100.00  VIB   1.00                    0.933      0.073      0.011
         ROT   830.                  298.089      2.981     16.339
         INT   831.                  299.022      3.054     16.349
         TR   0.512E+26              496.815      4.968     31.693
         TOT                         795.8368     8.0224    48.0427   201.0106

   temp. (K)  partition function   enthalpy   heat capacity  entropy
                                   cal/mol     cal/K/mol   cal/K/mol   J/K/mol
  80.00  VIB   1.00                    0.134      0.016      0.002
         ROT   594.                  238.471      2.981     15.674
         INT   594.                  238.605      2.997     15.675
         TR   0.367E+26              397.452      4.968     30.585
         TOT                         636.0569     7.9651    46.2607   193.5549

   temp. (K)  partition function   enthalpy   heat capacity  entropy
                                   cal/mol     cal/K/mol   cal/K/mol   J/K/mol
  60.00  VIB   1.00                    0.006      0.001      0.000
         ROT   386.                  178.853      2.981     14.816
         INT   386.                  178.859      2.982     14.816
         TR   0.238E+26              298.089      4.968     29.157
         TOT                         476.9480     7.9502    43.9729   183.9824

   temp. (K)  partition function   enthalpy   heat capacity  entropy
                                   cal/mol     cal/K/mol   cal/K/mol   J/K/mol
  40.00  VIB   1.00                    0.000      0.000     -0.000
         ROT   210.                  119.236      2.981     13.607
         INT   210.                  119.236      2.981     13.607
         TR   0.130E+26              198.726      4.968     27.143
         TOT                         317.9616     7.9490    40.7506   170.5006

   temp. (K)  partition function   enthalpy   heat capacity  entropy
                                   cal/mol     cal/K/mol   cal/K/mol   J/K/mol
  20.00  VIB   1.00                    0.000      0.000     -0.000
         ROT   74.3                   59.618      2.981     11.541
         INT   74.3                   59.618      2.981     11.541
         TR   0.458E+25               99.363      4.968     23.701
         TOT                         158.9808     7.9490    35.2424   147.4540

   temp. (K)  partition function   enthalpy   heat capacity  entropy
                                   cal/mol     cal/K/mol   cal/K/mol   J/K/mol
  10.00  VIB   1.00                    0.000      0.000     -0.000
         ROT   26.3                   29.809      2.981      9.475
         INT   26.3                   29.809      2.981      9.475
         TR   0.162E+25               49.681      4.968     20.259
         TOT                          79.4904     7.9490    29.7341   124.4074

       T/K    H(0)-H(T)+PV         H(T)/Eh          T*S/Eh         G(T)/Eh
   ------------------------------------------------------------------------
    298.15    0.424374E-02    0.287794E-01    0.275586E-01    0.122078E-02
    120.00    0.152572E-02    0.260614E-01    0.946882E-02    0.165926E-01
    100.00    0.126825E-02    0.258039E-01    0.765609E-02    0.181478E-01
     80.00    0.101362E-02    0.255493E-01    0.589769E-02    0.196516E-01
     60.00    0.760065E-03    0.252957E-01    0.420451E-02    0.210912E-01
     40.00    0.506704E-03    0.250424E-01    0.259761E-02    0.224448E-01
     20.00    0.253352E-03    0.247890E-01    0.112325E-02    0.236658E-01
     10.00    0.126676E-03    0.246624E-01    0.473843E-03    0.241885E-01 (used)
   ------------------------------------------------------------------------

         :::::::::::::::::::::::::::::::::::::::::::::::::::::
         ::                  THERMODYNAMIC                  ::
         :::::::::::::::::::::::::::::::::::::::::::::::::::::
         :: total free energy          -8.664307705367 Eh   ::
         ::.................................................::
         :: total energy               -8.688496214925 Eh   ::
         :: zero point energy           0.024535676462 Eh   ::
         :: G(RRHO) w/o ZPVE           -0.000347166905 Eh   ::
         :: G(RRHO) contrib.            0.024188509558 Eh   ::
         :::::::::::::::::::::::::::::::::::::::::::::::::::::
imag cut-off (cm-1) :    5.00
 found            1  significant imaginary frequency
 writing imag mode distorted coords to xtbhess.xyz
 for further optimization.

optimized geometry written to: xtbopt.xyz


           -------------------------------------------------
          | TOTAL ENERGY               -8.688496214925 Eh   |
          | TOTAL ENTHALPY             -8.663833862446 Eh   |
          | TOTAL FREE ENERGY          -8.664307705367 Eh   |
          | GRADIENT NORM               0.000169589975 Eh/α |
          | HOMO-LUMO GAP               0.633073411698 eV   |
           -------------------------------------------------

------------------------------------------------------------------------
 * finished run on 2020/05/12 at 11:45:22.180     
------------------------------------------------------------------------
 total:
 * wall-time:     0 d,  0 h,  0 min,  0.110 sec
 *  cpu-time:     0 d,  0 h,  0 min,  0.108 sec
 * ratio c/w:     0.986 speedup
 SCF:
 * wall-time:     0 d,  0 h,  0 min,  0.004 sec
 *  cpu-time:     0 d,  0 h,  0 min,  0.004 sec
 * ratio c/w:     1.000 speedup
 ANC optimizer:
 * wall-time:     0 d,  0 h,  0 min,  0.020 sec
 *  cpu-time:     0 d,  0 h,  0 min,  0.020 sec
 * ratio c/w:     0.999 speedup
 numerical hessian:
 * wall-time:     0 d,  0 h,  0 min,  0.064 sec
 *  cpu-time:     0 d,  0 h,  0 min,  0.063 sec
 * ratio c/w:     0.987 speedup

