[Molden Format]
[Title]
[Atoms] AU
N      1     7  0.43795964074507E-01 -0.19019976951556E+01  0.10159662954847E+00
C      2     6 -0.94988658679477E+00 -0.14100449911200E+00 -0.16333473455872E+01
C      3     6 -0.47885556083902E-01  0.19966624065456E+01 -0.10664699707525E+00
C      4     6 -0.94084765926476E+00  0.34279975038547E-01  0.16442697060469E+01
C      5     6  0.18948238380854E+01  0.12061702412673E-01 -0.58701032103242E-02
[GTO]
           1 0
 s           4   1.0000000000000000     
   63.594024466941008      -0.19234388414721629     
   10.951417231523665      -0.23478107924953728     
  0.87999310257376984       0.37593753901700888     
  0.33538715296521110       0.14982889271862770     
 p           4   1.0000000000000000     
   7.2965040481495080       0.97658666315667420     
   1.8918745450712575       0.90372226730345739     
  0.66694432110824120       0.47404958461536373     
  0.26552202674130870        7.1516067715011844E-002

           2 0
 s           4   1.0000000000000000     
   51.049363095579913      -0.16312063210127389     
   8.7911227406887544      -0.19911024581000730     
  0.70640422258929825       0.31882047753655751     
  0.26922813413411617       0.12706504184240380     
 p           4   1.0000000000000000     
   5.8263656140800002       0.73716451545209605     
   1.5106896018720002       0.68216371614850257     
  0.53256483288000001       0.35783053929253711     
  0.21202323690600003        5.3983030275847881E-002

           3 0
 s           4   1.0000000000000000     
   51.049363095579913      -0.16312063210127389     
   8.7911227406887544      -0.19911024581000730     
  0.70640422258929825       0.31882047753655751     
  0.26922813413411617       0.12706504184240380     
 p           4   1.0000000000000000     
   5.8263656140800002       0.73716451545209605     
   1.5106896018720002       0.68216371614850257     
  0.53256483288000001       0.35783053929253711     
  0.21202323690600003        5.3983030275847881E-002

           4 0
 s           4   1.0000000000000000     
   51.049363095579913      -0.16312063210127389     
   8.7911227406887544      -0.19911024581000730     
  0.70640422258929825       0.31882047753655751     
  0.26922813413411617       0.12706504184240380     
 p           4   1.0000000000000000     
   5.8263656140800002       0.73716451545209605     
   1.5106896018720002       0.68216371614850257     
  0.53256483288000001       0.35783053929253711     
  0.21202323690600003        5.3983030275847881E-002

           5 0
 s           4   1.0000000000000000     
   51.049363095579913      -0.16312063210127389     
   8.7911227406887544      -0.19911024581000730     
  0.70640422258929825       0.31882047753655751     
  0.26922813413411617       0.12706504184240380     
 p           4   1.0000000000000000     
   5.8263656140800002       0.73716451545209605     
   1.5106896018720002       0.68216371614850257     
  0.53256483288000001       0.35783053929253711     
  0.21202323690600003        5.3983030275847881E-002

[MO]
Sym=     1a
Ene=  -0.79415756516245439     
Spin= Alpha
Occup=     2.00000000
           1 -0.29287957444031576     
           2   5.4031798996260231E-003
           3 -0.23342065702761472     
           4   1.2468222921456853E-002
           5 -0.24145296045277834     
           6  -6.5959380668576248E-002
           7   6.5098736642281857E-003
           8 -0.11367082280841566     
           9 -0.20810696741430126     
          10  -3.0861119448877946E-003
          11  0.13055039329558407     
          12  -6.9732069028562750E-003
          13 -0.24145298708114990     
          14  -6.5335140683936421E-002
          15   1.8615419485456416E-002
          16  0.11268923556225187     
          17 -0.24130652494725638     
          18  0.13034810177098627     
          19   1.7079076065455567E-002
          20  -1.2728477365682809E-003
Sym=     2a
Ene=  -0.67609451297490775     
Spin= Alpha
Occup=     2.00000000
           1 -0.50438975314961276     
           2  -6.1197821131167855E-004
           3   4.7694488726908683E-003
           4  -2.5271693789288125E-004
           5   4.3780665054405560E-002
           6  -3.6052347955639842E-003
           7  0.25119803776169430     
           8  -9.0087333083571398E-003
           9  0.44915614951226851     
          10   9.6485953237067162E-004
          11  -5.4367155401171513E-002
          12   2.9052192587103766E-003
          13   4.3782019842225725E-002
          14  -3.6291547888100068E-003
          15  0.25072707927768267     
          16  -1.7813704614152319E-002
          17   4.2796299600698660E-002
          18  -1.0752639695494724E-002
          19  0.25051317937666523     
          20  -1.3367194303542780E-002
Sym=     3a
Ene=  -0.66463198527862422     
Spin= Alpha
Occup=     2.00000000
           1   7.6109761779394287E-007
           2   1.2794858524169716E-003
           3   2.4280800979335142E-002
           4  0.45401300468492650     
           5 -0.40237035988203473     
           6 -0.10496610145724460     
           7   6.3003894870166485E-002
           8   5.8305608783573964E-002
           9  -6.9045341332680711E-007
          10   6.3075397533472939E-004
          11   1.1970413703332301E-002
          12  0.22382675704607624     
          13  0.40234221034458434     
          14  0.10532551688453268     
          15  -5.6452286661582203E-002
          16   6.4126669552043908E-002
          17   2.7936357875803930E-005
          18   6.6401549238783884E-004
          19   1.2868278423438656E-002
          20  0.24071147377361651     
Sym=     4a
Ene=  -0.66457134267899287     
Spin= Alpha
Occup=     2.00000000
           1   8.1723320575165681E-004
           2 -0.45462248313631737     
           3  -1.0466959279309967E-002
           4   1.8409565233612189E-003
           5  0.23194756427185645     
           6 -0.18036453740530395     
           7  -3.4818347629570701E-002
           8  0.10626902630361783     
           9  -3.9356722897559792E-004
          10 -0.22411318590508447     
          11  -5.2602400606718610E-003
          12   9.1292378486091633E-004
          13  0.23199612294206445     
          14 -0.18092334920374062     
          15  -4.5907339958052067E-002
          16 -0.10094812613376275     
          17 -0.46451646809189506     
          18  -3.0535897231508272E-003
          19   7.1329154921028495E-002
          20  -3.7916361193802220E-003
Sym=     5a
Ene=  -0.56001633537944773     
Spin= Alpha
Occup=     2.00000000
           1   5.4381287765599981E-007
           2  -1.1883889670129492E-003
           3  -2.3461090748607853E-002
           4 -0.43869628683947226     
           5 -0.13672167891069179     
           6   1.2981832179002367E-002
           7 -0.37096190851005578     
           8   8.0553367744638907E-002
           9   3.5396860017151109E-007
          10   1.2829895030284915E-003
          11   2.5327718820873039E-002
          12  0.47360694144377635     
          13  0.13672942202377394     
          14  -1.2653548973778118E-002
          15  0.37746203377645182     
          16   4.0599717774978020E-002
          17  -7.7564144386247859E-006
          18   1.4482878249479897E-004
          19   2.8366827743071098E-003
          20   5.3438829761621134E-002
Sym=     6a
Ene=  -0.55981986404992568     
Spin= Alpha
Occup=     2.00000000
           1  -6.2854953595573645E-004
           2 -0.43954001697508488     
           3  -9.6135351940666476E-003
           4   1.7048366808610086E-003
           5  -7.8838981853959281E-002
           6   6.1209406823899533E-002
           7 -0.21443057526765147     
           8   1.5414924306844536E-002
           9  -4.5366928784768923E-004
          10  0.47432849836938951     
          11   1.0841796452267356E-002
          12  -1.8647435319377422E-003
          13  -7.8825784860521775E-002
          14   6.1185762718733272E-002
          15 -0.21483278304270118     
          16   7.2101271748286136E-003
          17  0.15786792166581343     
          18   5.2858356062959098E-002
          19  0.43375578614423438     
          20  -2.3339903009487305E-002
Sym=     7a
Ene=  -0.53142885245936389     
Spin= Alpha
Occup=     2.00000000
           1  0.57613557855498920     
           2   1.2925878966890529E-002
           3 -0.57021328536052329     
           4   3.0459249327748066E-002
           5  -9.2712803501969199E-002
           6   4.1617708288999352E-003
           7   6.5795309457484533E-002
           8   6.3202928003517518E-003
           9  0.49996587129199244     
          10  -5.7814088967004639E-003
          11  0.27125010214184259     
          12  -1.4490703800586820E-002
          13  -9.2713051519980508E-002
          14   4.1076553270537981E-003
          15   6.4744239483136012E-002
          16  -1.3324385315806223E-002
          17  -9.2267585885865283E-002
          18  -1.2662819658334169E-002
          19   6.5326810076312677E-002
          20  -3.4587348781894198E-003
Sym=     8a
Ene=  -0.47871344053299297     
Spin= Alpha
Occup=     2.00000000
           1  -3.5602202708805229E-002
           2  -6.1037397000109827E-003
           3  0.25903814821103516     
           4  -1.3836404002884824E-002
           5 -0.41481002206331485     
           6  0.18756038899266175     
           7   8.1047097840793100E-003
           8  0.32798949089816171     
           9   9.3212222746084247E-002
          10  -2.7140119851060338E-003
          11   8.9673444459154483E-002
          12  -4.7881321116911811E-003
          13 -0.41480969256015066     
          14  0.18575111898653537     
          15  -2.6977326507507053E-002
          16 -0.32800954237109964     
          17 -0.41076274542639596     
          18 -0.37293149698364852     
          19  -2.3066265161265444E-002
          20   2.2619129713700547E-003
Sym=     9a
Ene=  -0.46993167119961948     
Spin= Alpha
Occup=     2.00000000
           1   1.9659256275373702E-004
           2  -6.0128940410803515E-002
           3  -2.9751239931618883E-003
           4   3.1267759528905755E-004
           5 -0.22502272757181258     
           6 -0.23382368418713867     
           7   4.5119105656424921E-002
           8  0.39666720006544059     
           9  -7.2238920864435801E-004
          10 -0.12667230341314678     
          11  -3.8333020023224931E-003
          12   5.2869109761042319E-004
          13 -0.22486260703758076     
          14 -0.23617709095162651     
          15   2.6058801382717049E-003
          16 -0.39783024102784648     
          17  0.45758784419837495     
          18  0.46338665908650672     
          19  -4.7562644508680224E-002
          20   1.1711440364291440E-003
Sym=    10a
Ene=  -0.46989282102351909     
Spin= Alpha
Occup=     2.00000000
           1   7.7141749364480593E-009
           2   1.5246359814444183E-004
           3   3.1919946320374719E-003
           4   5.9697197169506097E-002
           5  0.39335893049776383     
           6 -0.39983956807217341     
           7  -7.2125745706971389E-002
           8 -0.22387017726922079     
           9  -1.8327280715123860E-007
          10   3.2172458687020419E-004
          11   6.7393369185657411E-003
          12  0.12603381650765913     
          13 -0.39345059800910487     
          14  0.39848512459361668     
          15   4.7721669741640091E-002
          16 -0.23264337859903389     
          17   9.2891784067706122E-005
          18   1.3730819009194623E-003
          19   2.4791917988843004E-002
          20  0.46376556939068986     
Sym=    11a
Ene=  -0.42868865812672236     
Spin= Alpha
Occup=     1.00000000
           1  0.14667485571712757     
           2   1.0821473353162716E-002
           3 -0.45785643889094291     
           4   2.4455849867761951E-002
           5  -7.4959940990325422E-002
           6   5.1639172758208160E-002
           7  0.18552320155286006     
           8   8.6226825675217278E-002
           9 -0.39661701268202437     
          10   1.6796672688656544E-002
          11 -0.71222492334889964     
          12   3.8042800086420983E-002
          13  -7.4959838431360531E-002
          14   5.1109541755965139E-002
          15  0.17525356804032360     
          16 -0.10580427692552373     
          17  -7.5255874823388094E-002
          18 -0.11533289303840279     
          19  0.17635919297457067     
          20  -9.1135641846968318E-003
Sym=    12a
Ene=  -0.31290705432774263     
Spin= Alpha
Occup=     0.00000000
           1   3.6510649235034020E-008
           2   1.2333965148196881E-003
           3   2.4075967181055959E-002
           4  0.45019598790945836     
           5   7.2248338829011619E-002
           6   8.0772467870007983E-002
           7  -8.8152964323774188E-002
           8 -0.46095820093744294     
           9  -2.1018112210045827E-008
          10   1.2917132181621952E-003
          11   2.5211227554259950E-002
          12  0.47142493060571233     
          13  -7.2249881334534305E-002
          14  -8.3312501970466149E-002
          15   3.8513523945200349E-002
          16 -0.46727688669560880     
          17   1.4923431768448508E-006
          18  -1.6420116734199770E-003
          19  -3.1988639266530679E-002
          20 -0.59813092679324853     
Sym=    13a
Ene=  -0.31250987078233294     
Spin= Alpha
Occup=     0.00000000
           1  -6.8060230770580849E-005
           2  0.45097188662599774     
           3   1.0392774124860353E-002
           4  -1.7914823673009740E-003
           5   4.1506863229389582E-002
           6 -0.55436264031494742     
           7  -4.6350590291853934E-002
           8   8.3252516728912054E-002
           9  -3.9248575227231834E-006
          10  0.47243600509610673     
          11   1.0934622912707413E-002
          12  -1.8791178361048213E-003
          13   4.1504325239724395E-002
          14 -0.55480133794994224     
          15  -5.4800778523330797E-002
          16  -7.4800809795678061E-002
          17  -8.2588027812532730E-002
          18 -0.41900920273055164     
          19   6.5774269529528903E-002
          20  -2.3727999636978143E-003
Sym=    14a
Ene=  -0.24786880244039333     
Spin= Alpha
Occup=     0.00000000
           1  -1.7734948994351907E-009
           2  -3.9733787698501741E-006
           3  -7.8353316793469007E-005
           4  -1.4651111070575114E-003
           5  -1.3310575355784547E-004
           6  0.58373790847412688     
           7  -4.3614675190834680E-003
           8 -0.33866039036966417     
           9  -1.2419447738264870E-009
          10  -3.9883373221108699E-006
          11  -7.8713408457598057E-005
          12  -1.4719199365086596E-003
          13   1.3310308149167374E-004
          14 -0.58559295699008962     
          15  -3.1610751097031951E-002
          16 -0.33397841864002781     
          17  -1.3141065931534039E-008
          18   1.8658822892685472E-003
          19   3.6184596575354694E-002
          20  0.67661010322851323     
Sym=    15a
Ene=   -2.0062054091797492E-003
Spin= Alpha
Occup=     0.00000000
           1   1.6280895161786802E-003
           2  0.54812008751560992     
           3   1.3726887215509076E-002
           4  -2.2076077567881351E-003
           5  -4.2454425861763095E-002
           6   6.8263518079374344E-003
           7 -0.41769378584731220     
           8  -3.7835770536663778E-005
           9  -1.5359854269153923E-003
          10 -0.73806450282298819     
          11  -1.5800702058016466E-002
          12   2.8275475470571124E-003
          13  -4.2442454748846552E-002
          14   6.9509958265415658E-003
          15 -0.41520744070353222     
          16   4.4537040115300117E-002
          17   8.5024255221613693E-002
          18  -6.1112105251288740E-002
          19  0.83671308126899657     
          20  -4.4577567310994819E-002
Sym=    16a
Ene=   -1.1527794799688950E-003
Spin= Alpha
Occup=     0.00000000
           1   4.1553824713648159E-007
           2  -1.4744587330243052E-003
           3  -2.9360312598190653E-002
           4 -0.54902448022171713     
           5   7.2655048658593138E-002
           6   4.8454789632689146E-003
           7  0.72631618128583020     
           8  -1.1329589693956088E-002
           9  -5.7682758818921853E-007
          10   1.9807938506237383E-003
          11   3.9411759886257620E-002
          12  0.73696649582263407     
          13  -7.2659889188108923E-002
          14  -4.6922788741515179E-003
          15 -0.72343858661639071     
          16   6.6230271518012113E-002
          17   5.0971751826364039E-006
          18  -3.0536958272910581E-005
          19  -4.6845347366512565E-004
          20  -9.8794219403097894E-003
Sym=    17a
Ene=    6.6956764993478454E-002
Spin= Alpha
Occup=     0.00000000
           1   1.3623529905130867E-003
           2 -0.58836896166949959     
           3  -1.2817194545639836E-002
           4   2.2761821598770399E-003
           5 -0.35848247338010175     
           6 -0.25323632535507051     
           7   2.8865781296417786E-002
           8 -0.29248987394373976     
           9  -2.4490519796701274E-003
          10 -0.45054232327566157     
          11  -8.4525993597084955E-003
          12   1.6718751651264047E-003
          13 -0.35841739445901782     
          14 -0.25160176506262827     
          15   5.9956841387905427E-002
          16  0.28907013574514911     
          17  0.71817227193606248     
          18 -0.75475340189947349     
          19 -0.11287362709923507     
          20   8.1134066691628988E-003
Sym=    18a
Ene=    6.7021212165356794E-002
Spin= Alpha
Occup=     0.00000000
           1  -5.7095642837798697E-006
           2  -1.5889912716547240E-003
           3  -3.1402078000755743E-002
           4 -0.58711369382366152     
           5 -0.62187749839957718     
           6 -0.29480194921058761     
           7   4.4534184262745177E-002
           8 -0.59036303742183716     
           9   3.9929625716490106E-006
          10  -1.2214551888691005E-003
          11  -2.4170952836584648E-002
          12 -0.45193161863673670     
          13  0.62191622542050251     
          14  0.29159123276445242     
          15 -0.10734390391037689     
          16 -0.58389003746215018     
          17  -3.7417716341012025E-005
          18  -1.9240061087641327E-004
          19  -4.4864338820113942E-003
          20  -8.3900877586731606E-002
Sym=    19a
Ene=    9.1952315669326296E-002
Spin= Alpha
Occup=     0.00000000
           1 -0.78941430185103689     
           2   1.4328205370341469E-002
           3 -0.62508010054928842     
           4   3.3393343144632603E-002
           5   7.8134866094534877E-002
           6   8.1952269636341862E-002
           7 -0.53706763760678788     
           8  0.14850456747283999     
           9  0.49608675753193804     
          10   4.4317256358979533E-003
          11 -0.31906333261160291     
          12   1.7054833155912535E-002
          13   7.8125280244968245E-002
          14   8.1287766752119239E-002
          15 -0.54986609101878847     
          16  -9.0817605797468129E-002
          17   8.1286513021415416E-002
          18 -0.12862611334447008     
          19 -0.54484582408533944     
          20   2.9493129070134124E-002
Sym=    20a
Ene=   0.36675948278348991     
Spin= Alpha
Occup=     0.00000000
           1  0.43068717443699817     
           2  -1.2701635924494971E-002
           3  0.52273141630568920     
           4  -2.7920273579662893E-002
           5 -0.42280857396371102     
           6 -0.21309996752331625     
           7 -0.18113326011191447     
           8 -0.36493433622155469     
           9  0.80117809469554147     
          10   1.8347577010755244E-002
          11 -0.83659503218719866     
          12   4.4690291539395563E-002
          13 -0.42280929023706265     
          14 -0.21103668520740468     
          15 -0.14111716184698195     
          16  0.38333817290307726     
          17 -0.41986140886667889     
          18  0.43329608785718882     
          19 -0.14506627704397820     
          20   6.5631015701892084E-003
