$hessian                                                                        
        0.1657347666   0.1175636044   0.0215760107  -0.1911550820  -0.0119576934
       -0.0300956284  -0.0141104204  -0.0104145242  -0.0006751540   0.0510297828
       -0.0949791592   0.0097892490  -0.0114990470  -0.0002122275  -0.0005944773
        0.1175636044   0.6678737878   0.0223403010  -0.1303236676  -0.0084242067
       -0.0228564858   0.0116841345   0.0011584913   0.0005300360   0.0008918629
       -0.6603818048   0.0000264468   0.0001840658  -0.0002262675  -0.0000402981
        0.0215760107   0.0223403010   0.0051880312  -0.0373550092  -0.0075470678
       -0.0055955522   0.0132472328   0.0031187500  -0.0027260565   0.0097491656
       -0.0176201990   0.0013944562  -0.0072173999  -0.0002917842   0.0017391214
       -0.1911550820  -0.1303236676  -0.0373550092   0.9638069872  -0.0580843842
       -0.0091362147  -0.4767729303   0.0278829968   0.0669081474  -0.1702901569
        0.1526737375  -0.0327483928  -0.1255888180   0.0078513175   0.0123314694
       -0.0119576934  -0.0084242067  -0.0075470678  -0.0580843842   0.0645545189
        0.0008499835   0.0281344191  -0.0296841111  -0.0044101821   0.0342425015
       -0.0317941117   0.0118273295   0.0076651570   0.0053479106  -0.0007200632
       -0.0300956284  -0.0228564858  -0.0055955522  -0.0091362147   0.0008499835
        0.0255444611   0.0242977239  -0.0018357558  -0.0175031625  -0.0263339886
        0.0262431348  -0.0048014923   0.0412681079  -0.0024008768   0.0023557460
       -0.0141104204   0.0116841345   0.0132472328  -0.4767729303   0.0281344191
        0.0242977239   1.1457607063  -0.0672691363  -0.0782310667  -0.0145928576
       -0.0097618016   0.0123496805  -0.6402844981   0.0372123844   0.0283364295
       -0.0104145242   0.0011584913   0.0031187500   0.0278829968  -0.0296841111
       -0.0018357558  -0.0672691363   0.0398828462   0.0048564456   0.0126829795
        0.0013594712  -0.0045741074   0.0371176842  -0.0127166976  -0.0015653324
       -0.0006751540   0.0005300360  -0.0027260565   0.0669081474  -0.0044101821
       -0.0175031625  -0.0782310667   0.0048564456   0.0419274945  -0.0005160932
       -0.0003264236  -0.0026880536   0.0125141664  -0.0006498760  -0.0190102219
        0.0510297828   0.0008918629   0.0097491656  -0.1702901569   0.0342425015
       -0.0263339886  -0.0145928576   0.0126829795  -0.0005160932   0.1449322894
       -0.0492720962   0.0176605207  -0.0110790578   0.0014547522  -0.0005596044
       -0.0949791592  -0.6603818048  -0.0176201990   0.1526737375  -0.0317941117
        0.0262431348  -0.0097618016   0.0013594712  -0.0003264236  -0.0492720962
        0.6913615752  -0.0083541237   0.0013393195  -0.0005451299   0.0000576115
        0.0097892490   0.0000264468   0.0013944562  -0.0327483928   0.0118273295
       -0.0048014923   0.0123496805  -0.0045741074  -0.0026880536   0.0176605207
       -0.0083541237   0.0044286777  -0.0070510574   0.0010744548   0.0016664121
       -0.0114990470   0.0001840658  -0.0072173999  -0.1255888180   0.0076651570
        0.0412681079  -0.6402844981   0.0371176842   0.0125141664  -0.0110790578
        0.0013393195  -0.0070510574   0.7884514209  -0.0463062265  -0.0395138171
       -0.0002122275  -0.0002262675  -0.0002917842   0.0078513175   0.0053479106
       -0.0024008768   0.0372123844  -0.0127166976  -0.0006498760   0.0014547522
       -0.0005451299   0.0010744548  -0.0463062265   0.0081401845   0.0022680822
       -0.0005944773  -0.0000402981   0.0017391214   0.0123314694  -0.0007200632
        0.0023557460   0.0283364295  -0.0015653324  -0.0190102219  -0.0005596044
        0.0000576115   0.0016664121  -0.0395138171   0.0022680822   0.0132489425
