[Molden Format]
[Title]
[Atoms] AU
C      1     6 -0.29713554286491E+01 -0.10414735966206E+01 -0.10530992892388E+00
C      2     6 -0.38687385677224E+00  0.17104033305857E-01  0.33687038434994E+00
N      3     7  0.19439314335811E+01 -0.12644876029695E+00 -0.32525297641743E-01
C      4     6 -0.28089812660058E+01  0.14118783660413E+01 -0.74963118510202E-01
C      5     6  0.42232791178460E+01 -0.26106004242961E+00 -0.12407203927411E+00
[GTO]
           1 0
 s           4   1.0000000000000000     
   51.049363095579913      -0.16312063210127389     
   8.7911227406887544      -0.19911024581000730     
  0.70640422258929825       0.31882047753655751     
  0.26922813413411617       0.12706504184240380     
 p           4   1.0000000000000000     
   5.8263656140800002       0.73716451545209605     
   1.5106896018720002       0.68216371614850257     
  0.53256483288000001       0.35783053929253711     
  0.21202323690600003        5.3983030275847881E-002

           2 0
 s           4   1.0000000000000000     
   51.049363095579913      -0.16312063210127389     
   8.7911227406887544      -0.19911024581000730     
  0.70640422258929825       0.31882047753655751     
  0.26922813413411617       0.12706504184240380     
 p           4   1.0000000000000000     
   5.8263656140800002       0.73716451545209605     
   1.5106896018720002       0.68216371614850257     
  0.53256483288000001       0.35783053929253711     
  0.21202323690600003        5.3983030275847881E-002

           3 0
 s           4   1.0000000000000000     
   63.594024466941008      -0.19234388414721629     
   10.951417231523665      -0.23478107924953728     
  0.87999310257376984       0.37593753901700888     
  0.33538715296521110       0.14982889271862770     
 p           4   1.0000000000000000     
   7.2965040481495080       0.97658666315667420     
   1.8918745450712575       0.90372226730345739     
  0.66694432110824120       0.47404958461536373     
  0.26552202674130870        7.1516067715011844E-002

           4 0
 s           4   1.0000000000000000     
   51.049363095579913      -0.16312063210127389     
   8.7911227406887544      -0.19911024581000730     
  0.70640422258929825       0.31882047753655751     
  0.26922813413411617       0.12706504184240380     
 p           4   1.0000000000000000     
   5.8263656140800002       0.73716451545209605     
   1.5106896018720002       0.68216371614850257     
  0.53256483288000001       0.35783053929253711     
  0.21202323690600003        5.3983030275847881E-002

           5 0
 s           4   1.0000000000000000     
   51.049363095579913      -0.16312063210127389     
   8.7911227406887544      -0.19911024581000730     
  0.70640422258929825       0.31882047753655751     
  0.26922813413411617       0.12706504184240380     
 p           4   1.0000000000000000     
   5.8263656140800002       0.73716451545209605     
   1.5106896018720002       0.68216371614850257     
  0.53256483288000001       0.35783053929253711     
  0.21202323690600003        5.3983030275847881E-002

[MO]
Sym=     1a
Ene=  -0.72220775780588820     
Spin= Alpha
Occup=     2.00000000
           1  0.34261853429683276     
           2  0.10556451258411094     
           3  0.13379006251549028     
           4   1.4221532155544128E-002
           5  0.42055331988007788     
           6  -7.3669442029699536E-002
           7   5.6525562110567125E-003
           8  -4.3517811809278162E-002
           9  0.19883346630078180     
          10 -0.11019483025215625     
          11   7.1573703316355529E-003
          12   8.0624476154404941E-003
          13  0.34298124136409508     
          14   8.7276260603519215E-002
          15 -0.14671148208608956     
          16   1.0786970594780770E-002
          17   2.2930238213323417E-002
          18  -2.6929853879865455E-002
          19   1.6785940237148691E-003
          20   1.5359751049665085E-003
Sym=     2a
Ene=  -0.70588895867255896     
Spin= Alpha
Occup=     2.00000000
           1  0.17114434205488466     
           2   2.7441408325406562E-003
           3   6.6912943759935117E-002
           4   7.1395542545254322E-003
           5 -0.15211738565237506     
           6 -0.28488165376003727     
           7   1.7872587026890461E-002
           8   1.2560322844090725E-002
           9 -0.57600203562519570     
          10   2.2428690758122340E-002
          11  -1.6559900054998590E-003
          12  -2.9206990287462167E-002
          13  0.17095106925329856     
          14  -6.3048366541825582E-003
          15  -6.6936897502794301E-002
          16   5.4764010037856980E-003
          17 -0.24733081526079326     
          18  0.13208929214131557     
          19  -7.8768769638191821E-003
          20  -1.0192374337593428E-002
Sym=     3a
Ene=  -0.66195176197281969     
Spin= Alpha
Occup=     2.00000000
           1 -0.15097093438530468     
           2   5.0094920634553675E-002
           3  -6.6613855005684161E-002
           4  -2.7303466038902804E-004
           5  0.25659525402254318     
           6  0.19876780820663875     
           7  -1.2846769718893064E-002
           8  -9.7059759979214472E-003
           9  -8.2574720048554526E-002
          10 -0.46796164772608562     
          11   2.7965071565337323E-002
          12   5.2403878213561586E-002
          13 -0.15075174460378088     
          14   5.8622181838578251E-002
          15   5.9528844840999282E-002
          16   1.2958999395164307E-003
          17 -0.46516257044187426     
          18  0.12409855690650720     
          19  -7.2937741057311749E-003
          20   8.0881729392539149E-004
Sym=     4a
Ene=  -0.59055448987400350     
Spin= Alpha
Occup=     2.00000000
           1  0.32212272987100654     
           2   9.3133394217183210E-002
           3 -0.18175287839441526     
           4   1.3975807856465025E-002
           5  -2.1447545376784125E-004
           6  -2.9605182402202761E-002
           7 -0.47056791425393546     
           8  -6.0401604543735034E-003
           9   1.6431701326320314E-003
          10  -2.7411801986322964E-002
          11 -0.43966095884083123     
          12  -5.5768972951387424E-003
          13 -0.32078286200728529     
          14 -0.11775086960719852     
          15 -0.16874421595452760     
          16  -1.8865676497283705E-002
          17  -4.6930881068686745E-004
          18  -8.8726848882192573E-003
          19 -0.14463146760200532     
          20  -1.8440747043804999E-003
Sym=     5a
Ene=  -0.57145545207453818     
Spin= Alpha
Occup=     2.00000000
           1   2.8841773823466983E-002
           2  -2.8020054605094030E-002
           3   1.7945550514719705E-002
           4 -0.22911030201314816     
           5 -0.12210447353956876     
           6   3.5569238784032370E-002
           7   3.7330057631772546E-003
           8 -0.45813540423673405     
           9   6.8733342482933307E-002
          10  -8.4470719645081432E-002
          11   1.2662344712600910E-002
          12 -0.57533166197245456     
          13   2.9539946329724391E-002
          14  -2.9531995512748613E-002
          15  -8.0658567700194663E-003
          16 -0.22971642599764713     
          17  -5.9560923215984024E-002
          18  -2.0307761504828836E-002
          19   4.0313123596483402E-003
          20 -0.21260065027177308     
Sym=     6a
Ene=  -0.55751191522357690     
Spin= Alpha
Occup=     2.00000000
           1 -0.24110570345094373     
           2  0.41605532465961842     
           3 -0.15723156990060330     
           4   6.4252564435809303E-002
           5  0.23220319464372685     
           6 -0.26264992832366296     
           7   1.6250748316310116E-002
           8  -5.4020773709275355E-002
           9 -0.13955981418580873     
          10  0.12302266206058533     
          11  -5.8739307177495008E-003
          12 -0.17119887570959055     
          13 -0.24308214540741360     
          14  0.43253234368364257     
          15   9.8257856101603952E-002
          16   6.7333559495360115E-002
          17  0.19026080101764112     
          18   3.2627152905121574E-002
          19  -1.3703786710011609E-003
          20  -6.9287526940104177E-002
Sym=     7a
Ene=  -0.52606625607587398     
Spin= Alpha
Occup=     2.00000000
           1  0.40906053615995203     
           2  -3.1975151158023470E-002
           3 -0.25196550012086355     
           4  -3.7237444568911718E-003
           5  -9.8961689813613352E-005
           6   1.5599585092397953E-003
           7   1.4527003882867862E-002
           8   3.9948543433981352E-005
           9  -1.1989082108141589E-003
          10   3.5440508438570842E-002
          11  0.58380459870650758     
          12   7.5864040472123735E-003
          13 -0.40847348208106049     
          14  -2.1727651320945099E-003
          15 -0.25398230033432179     
          16  -3.4016528692269845E-003
          17   6.8561256990698981E-004
          18   1.8645513312672442E-002
          19  0.30494267701196515     
          20   3.9526027193442408E-003
Sym=     8a
Ene=  -0.50054309508840833     
Spin= Alpha
Occup=     2.00000000
           1  -9.0423065391430427E-003
           2  0.12241507616720035     
           3  -7.8351350592796836E-003
           4 -0.48235347016656710     
           5   1.2001614977561938E-003
           6   1.1696647556995166E-003
           7   1.6485936746470371E-003
           8 -0.15728006074162479     
           9  -9.1784529910634877E-002
          10   4.7896085604695958E-002
          11  -8.8962447240362418E-003
          12  0.44115540917948953     
          13  -8.3215236907408958E-003
          14  0.12302068504125381     
          15   3.9884996743740943E-003
          16 -0.48234310300234889     
          17  0.11115404385526181     
          18   7.9659409564784761E-002
          19  -8.5523468067870735E-003
          20  0.27656701780558052     
Sym=     9a
Ene=  -0.45850889340084966     
Spin= Alpha
Occup=     2.00000000
           1   9.4313964947050286E-003
           2 -0.10873864139401905     
           3   2.7048769735578269E-002
           4   3.4306617875421802E-002
           5  0.12025528516820411     
           6  0.14739405219799712     
           7  -1.0939122826566217E-002
           8   1.9026066485580220E-003
           9 -0.19536633233704581     
          10 -0.23859944990747411     
          11   1.5069763197703505E-002
          12  -5.5569800273832938E-002
          13   1.1229130615213637E-002
          14 -0.11251523817792525     
          15  -1.1931043578081297E-002
          16   3.3590784594892814E-002
          17  0.68999192576517887     
          18  0.60163010581967247     
          19  -3.4651396447392305E-002
          20  -8.8632951117642508E-002
Sym=    10a
Ene=  -0.41691847231823959     
Spin= Alpha
Occup=     1.00000000
           1 -0.39985257987837125     
           2   7.7800468626700203E-002
           3  0.60361400540113141     
           4   8.5501387878474007E-003
           5  -9.5810252648963947E-003
           6   7.7622251361093922E-003
           7  -1.3528688015890912E-002
           8   8.0390761555129645E-003
           9  -6.7638253328433894E-003
          10   1.0862760982051229E-002
          11   5.3866285514651202E-003
          12  -4.2824003381786479E-003
          13 -0.38785231317034569     
          14  -1.9638738863427180E-002
          15 -0.59795368961528206     
          16  -9.4425888762572144E-003
          17  -9.0625636866816326E-003
          18  -7.5066742375044914E-003
          19   1.0826049344938261E-002
          20  -5.8689227601950202E-003
Sym=    11a
Ene=  -0.41229588822450208     
Spin= Alpha
Occup=     1.00000000
           1  0.23113795657518765     
           2 -0.39729070825204471     
           3 -0.15090076577925748     
           4  -6.9592078925890852E-002
           5  -4.3973000297785965E-004
           6   3.4879153428768871E-002
           7  0.53367731687345810     
           8   6.6294631074539949E-003
           9  -1.3412911689463812E-004
          10  -1.4129679238748482E-002
          11 -0.22482921636712364     
          12  -2.9248397530294238E-003
          13 -0.25032360709206869     
          14  0.37326942268034258     
          15 -0.23294962882615325     
          16   6.4888267956561912E-002
          17   8.5276136365222612E-004
          18  -2.3653924598618079E-002
          19 -0.42115070809374250     
          20  -5.5316731969448632E-003
Sym=    12a
Ene=  -0.35136203234331753     
Spin= Alpha
Occup=     1.00000000
           1  -5.5785735863775436E-003
           2   1.6850750279792496E-004
           3   2.4452084273094001E-004
           4  0.31794293385497685     
           5 -0.16319700267967077     
           6  -1.3000688314940181E-002
           7   9.0643658622821758E-003
           8 -0.66589573183300621     
           9   4.7537332998193634E-002
          10  -4.9729990811226282E-002
          11   2.9279235843464135E-003
          12   3.5922314424616511E-003
          13  -5.5639605749344375E-003
          14  -2.8620638824814642E-004
          15  -8.0859936262560189E-003
          16  0.31559041820996520     
          17   1.7106402395035903E-002
          18   6.8754562564492180E-002
          19  -1.1938730357859249E-002
          20  0.64897348940027400     
Sym=    13a
Ene=  -0.27258569284717254     
Spin= Alpha
Occup=     0.00000000
           1  -2.2708810139168790E-004
           2 -0.11091316522955436     
           3  -2.0009479409019899E-003
           4  0.79458645841633158     
           5   2.3040180350589504E-004
           6  -4.4303096366596180E-005
           7  -2.8581011551326199E-003
           8   3.8106140593751882E-004
           9  -3.2808453960566270E-004
          10   2.8292310876752366E-003
          11   4.2262287206543452E-002
          12   1.6562683887431796E-003
          13   2.6162033518460409E-004
          14  0.11097400052657237     
          15   2.9660123428491875E-003
          16 -0.79484823543961858     
          17  -4.2140395609076598E-005
          18  -4.4156085554522698E-003
          19  -6.9735323581104999E-002
          20  -2.7906330957714661E-003
Sym=    14a
Ene=  -0.25783609599630025     
Spin= Alpha
Occup=     0.00000000
           1  -3.1671710466350564E-003
           2 -0.34325647942235327     
           3   2.3396331653800916E-002
           4   6.5234581477823569E-003
           5  -7.6777966311113318E-004
           6  -2.4765147876262887E-004
           7   8.8906964289381107E-003
           8   5.7540129621681596E-004
           9   1.4229744141275153E-003
          10  -3.6242800113755712E-002
          11 -0.58961763256154853     
          12  -7.2102991583566601E-003
          13   3.2121198578283117E-003
          14  0.34392705994216155     
          15  -2.1768509506122177E-002
          16  -6.8498473559531151E-003
          17   1.7066996688170998E-004
          18   5.0957145326465468E-002
          19  0.84247497615653677     
          20   1.0332281678101038E-002
Sym=    15a
Ene=  -0.20238155748705405     
Spin= Alpha
Occup=     0.00000000
           1  -3.2335206914989617E-002
           2  -6.9541744020584870E-002
           3  -5.0800561194435327E-003
           4 -0.16966901193310563     
           5  0.20535078583188526     
           6  -5.3679774286792978E-002
           7  -4.0823378701764146E-003
           8  0.56635000224235843     
           9  -9.9685091798340023E-003
          10  -2.4178682944034240E-002
          11   1.0854918273900709E-002
          12 -0.72552305012006491     
          13  -3.2242801942996273E-002
          14  -6.6503288957687201E-002
          15   1.8455554505431668E-002
          16 -0.17155540791192198     
          17   6.5739303543473687E-003
          18   1.2291906167134329E-002
          19  -9.9024493469190948E-003
          20  0.70721606677701443     
Sym=    16a
Ene=   -3.2012535566221308E-002
Spin= Alpha
Occup=     0.00000000
           1   8.0390917707617512E-002
           2  0.65491997805036095     
           3 -0.25665163765923815     
           4  0.11039971533128745     
           5  -6.1529837714133347E-002
           6   6.2322957877819690E-002
           7  0.80901375918893248     
           8   3.0588351109327602E-002
           9   3.8695281771753090E-002
          10  -4.0329133603284960E-002
          11 -0.41440713123427519     
          12  -1.0352836790790814E-002
          13  -5.1448751624177551E-002
          14 -0.62614934407420741     
          15 -0.18120208321119588     
          16 -0.11412257956490483     
          17  -8.3405499685604914E-003
          18   3.7628289215555208E-002
          19  0.22151226323802126     
          20   4.7686230979613765E-003
Sym=    17a
Ene=   -1.4371600907014972E-002
Spin= Alpha
Occup=     0.00000000
           1 -0.23058832189367770     
           2 -0.41562686031403301     
           3  -7.6372177292713894E-002
           4  -1.1402495648125533E-002
           5  0.97416969865236169     
           6 -0.15839367230974419     
           7   6.6902869657769287E-002
           8 -0.31197206611403411     
           9 -0.60175381195923039     
          10  0.22651614635312303     
          11  -4.3371350384295897E-002
          12   7.0030618840207365E-002
          13 -0.23835630403101554     
          14 -0.48592176185821756     
          15  0.10625748980990544     
          16  -2.3199999501795077E-002
          17  0.13426513849427718     
          18 -0.37075620737302278     
          19   3.7447704325734466E-002
          20  -2.4160274867401171E-002
Sym=    18a
Ene=   0.36566714061892885     
Spin= Alpha
Occup=     0.00000000
           1 -0.25528388729088280     
           2 -0.32244290153538613     
           3  -8.3358192856768584E-002
           4  -7.5245522444266966E-002
           5  0.15141998345493521     
           6 -0.97909290577892905     
           7   6.3017356283903356E-002
           8  -4.4953286704449612E-002
           9  0.99853010600642589     
          10  0.12305011573004587     
          11  -6.7692038789632369E-003
          12  0.12004148589421794     
          13 -0.25327108417513072     
          14 -0.30915904940728822     
          15  0.12405879233945430     
          16  -7.2834188817050977E-002
          17 -0.41374683301316262     
          18  0.65314633674341738     
          19  -3.8711555728462674E-002
          20  -6.6155645261913865E-002
Sym=    19a
Ene=   0.55469372186428401     
Spin= Alpha
Occup=     0.00000000
           1  0.85047660909758938     
           2  0.14912159333947742     
           3  0.94736369187904979     
           4   2.6746883606066238E-002
           5   1.7895872646777771E-003
           6   1.2778170599258057E-002
           7  0.22171346291068836     
           8   2.2822173389811617E-003
           9   9.1269226005845892E-004
          10  -3.4258523841499749E-003
          11  -7.1439430163324338E-002
          12  -7.5923430597385879E-004
          13 -0.85194468070313212     
          14  -2.4829193388380195E-002
          15  0.95962023075949776     
          16  -3.4522471857779931E-003
          17  -7.6672087018991462E-004
          18   2.2599256159987068E-003
          19   2.0623548074304748E-002
          20   1.6688008661985756E-004
Sym=    20a
Ene=    1.0234676548765556     
Spin= Alpha
Occup=     0.00000000
           1 -0.13150442295493073     
           2 -0.12156708582777073     
           3  -4.6612430478068838E-002
           4  -5.2630684827941150E-002
           5 -0.48628159805422561     
           6 -0.90503796574678985     
           7   5.7346907676214171E-002
           8  0.10426849471317748     
           9  -4.0354678211509828E-002
          10  -1.3447077660315236     
          11   8.0749603782699006E-002
          12  0.14446822180832045     
          13 -0.13255826591401720     
          14 -0.11447296249833570     
          15   6.4390695483026936E-002
          16  -5.1425906805539844E-002
          17  0.71666292380423324     
          18 -0.78863507302066527     
          19   4.6284599857193506E-002
          20   1.1316600687227433E-002
