5
 energy: -11.044537525470 gnorm: 0.000959162340 xtb: 6.2.2 (9d81278992624c895f80dd42a50cac0aa55982e2)
C        -1.57237372421865   -0.55112414422205   -0.05572761963873
C        -0.20472484749237    0.00905106547974    0.17826414696545
N         1.02868430965033   -0.06691380850434   -0.01721164788674
C        -1.48644900973629    0.74713392519503   -0.03966877765428
C         2.23486327179698   -0.13814703794838   -0.06565610178569
