$hessian                                                                        
        0.2391768229  -0.0247846680  -0.0059041680  -0.1292209866   0.0642732097
       -0.0833576923  -0.0749820676  -0.0694969830   0.1284883002  -0.0194288916
        0.0128566705  -0.0249837007  -0.0155448770   0.0171517708  -0.0142427393
       -0.0247846680   0.2034112485  -0.2499272614   0.0882632871  -0.0758899132
        0.0445231407  -0.0694105569  -0.1289411436   0.1971197245  -0.0059512587
        0.0139701821  -0.0151712169   0.0118831965  -0.0125503737   0.0234556131
       -0.0059041680  -0.2499272614   0.4635916816  -0.1230420071   0.0504255989
       -0.0889894421   0.1283420286   0.1971356120  -0.3778792850  -0.0049968734
        0.0097764309  -0.0096713543   0.0056010199  -0.0074103804   0.0129483999
       -0.1292209866   0.0882632871  -0.1230420071   0.6078837122  -0.0377031706
        0.0445267397  -0.2696868117  -0.0185969473   0.0932844567  -0.1326478002
       -0.1087230885  -0.0626237388  -0.0763281137   0.0767599193   0.0478545495
        0.0642732097  -0.0758899132   0.0504255989  -0.0377031706   0.4501678475
        0.1500671235  -0.0032827073  -0.0077114391  -0.0126293391  -0.1049883931
       -0.1624574144  -0.0758772785   0.0817010612  -0.2041090807  -0.1119861048
       -0.0833576923   0.0445231407  -0.0889894421   0.0445267397   0.1500671235
        0.2760792336   0.0679583150  -0.0088567267  -0.0179218410  -0.0718692014
       -0.0862115649  -0.0772545630   0.0427418391  -0.0995219726  -0.0919133875
       -0.0749820676  -0.0694105569   0.1283420286  -0.2696868117  -0.0032827073
        0.0679583150   0.3752731641   0.0786340177  -0.2138588283  -0.0174939592
       -0.0054380453   0.0095918625  -0.0131103255  -0.0005027083   0.0079666222
       -0.0694969830  -0.1289411436   0.1971356120  -0.0185969473  -0.0077114391
       -0.0088567267   0.0786340177   0.1384045495  -0.1902108094  -0.0080631799
       -0.0047536356   0.0140763860   0.0175230926   0.0030016688  -0.0121444619
        0.1284883002   0.1971197245  -0.3778792850   0.0932844567  -0.0126293391
       -0.0179218410  -0.2138588283  -0.1902108094   0.4024972141  -0.0121488187
       -0.0025522091   0.0027058752   0.0042348900   0.0082726330  -0.0094019633
       -0.0194288916  -0.0059512587  -0.0049968734  -0.1326478002  -0.1049883931
       -0.0718692014  -0.0174939592  -0.0080631799  -0.0121488187   0.1628167385
        0.1139101627   0.0847649022   0.0067539126   0.0050926690   0.0042499913
        0.0128566705   0.0139701821   0.0097764309  -0.1087230885  -0.1624574144
       -0.0862115649  -0.0054380453  -0.0047536356  -0.0025522091   0.1139101627
        0.1699414779   0.0884054096  -0.0126056995  -0.0167006099  -0.0094180665
       -0.0249837007  -0.0151712169  -0.0096713543  -0.0626237388  -0.0758772785
       -0.0772545630   0.0095918625   0.0140763860   0.0027058752   0.0847649022
        0.0884054096   0.0902186101  -0.0067493253  -0.0114333001  -0.0059985679
       -0.0155448770   0.0118831965   0.0056010199  -0.0763281137   0.0817010612
        0.0427418391  -0.0131103255   0.0175230926   0.0042348900   0.0067539126
       -0.0126056995  -0.0067493253   0.0982294036  -0.0985016508  -0.0458284237
        0.0171517708  -0.0125503737  -0.0074103804   0.0767599193  -0.2041090807
       -0.0995219726  -0.0005027083   0.0030016688   0.0082726330   0.0050926690
       -0.0167006099  -0.0114333001  -0.0985016508   0.2303583955   0.1100930202
       -0.0142427393   0.0234556131   0.0129483999   0.0478545495  -0.1119861048
       -0.0919133875   0.0079666222  -0.0121444619  -0.0094019633   0.0042499913
       -0.0094180665  -0.0059985679  -0.0458284237   0.1100930202   0.0943655189
