5
 energy: -9.090874798236 gnorm: 0.156590406967 xtb: 6.2.2 (9d81278992624c895f80dd42a50cac0aa55982e2)
O         0.69896200000000   -0.37936400000000    0.45553300000000
C        -0.42021200000000    0.16667800000000   -0.17225700000000
C         1.76894500000000   -0.03874100000000   -0.37161000000000
H        -1.13822800000000   -0.64273200000000   -0.42030400000000
H        -0.90946700000000    0.89415800000000    0.50863800000000
5
 energy: -9.150976633324 gnorm: 0.153988449271 xtb: 6.2.2 (9d81278992624c895f80dd42a50cac0aa55982e2)
O         0.72937742056270   -0.44144076344272    0.55075130209356
C        -0.36631837881481    0.12476383043059   -0.11619021664215
C         1.55373432015117    0.01657505494291   -0.41012281888643
H        -1.07495917375126   -0.63304923549718   -0.48554657266756
H        -0.84183418814779    0.93315011356640    0.46110830610259
5
 energy: -9.223513501587 gnorm: 0.066197967526 xtb: 6.2.2 (9d81278992624c895f80dd42a50cac0aa55982e2)
O         0.78450784621348   -0.52454191803371    0.67465805154742
C        -0.23809065402192    0.09466947002615   -0.09799318219408
C         1.15992210036940    0.08944523822965   -0.43367709804274
H        -0.96623546840050   -0.58936821144845   -0.53060210815163
H        -0.74010382416045    0.92979442122636    0.38761433684102
5
 energy: -9.222537874121 gnorm: 0.087919799716 xtb: 6.2.2 (9d81278992624c895f80dd42a50cac0aa55982e2)
O         0.79055884074658   -0.48664882738216    0.61044965504909
C        -0.27650601956483    0.11145638859703   -0.11631375747577
C         1.20464316108629    0.05815530370268   -0.39289474801465
H        -0.97364454551795   -0.60927084145074   -0.51468425172422
H        -0.74505143675008    0.92630697653318    0.41344310216555
5
 energy: -9.226635889753 gnorm: 0.029859582575 xtb: 6.2.2 (9d81278992624c895f80dd42a50cac0aa55982e2)
O         0.77617741705978   -0.50772372060919    0.64882953242796
C        -0.27717669108677    0.09542410697948   -0.08962950093611
C         1.17801305279545    0.07878399014722   -0.42043675871055
H        -0.95601412545730   -0.62255705171557   -0.54644658231248
H        -0.72099965331117    0.95607167519806    0.40768330953117
5
 energy: -9.226596271392 gnorm: 0.032476291392 xtb: 6.2.2 (9d81278992624c895f80dd42a50cac0aa55982e2)
O         0.78869379287263   -0.51241404019975    0.65363953985572
C        -0.26503341970315    0.09577370968672   -0.09313544252779
C         1.13845561258422    0.08181945187859   -0.41587331250920
H        -0.94705725777342   -0.61209326228559   -0.54348684308313
H        -0.71505872798028    0.94691314092003    0.39885605826441
5
 energy: -9.227318187693 gnorm: 0.006917849537 xtb: 6.2.2 (9d81278992624c895f80dd42a50cac0aa55982e2)
O         0.78877971988179   -0.50886029707052    0.64758241762662
C        -0.27562396865335    0.09432777113681   -0.08820927276471
C         1.16023073329379    0.07851791730286   -0.41558751746342
H        -0.95327756755310   -0.61504518660784   -0.54516593265185
H        -0.72010891696913    0.95105879523869    0.40138030525335
5
 energy: -9.227369889407 gnorm: 0.003949450581 xtb: 6.2.2 (9d81278992624c895f80dd42a50cac0aa55982e2)
O         0.79209993936020   -0.50936263666308    0.64782560899685
C        -0.27801847750482    0.09246360158540   -0.08442277090264
C         1.15841595797649    0.07865513432157   -0.41564471835599
H        -0.95286350844339   -0.61470741773637   -0.54768555282819
H        -0.71963391138847    0.95295031849249    0.39992743308997
5
 energy: -9.227394791811 gnorm: 0.000381476188 xtb: 6.2.2 (9d81278992624c895f80dd42a50cac0aa55982e2)
O         0.79654938636980   -0.51126859422714    0.64830133121229
C        -0.28055184011006    0.08973883699383   -0.08007093923694
C         1.15567963359474    0.08006383020714   -0.41538741890477
H        -0.95301678544812   -0.61291699149889   -0.54967986485143
H        -0.71866039440636    0.95438191852506    0.39683689178085
5
 energy: -9.227386530382 gnorm: 0.001512304782 xtb: 6.2.2 (9d81278992624c895f80dd42a50cac0aa55982e2)
O         0.79730258546946   -0.50764039036483    0.65069338368937
C        -0.28057915979500    0.09128402030521   -0.07839205375704
C         1.15428061917519    0.07568032001592   -0.41816189487505
H        -0.94944110569230   -0.61300232475447   -0.55252485933537
H        -0.72156293915734    0.95367737479817    0.39838542427809
5
 energy: -9.227395185460 gnorm: 0.000147700069 xtb: 6.2.2 (9d81278992624c895f80dd42a50cac0aa55982e2)
O         0.79649888906462   -0.51069318194731    0.64870856599397
C        -0.28061673068402    0.08991686022969   -0.07968529392278
C         1.15508834748522    0.07943639704261   -0.41583445992172
H        -0.95220084882925   -0.61325375071449   -0.55039265610928
H        -0.71876965703657    0.95459267538951    0.39720384395981
5
 energy: -9.227395194888 gnorm: 0.000136264732 xtb: 6.2.2 (9d81278992624c895f80dd42a50cac0aa55982e2)
O         0.79661122329016   -0.51067050276129    0.64871209520308
C        -0.28052777858649    0.08997769786101   -0.07977745460014
C         1.15534161309073    0.07936300763130   -0.41585376762883
H        -0.95235519827020   -0.61291934059568   -0.55015240612132
H        -0.71906985952421    0.95424813786466    0.39707153314722
