[Molden Format]
[Title]
[Atoms] AU
O      1     8  0.15053761264256E+01 -0.96503304317307E+00  0.12258845094526E+01
C      2     6 -0.53012025863686E+00  0.17003570308971E+00 -0.15075597241947E+00
C      3     6  0.21832770686401E+01  0.14996153175857E+00 -0.78585753863133E+00
H      4     1 -0.17997000246854E+01 -0.11582419740660E+01 -0.10396289742766E+01
H      5     1 -0.13588329117534E+01  0.18032758926648E+01  0.75035797587811E+00
[GTO]
           1 0
 s           4   1.0000000000000000     
   69.137961906196551      -0.20478756370077797     
   11.906129132707308      -0.24997023136827334     
  0.95670827744340703       0.40025880240639616     
  0.36462520496073686       0.15952206667693555     
 p           4   1.0000000000000000     
   8.2124193257781641        1.1321556799186829     
   2.1293576997098116        1.0476840782254817     
  0.75066448202360914       0.54956508217158984     
  0.29885246543283073        8.2908486592766617E-002

           2 0
 s           4   1.0000000000000000     
   51.049363095579913      -0.16312063210127389     
   8.7911227406887544      -0.19911024581000730     
  0.70640422258929825       0.31882047753655751     
  0.26922813413411617       0.12706504184240380     
 p           4   1.0000000000000000     
   5.8263656140800002       0.73716451545209605     
   1.5106896018720002       0.68216371614850257     
  0.53256483288000001       0.35783053929253711     
  0.21202323690600003        5.3983030275847881E-002

           3 0
 s           4   1.0000000000000000     
   51.049363095579913      -0.16312063210127389     
   8.7911227406887544      -0.19911024581000730     
  0.70640422258929825       0.31882047753655751     
  0.26922813413411617       0.12706504184240380     
 p           4   1.0000000000000000     
   5.8263656140800002       0.73716451545209605     
   1.5106896018720002       0.68216371614850257     
  0.53256483288000001       0.35783053929253711     
  0.21202323690600003        5.3983030275847881E-002

           4 0
 s           3   1.0000000000000000     
   3.3702276975336001       0.27359110588908298     
  0.61389118221497996       0.26460540653860526     
  0.16614291148415999        8.2465947534082318E-002

           5 0
 s           3   1.0000000000000000     
   3.3702276975336001       0.27359110588908298     
  0.61389118221497996       0.26460540653860526     
  0.16614291148415999        8.2465947534082318E-002

[MO]
Sym=     1a
Ene=  -0.77469486492931261     
Spin= Alpha
Occup=     2.00000000
           1  0.63120855515226526     
           2  -1.8195257788085527E-002
           3  0.10614826329972767     
           4 -0.17114237515269462     
           5  0.18353610964888784     
           6  0.13781424522780852     
           7  -5.0324036476272274E-002
           8   4.9317885365814711E-002
           9  0.26860636897946749     
          10  -7.0004432989072024E-002
          11  -6.7821370864427480E-002
          12  0.12945356696029314     
          13   9.7892782550031768E-003
          14   9.7893125497897897E-003
Sym=     2a
Ene=  -0.66344434157569254     
Spin= Alpha
Occup=     2.00000000
           1  0.53337212840243731     
           2  0.32853688989751451     
           3 -0.21864122197026056     
           4  0.28082549710135785     
           5 -0.39276836005072374     
           6  -5.8331570782468804E-002
           7  -1.2641551067828657E-002
           8   3.5282785264115060E-002
           9 -0.14816103223747318     
          10  0.17559942356692029     
          11  -8.2502955715340553E-002
          12   9.3251841304868341E-002
          13 -0.12313983704072189     
          14 -0.12313977667381981     
Sym=     3a
Ene=  -0.64541597652874749     
Spin= Alpha
Occup=     2.00000000
           1 -0.32282549799080157     
           2  0.47457364531028878     
           3  0.15505324304415838     
           4 -0.37342673797483855     
           5 -0.19608123477146933     
           6   8.7518666689046523E-002
           7  0.10009703946369242     
           8 -0.18716861966264162     
           9  0.41205489465353329     
          10   9.1915758416364374E-002
          11  -4.9943833241281377E-002
          12   5.9993461590796944E-002
          13  -8.6648946063574095E-002
          14  -8.6650368852020584E-002
Sym=     4a
Ene=  -0.60223678754528476     
Spin= Alpha
Occup=     2.00000000
           1  -5.9564984206815558E-007
           2   8.4381305718696134E-002
           3  0.56682254527310405     
           4  0.34259067310645863     
           5  -3.5286587700501669E-007
           6   4.3655485122077661E-002
           7  0.29325216303530388     
           8  0.17724407761683592     
           9   5.4216270795950400E-007
          10   4.0340437939482748E-002
          11  0.27098166814720276     
          12  0.16378353905858278     
          13 -0.16156720950881603     
          14  0.16156681146954363     
Sym=     5a
Ene=  -0.56497301255175025     
Spin= Alpha
Occup=     2.00000000
           1  -9.5808059414132202E-002
           2 -0.43527869988555407     
           3  0.13195433746127577     
           4 -0.11111196279186256     
           5 -0.29260290968274300     
           6  0.37221821613687445     
           7 -0.15361447269161768     
           8  0.16247943697885445     
           9  -4.0148558531816314E-002
          10 -0.11478895843440381     
          11   3.9867913344212795E-002
          12  -3.7689699463591630E-002
          13 -0.30328114417339763     
          14 -0.30328041098186720     
Sym=     6a
Ene=  -0.48813991029557163     
Spin= Alpha
Occup=     2.00000000
           1 -0.17492604764066874     
           2   2.1011642951580287E-002
           3  0.25387179330468534     
           4 -0.42529830533497515     
           5  -4.3946843161881625E-002
           6 -0.21781223080839468     
           7 -0.16646757009090882     
           8  0.32914242140349653     
           9 -0.41245427437223448     
          10  0.11735188682091313     
          11 -0.28213347337461658     
          12  0.43785792175205690     
          13   5.2290804202587131E-002
          14   5.2358727017717023E-002
Sym=     7a
Ene=  -0.48503622340607649     
Spin= Alpha
Occup=     2.00000000
           1   1.3725269356873631E-005
           2  -6.8674758602099914E-002
           3 -0.46132978004388997     
           4 -0.27878264665604008     
           5   3.7645521000308953E-006
           6   5.7972226138749604E-002
           7  0.38932392446741659     
           8  0.23527687386395138     
           9   3.8226530404244203E-005
          10  -2.4071526303518213E-002
          11 -0.16162705598920052     
          12  -9.7741340391323137E-002
          13 -0.40174907371734558     
          14  0.40174094390424137     
Sym=     8a
Ene=  -0.43129332129876113     
Spin= Alpha
Occup=     2.00000000
           1  -4.3723748664835048E-002
           2 -0.23108480708181134     
           3   1.8772180050965228E-002
           4   2.5864047435701091E-002
           5  -7.4684320921644620E-002
           6 -0.17709921405869142     
           7 -0.21140325707331672     
           8  0.39338107232587988     
           9  0.53911266008584036     
          10  0.59225285004658546     
          11   6.2268219043174727E-002
          12 -0.24889548483964694     
          13   6.6022365375800279E-002
          14   6.6019139017789968E-002
Sym=     9a
Ene=  -0.30671182678095221     
Spin= Alpha
Occup=     0.00000000
           1   4.7430045972850566E-008
           2  -6.8928719765484217E-002
           3 -0.46301962781860789     
           4 -0.27985262741496825     
           5   4.0945297780047753E-007
           6  -2.7271659160610180E-003
           7  -1.8316270812888402E-002
           8  -1.1070366385243892E-002
           9   5.6621463277729292E-008
          10  0.11975107227310702     
          11  0.80441274777225891     
          12  0.48619315666360274     
          13   7.8389165579209441E-002
          14  -7.8389368105662133E-002
Sym=    10a
Ene=  -0.10108616455481022     
Spin= Alpha
Occup=     0.00000000
           1 -0.14142829797541606     
           2  0.65646390510515518     
           3 -0.10781691932721948     
           4   1.6697816337353212E-002
           5  -3.1764768672246776E-003
           6  -1.0820473434114987E-003
           7 -0.42176136167900830     
           8  0.69806411893755194     
           9   6.6957287232180765E-002
          10 -0.57590743085487106     
          11  0.26690178096329786     
          12 -0.29974239378506007     
          13   3.4516661964596511E-002
          14   3.4522707973612551E-002
Sym=    11a
Ene=    6.3079555417167754E-002
Spin= Alpha
Occup=     0.00000000
           1 -0.35643100110546155     
           2  0.27050208070472365     
           3 -0.22038262826814589     
           4  0.29800219489412616     
           5   1.1207680700455265     
           6  0.28630773110258179     
           7 -0.11001825596614204     
           8  0.11150365125006317     
           9 -0.10375929258554425     
          10  0.40347665159773688     
          11 -0.16439180157748631     
          12  0.17261146519411946     
          13 -0.47332133528004339     
          14 -0.47331858117603287     
Sym=    12a
Ene=   0.16625974525751347     
Spin= Alpha
Occup=     0.00000000
           1  0.42241728454896993     
           2  -9.3209567708270102E-002
           3  0.22396164179725803     
           4 -0.34758780309602960     
           5  0.37752780275348308     
           6 -0.98519047807856930     
           7  0.18112539465661900     
           8  -5.7033132061610557E-002
           9   5.0012087787709859E-002
          10 -0.24647386772612970     
          11  0.20936991016432657     
          12 -0.28569743934365338     
          13 -0.61898941122544793     
          14 -0.61898070198963562     
Sym=    13a
Ene=   0.24630470560127887     
Spin= Alpha
Occup=     0.00000000
           1  -3.5888772438998770E-006
           2   1.4212825738476934E-002
           3   9.5502469777411711E-002
           4   5.7728314530575177E-002
           5  -5.6333494887563867E-006
           6 -0.14225697612194185     
           7 -0.95562247971927339     
           8 -0.57759412894898410     
           9   3.8590225344433070E-006
          10   1.9772362698951683E-002
          11  0.13281694777315642     
          12   8.0284765598811411E-002
          13 -0.85013186352463421     
          14  0.85013889451611491     
Sym=    14a
Ene=   0.39443138996529609     
Spin= Alpha
Occup=     0.00000000
           1  0.52907279553333153     
           2  0.29845859358821281     
           3  0.31141328807982732     
           4 -0.58874747319384646     
           5  0.18348886648878007     
           6  0.49933484145909601     
           7  -8.3268807588294368E-003
           8 -0.10922211990176600     
           9 -0.84235704623926988     
          10  0.56460945703797438     
          11  0.36628780608973865     
          12 -0.74509088322010231     
          13  0.13437167066333228     
          14  0.13438193095882150     
