      -----------------------------------------------------------      
     |                   =====================                   |     
     |                           x T B                           |     
     |                   =====================                   |     
     |                         S. Grimme                         |     
     |          Mulliken Center for Theoretical Chemistry        |     
     |                    University of Bonn                     |     
      -----------------------------------------------------------      

   * xtb version 6.2.2 (9d81278992624c895f80dd42a50cac0aa55982e2) compiled by '@Darwin' on 04/03/2020

   xtb is free software: you can redistribute it and/or modify it under
   the terms of the GNU Lesser General Public License as published by
   the Free Software Foundation, either version 3 of the License, or
   (at your option) any later version.
   
   xtb is distributed in the hope that it will be useful,
   but WITHOUT ANY WARRANTY; without even the implied warranty of
   MERCHANTABILITY or FITNESS FOR A PARTICULAR PURPOSE.  See the
   GNU Lesser General Public License for more details.
   
   Cite this work as:
   * S. Grimme, C. Bannwarth, P. Shushkov, J. Chem. Theory Comput., 2017,
     13, 1989-2009. DOI: 10.1021/acs.jctc.7b00118
   * C. Bannwarth, S. Ehlert and S. Grimme., J. Chem. Theory Comput., 2019,
     15, 1652-1671. DOI: 10.1021/acs.jctc.8b01176
   * P. Pracht, E. Caldeweyher, S. Ehlert, S. Grimme, ChemRxiv, 2019, preprint.
     DOI: 10.26434/chemrxiv.8326202.v1
   
   for DFT-D4:
   * E. Caldeweyher, C. Bannwarth and S. Grimme, J. Chem. Phys., 2017,
     147, 034112. DOI: 10.1063/1.4993215
   * E. Caldeweyher, S. Ehlert, A. Hansen, H. Neugebauer, S. Spicher,
     C. Bannwarth and S. Grimme, J. Chem. Phys., 2019, 150, 154122.
     DOI: 10.1063/1.5090222
   
   for sTDA-xTB:
   * S. Grimme and C. Bannwarth, J. Chem. Phys., 2016, 145, 054103.
     DOI: 10.1063/1.4959605
   
   in the mass-spec context:
   * V. Asgeirsson, C. Bauer and S. Grimme, Chem. Sci., 2017, 8, 4879.
     DOI: 10.1039/c7sc00601b
   
   for metadynamics refer to:
   * S. Grimme, J. Chem. Theory Comput., 2019, 155, 2847-2862
     DOI: 10.1021/acs.jctc.9b00143
   
   with help from (in alphabetical order)
   C. Bannwarth, F. Bohle, G. Brandenburg, E. Caldeweyher, M. Checinski,
   S. Dohm, S. Ehlert, S. Ehrlich, F. März, H. Neugebauer, J. Pisarek,
   P. Pracht, P. Shushkov, and S. Spicher.
   
 * started run on 2020/05/12 at 11:45:23.261     

           -------------------------------------------------
          |                Calculation Setup                |
           -------------------------------------------------

          program call               : xtb --input H2C1N2_10_S_0.input H2C1N2_10_S_0.xyz --ohess --molden --namespace H2C1N2_10_S_0 output.out
          calculation namespace      : H2C1N2_10_S_0
          coordinate file            : H2C1N2_10_S_0.xyz
          number of atoms            :                     5
          number of electrons        :                    16
          charge                     :                     0
          spin                       :                   0.0
          first test random number   :      0.25387144274174

   ID    Z sym.   atoms
    1    7 N      1, 3
    2    6 C      2
    3    1 H      4, 5

           -------------------------------------------------
          |                 G F N 2 - x T B                 |
           -------------------------------------------------

        Reference                      10.1021/acs.jctc.8b01176
      * Hamiltonian:
        H0-scaling (s, p, d)           1.850000    2.230000    2.230000
        zeta-weighting                 0.500000
      * Dispersion:
        s8                             2.700000
        a1                             0.520000
        a2                             5.000000
        s9                             5.000000
      * Repulsion:
        kExp                           1.500000    1.000000
        rExp                           1.000000
      * Coulomb:
        alpha                          2.000000
        third order                    shell-resolved
        anisotropic                    true
        a3                             3.000000
        a5                             4.000000
        cn-shift                       1.200000
        cn-exp                         4.000000
        max-rad                        5.000000


          ...................................................
          :                      SETUP                      :
          :.................................................:
          :  # basis functions                  14          :
          :  # atomic orbitals                  14          :
          :  # shells                            8          :
          :  # electrons                        16          :
          :  max. iterations                   250          :
          :  Hamiltonian                  GFN2-xTB          :
          :  restarted?                      false          :
          :  GBSA solvation                  false          :
          :  PC potential                    false          :
          :  electronic temp.          300.0000000     K    :
          :  accuracy                    1.0000000          :
          :  -> integral cutoff          0.2500000E+02      :
          :  -> integral neglect         0.1000000E-07      :
          :  -> SCF convergence          0.1000000E-05 Eh   :
          :  -> wf. convergence          0.1000000E-03 e    :
          :  Broyden damping             0.4000000          :
          ...................................................

 iter      E             dE          RMSdq      gap      omega  full diag
   1     -8.7515969 -0.875160E+01  0.700E+00    3.13       0.0  T
   2     -8.7785750 -0.269781E-01  0.656E+00    3.20       1.0  T
   3     -8.8564159 -0.778409E-01  0.337E+00    3.24       1.0  T
   4     -8.8544429  0.197300E-02  0.175E+00    3.28       1.0  T
   5     -8.8583571 -0.391419E-02  0.484E-01    3.23       1.0  T
   6     -8.8577021  0.654947E-03  0.589E-01    3.31       1.0  T
   7     -8.8592025 -0.150041E-02  0.472E-02    3.28       1.0  T
   8     -8.8592083 -0.579572E-05  0.139E-02    3.28       3.2  T
   9     -8.8592086 -0.257310E-06  0.323E-03    3.28      13.8  T
  10     -8.8592086 -0.215285E-08  0.126E-03    3.28      35.6  T
  11     -8.8592086 -0.496420E-08  0.871E-04    3.29      51.3  T
  12     -8.8592086 -0.284335E-08  0.776E-05    3.28     575.9  T

   *** convergence criteria satisfied after 12 iterations ***

         #    Occupation            Energy/Eh            Energy/eV
      -------------------------------------------------------------
         1        2.0000           -0.7230507             -19.6752
         2        2.0000           -0.6466780             -17.5970
         3        2.0000           -0.6181280             -16.8201
         4        2.0000           -0.5977608             -16.2659
         5        2.0000           -0.4892060             -13.3120
         6        2.0000           -0.4364452             -11.8763
         7        2.0000           -0.4003512             -10.8941
         8        2.0000           -0.3961753             -10.7805 (HOMO)
         9                         -0.2754541              -7.4955 (LUMO)
        10                         -0.1130466              -3.0762
        11                         -0.0893693              -2.4319
        12                          0.0557939               1.5182
        13                          0.1446212               3.9353
        14                          0.2264869               6.1630
      -------------------------------------------------------------
                  HL-Gap            0.1207213 Eh            3.2850 eV
             Fermi-level           -0.3358147 Eh           -9.1380 eV

 SCC (total)                   0 d,  0 h,  0 min,  0.003 sec
 SCC setup                      ...        0 min,  0.000 sec (  3.162%)
 Dispersion                     ...        0 min,  0.000 sec (  0.421%)
 integral evaluation            ...        0 min,  0.001 sec ( 26.067%)
 zeroth order Hamiltonian       ...        0 min,  0.000 sec (  0.564%)
 iterations                     ...        0 min,  0.001 sec ( 40.153%)
 molecular gradient             ...        0 min,  0.001 sec ( 27.155%)
 printout                       ...        0 min,  0.000 sec (  2.042%)

         :::::::::::::::::::::::::::::::::::::::::::::::::::::
         ::                     SUMMARY                     ::
         :::::::::::::::::::::::::::::::::::::::::::::::::::::
         :: total energy              -8.798081475643 Eh    ::
         :: gradient norm              0.165938919762 Eh/a0 ::
         :: HOMO-LUMO gap              3.284993576615 eV    ::
         ::.................................................::
         :: SCC energy                -8.859208582466 Eh    ::
         :: -> isotropic ES            0.009895546618 Eh    ::
         :: -> anisotropic ES          0.006448723038 Eh    ::
         :: -> anisotropic XC          0.014463451065 Eh    ::
         :: -> dispersion             -0.001441868307 Eh    ::
         :: repulsion energy           0.061127086325 Eh    ::
         :: add. restraining           0.000000000000 Eh    ::
         :::::::::::::::::::::::::::::::::::::::::::::::::::::

      ----------------------------------------------------------- 
     |                   =====================                   |
     |                        A N C O P T                        |
     |                   =====================                   |
     |               Approximate Normal Coordinate               |
     |                Rational Function Optimizer                |
      ----------------------------------------------------------- 

          ...................................................
          :                      SETUP                      :
          :.................................................:
          :   optimization level            normal          :
          :   max. optcycles                   200          :
          :   ANC micro-cycles                  20          :
          :   degrees of freedom                 9          :
          :.................................................:
          :   RF solver                   davidson          :
          :   write xtbopt.log                true          :
          :   linear?                        false          :
          :   energy convergence         0.5000000E-05 Eh   :
          :   grad. convergence          0.1000000E-02 Eh/α :
          :   maximium RF displ.         1.0000000          :
          :   Hlow (freq-cutoff)         0.1000000E-01      :
          :   Hmax (freq-cutoff)         5.0000000          :
          :   S6 in model hess.         20.0000000          :
          ...................................................

generating ANC from model Hessian ...
Using Lindh-Hessian (1995)
 Shifting diagonal of input Hessian by    0.0000000000000000     
 Lowest  eigenvalues of input Hessian
   -0.000000   -0.000000   -0.000000   -0.000000   -0.000000    0.000000
    0.108164    0.131705    0.217628    0.228952    0.473081    0.964915
    1.109195    1.460929    1.837958
 Highest eigenvalues
    0.228952    0.473081    0.964915    1.109195    1.460929    1.837958


........................................................................
.............................. CYCLE    1 ..............................
........................................................................
   1     -8.8592086 -0.885921E+01  0.622E-05    3.28       0.0  T
   2     -8.8592086  0.341931E-10  0.104E-04    3.28     429.2  T
   3     -8.8592086 -0.528697E-10  0.578E-06    3.28    7735.2  T
     SCC iter.                  ...        0 min,  0.000 sec
     gradient                   ...        0 min,  0.001 sec
 * total energy  :    -8.7980815 Eh     change       -0.1456932E-09 Eh
   gradient norm :     0.1659396 Eh/α   predicted     0.0000000E+00 (-100.00%)
   displ. norm   :     0.2462206 α      lambda       -0.3200904E-01
   maximum displ.:     0.1813553 α      in ANC's #4, #7, #2, ...

........................................................................
.............................. CYCLE    2 ..............................
........................................................................
   1     -8.8939393 -0.889394E+01  0.208E+00    3.79       0.0  T
   2     -8.8948622 -0.922916E-03  0.116E+00    3.80       1.0  T
   3     -8.8965839 -0.172173E-02  0.829E-01    3.72       1.0  T
   4     -8.8985195 -0.193555E-02  0.186E-01    3.73       1.0  T
   5     -8.8985775 -0.579761E-04  0.441E-02    3.71       1.0  T
   6     -8.8985777 -0.230978E-06  0.650E-03    3.71       6.9  T
   7     -8.8985777  0.233378E-07  0.406E-03    3.71      11.0  T
   8     -8.8985777 -0.371612E-07  0.678E-04    3.71      65.9  T
   9     -8.8985777 -0.129560E-09  0.128E-04    3.71     350.7  T
     SCC iter.                  ...        0 min,  0.001 sec
     gradient                   ...        0 min,  0.001 sec
 * total energy  :    -8.8222091 Eh     change       -0.2412764E-01 Eh
   gradient norm :     0.0779160 Eh/α   predicted    -0.1697478E-01 ( -29.65%)
   displ. norm   :     0.2104888 α      lambda       -0.1322573E-01
   maximum displ.:     0.1695306 α      in ANC's #4, #7, #5, ...

........................................................................
.............................. CYCLE    3 ..............................
........................................................................
   1     -8.9259701 -0.892597E+01  0.177E+00    4.23       0.0  T
   2     -8.9276926 -0.172253E-02  0.788E-01    4.21       1.0  T
   3     -8.9276416  0.509705E-04  0.494E-01    4.16       1.0  T
   4     -8.9281933 -0.551713E-03  0.151E-01    4.16       1.0  T
   5     -8.9282380 -0.447061E-04  0.364E-02    4.15       1.2  T
   6     -8.9282382 -0.126118E-06  0.593E-03    4.14       7.5  T
   7     -8.9282382 -0.195164E-07  0.143E-03    4.14      31.2  T
   8     -8.9282382 -0.933241E-09  0.493E-04    4.14      90.7  T
   9     -8.9282382 -0.103684E-09  0.103E-04    4.14     434.9  T
     SCC iter.                  ...        0 min,  0.001 sec
     gradient                   ...        0 min,  0.001 sec
 * total energy  :    -8.8259623 Eh     change       -0.3753210E-02 Eh
   gradient norm :     0.0741387 Eh/α   predicted    -0.6905852E-02 (  84.00%)
   displ. norm   :     0.0511696 α      lambda       -0.3569383E-02
   maximum displ.:     0.0438905 α      in ANC's #7, #6, #9, ...

........................................................................
.............................. CYCLE    4 ..............................
........................................................................
   1     -8.9164586 -0.891646E+01  0.577E-01    3.91       0.0  T
   2     -8.9165558 -0.972158E-04  0.319E-01    3.91       1.0  T
   3     -8.9166173 -0.614235E-04  0.224E-01    3.94       1.0  T
   4     -8.9167346 -0.117376E-03  0.443E-02    3.94       1.0  T
   5     -8.9167369 -0.224846E-05  0.169E-02    3.95       2.6  T
   6     -8.9167370 -0.945376E-07  0.302E-03    3.95      14.8  T
   7     -8.9167370 -0.698945E-08  0.359E-04    3.95     124.7  T
   8     -8.9167370 -0.373657E-10  0.152E-04    3.95     293.6  T
     SCC iter.                  ...        0 min,  0.001 sec
     gradient                   ...        0 min,  0.001 sec
 * total energy  :    -8.8276189 Eh     change       -0.1656545E-02 Eh
   gradient norm :     0.0081837 Eh/α   predicted    -0.1789365E-02 (   8.02%)
   displ. norm   :     0.0244848 α      lambda       -0.1528727E-03
   maximum displ.:     0.0223146 α      in ANC's #4, #6, #7, ...

........................................................................
.............................. CYCLE    5 ..............................
........................................................................
   1     -8.9169151 -0.891692E+01  0.123E-01    3.96       0.0  T
   2     -8.9169263 -0.111362E-04  0.488E-02    3.96       1.0  T
   3     -8.9169266 -0.373584E-06  0.194E-02    3.96       2.3  T
   4     -8.9169265  0.918761E-07  0.925E-03    3.96       4.8  T
   5     -8.9169268 -0.224565E-06  0.346E-03    3.96      12.9  T
   6     -8.9169268 -0.168462E-08  0.531E-04    3.96      84.2  T
   7     -8.9169268 -0.113866E-09  0.105E-04    3.96     424.2  T
     SCC iter.                  ...        0 min,  0.001 sec
     gradient                   ...        0 min,  0.001 sec
 * total energy  :    -8.8277252 Eh     change       -0.1063535E-03 Eh
   gradient norm :     0.0038856 Eh/α   predicted    -0.7648360E-04 ( -28.09%)
   displ. norm   :     0.0151619 α      lambda       -0.4415987E-04
   maximum displ.:     0.0126407 α      in ANC's #4, #6, #7, ...

........................................................................
.............................. CYCLE    6 ..............................
........................................................................
   1     -8.9168174 -0.891682E+01  0.796E-02    3.96       0.0  T
   2     -8.9168213 -0.395747E-05  0.340E-02    3.96       1.3  T
   3     -8.9168215 -0.183190E-06  0.127E-02    3.96       3.5  T
   4     -8.9168215  0.147788E-07  0.534E-03    3.96       8.4  T
   5     -8.9168215 -0.584024E-07  0.230E-03    3.96      19.5  T
   6     -8.9168216 -0.163277E-08  0.373E-04    3.96     120.1  T
   7     -8.9168216 -0.512603E-10  0.718E-05    3.96     623.1  T
     SCC iter.                  ...        0 min,  0.000 sec
     gradient                   ...        0 min,  0.001 sec
 * total energy  :    -8.8277489 Eh     change       -0.2371806E-04 Eh
   gradient norm :     0.0010344 Eh/α   predicted    -0.2208546E-04 (  -6.88%)
   displ. norm   :     0.0027307 α      lambda       -0.1754565E-05
   maximum displ.:     0.0022237 α      in ANC's #6, #2, #4, ...

........................................................................
.............................. CYCLE    7 ..............................
........................................................................
   1     -8.9167768 -0.891678E+01  0.162E-02    3.96       0.0  T
   2     -8.9167769 -0.343839E-07  0.911E-03    3.96       4.9  T
   3     -8.9167768  0.925707E-07  0.614E-03    3.96       7.3  T
   4     -8.9167769 -0.137657E-06  0.931E-04    3.96      48.0  T
   5     -8.9167769 -0.737801E-09  0.324E-04    3.96     137.9  T
     SCC iter.                  ...        0 min,  0.000 sec
     gradient                   ...        0 min,  0.001 sec
 * total energy  :    -8.8277505 Eh     change       -0.1596707E-05 Eh
   gradient norm :     0.0002855 Eh/α   predicted    -0.8758269E-06 ( -45.15%)
   displ. norm   :     0.0026288 α      lambda       -0.4378066E-06
   maximum displ.:     0.0022529 α      in ANC's #4, #2, #6, ...

   *** GEOMETRY OPTIMIZATION CONVERGED AFTER 7 ITERATIONS ***

------------------------------------------------------------------------
 total energy gain   :        -0.0296691 Eh      -18.6176 kcal/mol
 total RMSD          :         0.2016668 a0        0.1067 Å
 total power (kW/mol):       -11.1280175 (step)-4904.6750 (real)
------------------------------------------------------------------------

 ANCopt (total)                0 d,  0 h,  0 min,  0.016 sec
 optimizer setup                ...        0 min,  0.000 sec (  0.485%)
 model hessian                  ...        0 min,  0.000 sec (  0.686%)
 ANC generation                 ...        0 min,  0.000 sec (  0.372%)
 coordinate transformation      ...        0 min,  0.000 sec (  0.119%)
 single point calculation       ...        0 min,  0.015 sec ( 94.436%)
 optimization log               ...        0 min,  0.000 sec (  1.038%)
 hessian update                 ...        0 min,  0.000 sec (  0.120%)
 rational function              ...        0 min,  0.000 sec (  1.302%)

================
 final structure:
================
5
 xtb: 6.2.2 (9d81278992624c895f80dd42a50cac0aa55982e2)
N        -0.31405990357364    0.00053057628020   -0.03594565195832
C         1.08489609973458   -0.10751224706156   -0.58699866398371
N         0.95012870672201    0.08104703043374    0.66495975561682
H        -0.84461520044879    0.86155017888385   -0.14710602033901
H        -0.87634870243415   -0.83561553853622    0.10509058066423

 Bond Distances (Angstroems)
 ---------------------------
N1-C2=1.5075         N1-N3=1.4477         N1-H4=1.0174         N1-H5=1.0174         C2-N1=1.5075         C2-N3=1.2732         
N3-N1=1.4477         N3-C2=1.2732         H4-N1=1.0174         H5-N1=1.0174         
 N  H  Rav=1.0174 sigma=0.0000  Rmin=1.0174  Rmax=1.0174     2
 N  C  Rav=1.3903 sigma=0.1171  Rmin=1.2732  Rmax=1.5075     2
 N  N  Rav=1.4477 sigma=0.0000  Rmin=1.4477  Rmax=1.4477     1

 selected bond angles (degree)
 --------------------
N3-N1-C2= 50.99                H4-N1-C2=120.31                H4-N1-N3=117.46                H5-N1-C2=120.31                
H5-N1-N3=117.46                H5-N1-H4=114.99                N3-C2-N1= 62.08                C2-N3-N1= 66.93                

 selected dihedral angles (degree)
 ---------------------------------
N3-C2-N1-H4=102.36            N3-C2-N1-H5=257.64            C2-N3-N1-H4=251.89            C2-N3-N1-H5=108.11            
           -------------------------------------------------
          |                Final Singlepoint                |
           -------------------------------------------------

          ...................................................
          :                      SETUP                      :
          :.................................................:
          :  # basis functions                  14          :
          :  # atomic orbitals                  14          :
          :  # shells                            8          :
          :  # electrons                        16          :
          :  max. iterations                   250          :
          :  Hamiltonian                  GFN2-xTB          :
          :  restarted?                      false          :
          :  GBSA solvation                  false          :
          :  PC potential                    false          :
          :  electronic temp.          300.0000000     K    :
          :  accuracy                    1.0000000          :
          :  -> integral cutoff          0.2500000E+02      :
          :  -> integral neglect         0.1000000E-07      :
          :  -> SCF convergence          0.1000000E-05 Eh   :
          :  -> wf. convergence          0.1000000E-03 e    :
          :  Broyden damping             0.4000000          :
          ...................................................

 iter      E             dE          RMSdq      gap      omega  full diag
   1     -8.9167769 -0.891678E+01  0.695E-05    3.96       0.0  T
   2     -8.9167769 -0.140687E-11  0.384E-05    3.96    1165.5  T
   3     -8.9167769  0.128253E-11  0.268E-05    3.96    1666.8  T

   *** convergence criteria satisfied after 3 iterations ***

         #    Occupation            Energy/Eh            Energy/eV
      -------------------------------------------------------------
         1        2.0000           -0.7159578             -19.4822
         2        2.0000           -0.6499335             -17.6856
         3        2.0000           -0.6061795             -16.4950
         4        2.0000           -0.5747360             -15.6394
         5        2.0000           -0.5224560             -14.2168
         6        2.0000           -0.4309669             -11.7272
         7        2.0000           -0.4277375             -11.6393
         8        2.0000           -0.3797129             -10.3325 (HOMO)
         9                         -0.2341507              -6.3716 (LUMO)
        10                         -0.1015028              -2.7620
        11                         -0.1012536              -2.7553
        12                          0.0918863               2.5004
        13                          0.1600492               4.3552
        14                          0.4680767              12.7370
      -------------------------------------------------------------
                  HL-Gap            0.1455623 Eh            3.9610 eV
             Fermi-level           -0.3069318 Eh           -8.3520 eV

 SCC (total)                   0 d,  0 h,  0 min,  0.002 sec
 SCC setup                      ...        0 min,  0.000 sec (  2.577%)
 Dispersion                     ...        0 min,  0.000 sec (  0.411%)
 integral evaluation            ...        0 min,  0.001 sec ( 39.736%)
 zeroth order Hamiltonian       ...        0 min,  0.000 sec (  0.573%)
 iterations                     ...        0 min,  0.000 sec ( 14.042%)
 molecular gradient             ...        0 min,  0.001 sec ( 39.699%)
 printout                       ...        0 min,  0.000 sec (  2.564%)

         :::::::::::::::::::::::::::::::::::::::::::::::::::::
         ::                     SUMMARY                     ::
         :::::::::::::::::::::::::::::::::::::::::::::::::::::
         :: total energy              -8.827750541131 Eh    ::
         :: gradient norm              0.000286678187 Eh/a0 ::
         :: HOMO-LUMO gap              3.960950800134 eV    ::
         ::.................................................::
         :: SCC energy                -8.916776907083 Eh    ::
         :: -> isotropic ES            0.005983137950 Eh    ::
         :: -> anisotropic ES          0.006788920265 Eh    ::
         :: -> anisotropic XC          0.012902128136 Eh    ::
         :: -> dispersion             -0.001444455728 Eh    ::
         :: repulsion energy           0.089026347269 Eh    ::
         :: add. restraining           0.000000000000 Eh    ::
         :::::::::::::::::::::::::::::::::::::::::::::::::::::

           ------------------------------------------------- 
          |                Numerical Hessian                |
           ------------------------------------------------- 
step length          :   0.00500
SCC accuracy         :   0.30000
Hessian scale factor :   1.00000
frozen atoms in %    :   0.00000    0
RMS gradient         :   0.00029
estimated CPU  time      0.00 min
estimated wall time      0.00 min

writing file <hessian>.

 projected vibrational frequencies (cm-1)
eigval :       -0.00    -0.00     0.00     0.00     0.00     0.00
eigval :      788.82   824.49   858.17   999.29  1043.27  1471.43
eigval :     1708.56  3299.55  3306.49
           -------------------------------------------------
          |                Property Printout                |
           -------------------------------------------------

    * Orbital Energies and Occupations

         #    Occupation            Energy/Eh            Energy/eV
      -------------------------------------------------------------
         1        2.0000           -0.7159579             -19.4822
         2        2.0000           -0.6499336             -17.6856
         3        2.0000           -0.6061795             -16.4950
         4        2.0000           -0.5747360             -15.6394
         5        2.0000           -0.5224561             -14.2168
         6        2.0000           -0.4309670             -11.7272
         7        2.0000           -0.4277375             -11.6393
         8        2.0000           -0.3797131             -10.3325 (HOMO)
         9                         -0.2341508              -6.3716 (LUMO)
        10                         -0.1015027              -2.7620
        11                         -0.1012538              -2.7553
        12                          0.0918863               2.5004
        13                          0.1600492               4.3552
        14                          0.4680766              12.7370
      -------------------------------------------------------------
                  HL-Gap            0.1455622 Eh            3.9610 eV
             Fermi-level           -0.3069319 Eh           -8.3520 eV

     #   Z        covCN         q      C6AA      α(0)
     1   7 N      3.597     0.003    21.198     6.838
     2   6 C      1.813    -0.127    34.750     9.525
     3   7 N      1.885    -0.206    26.315     7.605
     4   1 H      0.860     0.165     1.304     1.789
     5   1 H      0.860     0.165     1.304     1.789

 Mol. C6AA /au·bohr⁶  :        319.991064
 Mol. C8AA /au·bohr⁸  :       7267.175295
 Mol. α(0) /au        :         27.546290


Wiberg/Mayer (AO) data.
largest (>0.10) Wiberg bond orders for each atom
Molecule has the following symmetry elements: (sigma) 
It seems to be the Cs point group
          total WBO             WBO to atom ...
     1  N   3.591        H    4 0.949    H    5 0.949    N    3 0.907    C    2 0.786
     2  C   2.698        N    3 1.893    N    1 0.786
     3  N   2.828        C    2 1.893    N    1 0.907
     4  H   0.973        N    1 0.949
     5  H   0.973        N    1 0.949

MOs/occ written to file <molden.input>


molecular dipole:
                 x           y           z       tot (Debye)
 q only:       -1.168       0.002      -0.132
   full:       -1.750       0.038       0.034       4.449
molecular quadrupole (traceless):
                xx          xy          yy          xz          yz          zz
 q only:       -0.512      -0.002       1.231      -0.236      -0.292      -0.719
  q+dip:       -1.855       0.122       3.390       0.146      -0.751      -1.534
   full:       -1.236       0.158       3.857       0.402      -0.992      -2.620

           -------------------------------------------------
          |                Geometry Summary                 |
           -------------------------------------------------

      molecular mass/u    :       42.0400238
   center of mass at/Å    :        0.4806135      -0.0029170       0.0408589
  moments of inertia/u·Å² :        0.1196020E+02   0.2146412E+02   0.3045596E+02
rotational constants/cm⁻¹ :        0.1409478E+01   0.7853865E+00   0.5535086E+00

 * 3 selected distances

     #   Z        #   Z                                     value/Å
     2   6 C      3   7 N                                 1.2732308 (max)
     1   7 N      4   1 H                                 1.0174479
     1   7 N      5   1 H                                 1.0174479 (min)

 * 2 distinct bonds (by element types)

   Z      Z             #   av. dist./Å        max./Å        min./Å
   1 H    7 N           2     1.0174479     1.0174479     1.0174479
   6 C    7 N           1     1.2732308     1.2732308     1.2732308

           -------------------------------------------------
          |               Frequency Printout                |
           -------------------------------------------------
 projected vibrational frequencies (cm-1)
eigval :       -0.00    -0.00     0.00     0.00     0.00     0.00
eigval :      788.82   824.49   858.17   999.29  1043.27  1471.43
eigval :     1708.56  3299.55  3306.49
 reduced masses (amu)
   1: 11.38   2: 12.35   3: 11.60   4: 12.47   5: 12.95   6: 11.59   7:  5.27   8:  2.62
   9: 11.16  10: 13.18  11:  3.39  12:  1.78  13: 12.83  14:  1.38  15:  2.18
 IR intensities (amu)
   1:  0.46   2:  0.10   3:  0.21   4:  0.15   5:  0.35   6:  0.10   7:  0.54   8:  0.02
   9:  0.52  10:  0.53  11:  0.11  12:  0.25  13:  0.51  14:  0.06  15:  0.05
 Raman intensities (amu)
   1:  0.00   2:  0.00   3:  0.00   4:  0.00   5:  0.00   6:  0.00   7:  0.00   8:  0.00
   9:  0.00  10:  0.00  11:  0.00  12:  0.00  13:  0.00  14:  0.00  15:  0.00
 output can be read by thermo (or use thermo option).
 writing <g98.out> molden fake output.
 recommended (thermochemical) frequency scaling factor: 1.0
           -------------------------------------------------
          |             Thermodynamic Functions             |
           -------------------------------------------------

cs  symmetry found (for desy threshold:  0.10E+00) used in thermo

          ...................................................
          :                      SETUP                      :
          :.................................................:
          :  # frequencies                           9      :
          :  # imaginary freq.                       0      :
          :  linear?                             false      :
          :  only rotor calc.                    false      :
          :  symmetry                               cs      :
          :  rotational number                       1      :
          :  scaling factor                  1.0000000      :
          :  rotor cutoff                   50.0000000 cm⁻¹ :
          :  imag. cutoff                  -20.0000000 cm⁻¹ :
          :.................................................:

    mode    ω/cm⁻¹     T·S(HO)/kcal·mol⁻¹    T·S(FR)/kcal·mol⁻¹   T·S(vib)
   ------------------------------------------------------------------------
   ------------------------------------------------------------------------

   temp. (K)  partition function   enthalpy   heat capacity  entropy
                                   cal/mol     cal/K/mol   cal/K/mol   J/K/mol
 298.15  VIB   1.08                  183.345      2.669      0.760
         ROT  0.675E+04              888.752      2.981     20.505
         INT  0.727E+04             1072.098      5.650     21.265
         TR   0.264E+27             1481.254      4.968     37.118
         TOT                        2553.3516    10.6178    58.3829   244.2741

   temp. (K)  partition function   enthalpy   heat capacity  entropy
                                   cal/mol     cal/K/mol   cal/K/mol   J/K/mol
 120.00  VIB   1.00                    0.409      0.034      0.004
         ROT  0.172E+04              357.707      2.981     17.792
         INT  0.173E+04              358.115      3.015     17.795
         TR   0.673E+26              596.178      4.968     32.599
         TOT                         954.2934     7.9829    50.3942   210.8492

   temp. (K)  partition function   enthalpy   heat capacity  entropy
                                   cal/mol     cal/K/mol   cal/K/mol   J/K/mol
 100.00  VIB   1.00                    0.056      0.007      0.001
         ROT  0.131E+04              298.089      2.981     17.248
         INT  0.131E+04              298.145      2.988     17.249
         TR   0.512E+26              496.815      4.968     31.693
         TOT                         794.9604     7.9557    48.9422   204.7741

   temp. (K)  partition function   enthalpy   heat capacity  entropy
                                   cal/mol     cal/K/mol   cal/K/mol   J/K/mol
  80.00  VIB   1.00                    0.003      0.001      0.000
         ROT   939.                  238.471      2.981     16.583
         INT   939.                  238.474      2.981     16.583
         TR   0.367E+26              397.452      4.968     30.585
         TOT                         635.9262     7.9496    47.1684   197.3524

   temp. (K)  partition function   enthalpy   heat capacity  entropy
                                   cal/mol     cal/K/mol   cal/K/mol   J/K/mol
  60.00  VIB   1.00                    0.000      0.000     -0.000
         ROT   610.                  178.853      2.981     15.725
         INT   610.                  178.853      2.981     15.725
         TR   0.238E+26              298.089      4.968     29.157
         TOT                         476.9424     7.9490    44.8822   187.7872

   temp. (K)  partition function   enthalpy   heat capacity  entropy
                                   cal/mol     cal/K/mol   cal/K/mol   J/K/mol
  40.00  VIB   1.00                    0.000      0.000     -0.000
         ROT   332.                  119.236      2.981     14.517
         INT   332.                  119.236      2.981     14.517
         TR   0.130E+26              198.726      4.968     27.143
         TOT                         317.9616     7.9490    41.6601   174.3059

   temp. (K)  partition function   enthalpy   heat capacity  entropy
                                   cal/mol     cal/K/mol   cal/K/mol   J/K/mol
  20.00  VIB   1.00                    0.000      0.000     -0.000
         ROT   117.                   59.618      2.981     12.451
         INT   117.                   59.618      2.981     12.450
         TR   0.458E+25               99.363      4.968     23.701
         TOT                         158.9808     7.9490    36.1519   151.2596

   temp. (K)  partition function   enthalpy   heat capacity  entropy
                                   cal/mol     cal/K/mol   cal/K/mol   J/K/mol
  10.00  VIB   1.00                    0.000      0.000     -0.000
         ROT   41.5                   29.809      2.981     10.384
         INT   41.5                   29.809      2.981     10.384
         TR   0.162E+25               49.681      4.968     20.259
         TOT                          79.4904     7.9490    30.6437   128.2132

       T/K    H(0)-H(T)+PV         H(T)/Eh          T*S/Eh         G(T)/Eh
   ------------------------------------------------------------------------
    298.15    0.406902E-02    0.366470E-01    0.277396E-01    0.890740E-02
    120.00    0.152076E-02    0.340987E-01    0.963699E-02    0.244618E-01
    100.00    0.126685E-02    0.338448E-01    0.779943E-02    0.260454E-01
     80.00    0.101341E-02    0.335914E-01    0.601341E-02    0.275780E-01
     60.00    0.760056E-03    0.333380E-01    0.429146E-02    0.290466E-01
     40.00    0.506704E-03    0.330847E-01    0.265558E-02    0.304291E-01
     20.00    0.253352E-03    0.328313E-01    0.115223E-02    0.316791E-01
     10.00    0.126676E-03    0.327047E-01    0.488338E-03    0.322163E-01 (used)
   ------------------------------------------------------------------------

         :::::::::::::::::::::::::::::::::::::::::::::::::::::
         ::                  THERMODYNAMIC                  ::
         :::::::::::::::::::::::::::::::::::::::::::::::::::::
         :: total free energy          -8.795534228370 Eh   ::
         ::.................................................::
         :: total energy               -8.827750541177 Eh   ::
         :: zero point energy           0.032577975149 Eh   ::
         :: G(RRHO) w/o ZPVE           -0.000361662342 Eh   ::
         :: G(RRHO) contrib.            0.032216312807 Eh   ::
         :::::::::::::::::::::::::::::::::::::::::::::::::::::

optimized geometry written to: xtbopt.xyz


           -------------------------------------------------
          | TOTAL ENERGY               -8.827750541177 Eh   |
          | TOTAL ENTHALPY             -8.795045890013 Eh   |
          | TOTAL FREE ENERGY          -8.795534228370 Eh   |
          | GRADIENT NORM               0.000286722266 Eh/α |
          | HOMO-LUMO GAP               3.960950369317 eV   |
           -------------------------------------------------

------------------------------------------------------------------------
 * finished run on 2020/05/12 at 11:45:23.363     
------------------------------------------------------------------------
 total:
 * wall-time:     0 d,  0 h,  0 min,  0.101 sec
 *  cpu-time:     0 d,  0 h,  0 min,  0.101 sec
 * ratio c/w:     0.999 speedup
 SCF:
 * wall-time:     0 d,  0 h,  0 min,  0.003 sec
 *  cpu-time:     0 d,  0 h,  0 min,  0.003 sec
 * ratio c/w:     1.000 speedup
 ANC optimizer:
 * wall-time:     0 d,  0 h,  0 min,  0.019 sec
 *  cpu-time:     0 d,  0 h,  0 min,  0.019 sec
 * ratio c/w:     1.000 speedup
 numerical hessian:
 * wall-time:     0 d,  0 h,  0 min,  0.062 sec
 *  cpu-time:     0 d,  0 h,  0 min,  0.062 sec
 * ratio c/w:     0.999 speedup

