5
 energy: -8.513575741750 gnorm: 0.187685169549 xtb: 6.2.2 (9d81278992624c895f80dd42a50cac0aa55982e2)
C         0.83659900000000   -0.62787100000000   -0.19159600000000
C        -0.40574300000000    0.05694500000000    0.34352200000000
C        -0.55384000000000    1.42564900000000   -0.29030000000000
C        -1.62280600000000   -0.78158900000000    0.01537500000000
H         1.74579000000000   -0.07313400000000    0.12299900000000
5
 energy: -8.558484178967 gnorm: 0.093845412603 xtb: 6.2.2 (9d81278992624c895f80dd42a50cac0aa55982e2)
C         0.82101884424235   -0.59445515627658   -0.15940274368727
C        -0.41811742386623    0.01734718958513    0.26918730824040
C        -0.52657856973454    1.31248882685190   -0.25200842312849
C        -1.60607868169400   -0.69876532856191    0.03125759716828
H         1.72975583105241   -0.03661553159853    0.11096626140708
5
 energy: -8.592807143606 gnorm: 0.133930070629 xtb: 6.2.2 (9d81278992624c895f80dd42a50cac0aa55982e2)
C         0.85907633252873   -0.51130059627774   -0.12666650552934
C        -0.44082924131757   -0.11738992944082    0.20390689131888
C        -0.47685989227876    1.11745214234226   -0.22023132224434
C        -1.69980496724569   -0.53669541743387    0.05057026013291
H         1.75841776831328    0.04793380081017    0.09242067632189
5
 energy: -8.619037344345 gnorm: 0.130758422485 xtb: 6.2.2 (9d81278992624c895f80dd42a50cac0aa55982e2)
C         0.91361293957809   -0.43304211259204   -0.11051264228149
C        -0.43454378958176   -0.30216361902506    0.13627043193972
C        -0.43548171095756    0.98476867662491   -0.20886913688848
C        -1.82653290354732   -0.38554770676751    0.08736296419545
H         1.78294546450855    0.13598476175970    0.09574838303480
5
 energy: -8.655971128465 gnorm: 0.100836944219 xtb: 6.2.2 (9d81278992624c895f80dd42a50cac0aa55982e2)
C         0.86995016761780   -0.29173679987163   -0.09307379044991
C        -0.43709184144249   -0.47755134013941    0.14715246529068
C        -0.42987917300902    0.89360286339955   -0.23981819229549
C        -1.80379765017535   -0.25423288051208    0.09433657332651
H         1.80081849700906    0.12991815712357    0.09140294412821
5
 energy: -8.704725727414 gnorm: 0.060701060618 xtb: 6.2.2 (9d81278992624c895f80dd42a50cac0aa55982e2)
C         0.73381280595248   -0.03878910105767   -0.10527896848484
C        -0.44542342210996   -0.67263005525777    0.23341919570632
C        -0.44842093535360    0.78720962860436   -0.31847840573622
C        -1.68097788982235   -0.11329247683324    0.08571124137501
H         1.84100944133342    0.03750200454431    0.10462693713972
5
 energy: -8.612799797506 gnorm: 0.785586278150 xtb: 6.2.2 (9d81278992624c895f80dd42a50cac0aa55982e2)
C         0.63396969052470    0.10978899469022   -0.10215045397792
C        -0.46660267511029   -0.84041744283118    0.32854914315399
C        -0.26632161883516    0.65363799026532   -0.35845273776777
C        -1.62312385563963   -0.03952064246191    0.06764877565302
H         1.72207845906037    0.11651110033755    0.06440527293868
5
 energy: -8.710655573869 gnorm: 0.056414368119 xtb: 6.2.2 (9d81278992624c895f80dd42a50cac0aa55982e2)
C         0.72573776333065    0.00865237833454   -0.07193487675822
C        -0.44143796998564   -0.78509417495600    0.30582473681377
C        -0.40373060146751    0.71026011372750   -0.34093770473003
C        -1.62412799223504   -0.01114640630132    0.05208258728853
H         1.74355880035753    0.07732808919528    0.05496525738595
5
 energy: -8.705469178103 gnorm: 0.139535888576 xtb: 6.2.2 (9d81278992624c895f80dd42a50cac0aa55982e2)
C         0.69436711092066    0.00095408549565   -0.04839710702800
C        -0.50161702235501   -0.70349571217723    0.28286858971942
C        -0.37376621975135    0.81457824012698   -0.33218966626490
C        -1.61427366786056   -0.14650216017181    0.05942094235043
H         1.79528979904627    0.03446554672641    0.03829724122305
5
 energy: -8.711673465511 gnorm: 0.040501552343 xtb: 6.2.2 (9d81278992624c895f80dd42a50cac0aa55982e2)
C         0.72696949016143    0.03243904729369   -0.06476736155897
C        -0.47669656594507   -0.75403229971805    0.27541806002621
C        -0.40045068916912    0.73993141281285   -0.33366384687598
C        -1.66955455387606   -0.06711012193853    0.06597756583223
H         1.81973231882882    0.04877196155002    0.05703558257652
5
 energy: -8.705793991385 gnorm: 0.072229785029 xtb: 6.2.2 (9d81278992624c895f80dd42a50cac0aa55982e2)
C         0.69744517584057   -0.04535560557046   -0.01145225166784
C        -0.42968886980826   -0.75626077668563    0.34109376267574
C        -0.37123689487535    0.72587905647153   -0.32963413927903
C        -1.59879098015601   -0.03988964614132    0.00689999015383
H         1.70227156899904    0.11562697192588   -0.00690736188270
5
 energy: -8.713894493290 gnorm: 0.012117155102 xtb: 6.2.2 (9d81278992624c895f80dd42a50cac0aa55982e2)
C         0.71363597528982    0.01432044200612   -0.03770597150735
C        -0.46702234051503   -0.75322079351544    0.30430489758606
C        -0.38967260968760    0.74010569636635   -0.33429103627227
C        -1.63248617232997   -0.06242604194291    0.04127983349357
H         1.77554514724277    0.06122069708587    0.02641227670000
5
 energy: -8.713903408643 gnorm: 0.014770718329 xtb: 6.2.2 (9d81278992624c895f80dd42a50cac0aa55982e2)
C         0.71703307947774    0.03245797160855   -0.07255390397691
C        -0.46109988598130   -0.74655269902887    0.28422128156442
C        -0.39559388804563    0.75253124548096   -0.33899460992750
C        -1.62696019330348   -0.07593539073008    0.06610341351862
H         1.76662088785267    0.03749887266944    0.06122381882136
5
 energy: -8.714152695014 gnorm: 0.008151598800 xtb: 6.2.2 (9d81278992624c895f80dd42a50cac0aa55982e2)
C         0.71192597812116    0.02802520440786   -0.04611436544091
C        -0.46674374680352   -0.74738965718601    0.29056023900433
C        -0.39093261680571    0.75191852848268   -0.33507533216936
C        -1.62987826731240   -0.07709685710916    0.05261423915764
H         1.77562865280046    0.04454278140462    0.03801521944830
5
 energy: -8.714209972707 gnorm: 0.005328468185 xtb: 6.2.2 (9d81278992624c895f80dd42a50cac0aa55982e2)
C         0.71129483068383    0.02755511223191   -0.03810070834274
C        -0.46606370413671   -0.74765386906745    0.28988309743411
C        -0.38795168669933    0.75283399433140   -0.33336181926453
C        -1.63106116153634   -0.07913145650110    0.04993855130102
H         1.77378172168855    0.04639621900523    0.03164087887214
5
 energy: -8.714293143533 gnorm: 0.004986211893 xtb: 6.2.2 (9d81278992624c895f80dd42a50cac0aa55982e2)
C         0.70823015008698    0.03569369824503   -0.02565660733736
C        -0.46221146940325   -0.74874381015304    0.28578926379307
C        -0.38741158630625    0.75717342784914   -0.33207223920170
C        -1.62991058771103   -0.08424608779341    0.04787888290962
H         1.77130349333354    0.04012277185226    0.02406069983638
5
 energy: -8.714334047015 gnorm: 0.004143777815 xtb: 6.2.2 (9d81278992624c895f80dd42a50cac0aa55982e2)
C         0.70804974800022    0.04213054706679   -0.02190053072168
C        -0.45888883079077   -0.74668372725705    0.27992899352939
C        -0.38673005385713    0.76328306278605   -0.33136403796806
C        -1.63144125585951   -0.09225319850446    0.04992497012983
H         1.76901039250719    0.03352331590867    0.02341060503052
5
 energy: -8.714351439738 gnorm: 0.002882998484 xtb: 6.2.2 (9d81278992624c895f80dd42a50cac0aa55982e2)
C         0.70788114845393    0.04591024426173   -0.02135283952682
C        -0.45661935905057   -0.74497555426812    0.27911193264721
C        -0.38860340528202    0.76638221100682   -0.33202978003288
C        -1.63179922653493   -0.09583722856265    0.05034788999705
H         1.76914084241359    0.02852032756221    0.02392279691544
5
 energy: -8.714362576473 gnorm: 0.001117025634 xtb: 6.2.2 (9d81278992624c895f80dd42a50cac0aa55982e2)
C         0.70833280289941    0.04699962872307   -0.02159042595766
C        -0.45539081025662   -0.74201023951574    0.28119584256247
C        -0.38992474923965    0.76875065967420   -0.33292095998040
C        -1.63282142416079   -0.09924221355536    0.04945637212629
H         1.76980418075765    0.02550216467382    0.02385917124931
5
 energy: -8.714369828897 gnorm: 0.001904704309 xtb: 6.2.2 (9d81278992624c895f80dd42a50cac0aa55982e2)
C         0.70871870335730    0.04662333525099   -0.02059243979913
C        -0.45507086980310   -0.73837244806003    0.28756058058901
C        -0.39075295519007    0.76966309172626   -0.33423346013262
C        -1.63365095323525   -0.10184178000358    0.04590481384765
H         1.77075607487111    0.02392780108635    0.02136050549508
5
 energy: -8.714376634182 gnorm: 0.002090482918 xtb: 6.2.2 (9d81278992624c895f80dd42a50cac0aa55982e2)
C         0.70881729991782    0.04628307045683   -0.01905620830990
C        -0.45544364392024   -0.73607228366462    0.29437346445772
C        -0.39055795895748    0.76858186529175   -0.33536025806160
C        -1.63369589276208   -0.10254652542109    0.04196409921067
H         1.77088019572198    0.02375387333713    0.01807890270311
5
 energy: -8.714383356958 gnorm: 0.000928141892 xtb: 6.2.2 (9d81278992624c895f80dd42a50cac0aa55982e2)
C         0.70867999401449    0.04679115139508   -0.01861543236973
C        -0.45549840860165   -0.73483239497258    0.29725613364378
C        -0.39001803782016    0.76906406163995   -0.33287286720125
C        -1.63360121311745   -0.10394786105658    0.03842074228329
H         1.77043766552477    0.02292504299413    0.01581142364390
5
 energy: -8.714387932656 gnorm: 0.001202952254 xtb: 6.2.2 (9d81278992624c895f80dd42a50cac0aa55982e2)
C         0.70859831648164    0.04923519679983   -0.01494111683458
C        -0.45568007341883   -0.73206860811162    0.30409500346751
C        -0.38941558988223    0.77026484847046   -0.32732337642807
C        -1.63378166093223   -0.10745841419044    0.02935694849681
H         1.77027900775165    0.02002697703176    0.00881254129834
5
 energy: -8.714388964113 gnorm: 0.000355953518 xtb: 6.2.2 (9d81278992624c895f80dd42a50cac0aa55982e2)
C         0.70871552187372    0.04948871866151   -0.01435398560870
C        -0.45561944171458   -0.73239934742730    0.30357787262260
C        -0.38995289317013    0.77028569409240   -0.32792479278706
C        -1.63369178380941   -0.10720081994900    0.02983371979826
H         1.77054859682040    0.01982575462238    0.00886718597489
