 Entering Gaussian System
 *********************************************
 Gaussian 98:
 frequency output generated by the xtb code
 *********************************************
                         Standard orientation:
 --------------------------------------------------------------------
  Center     Atomic     Atomic              Coordinates (Angstroms)
  Number     Number      Type              X           Y           Z
 --------------------------------------------------------------------
    1          6             0        0.708716    0.049485   -0.014357
    2          6             0       -0.455622   -0.732396    0.303581
    3          6             0       -0.389950    0.770287   -0.327925
    4          6             0       -1.633692   -0.107192    0.029840
    5          1             0        1.770549    0.019816    0.008861
 --------------------------------------------------------------------
     1 basis functions        1 primitive gaussians
     1 alpha electrons        1 beta electrons

 Harmonic frequencies (cm**-1), IR intensities (KM/Mole),
 Raman scattering activities (A**4/amu), Raman depolarization ratios,
 reduced masses (AMU), force constants (mDyne/A) and normal coordinates:
                      1                      2                      3
                        a                      a                      a 
 Frequencies --   222.0280               396.7827               585.6504
 Red. masses --     9.4279                11.4178                 5.2106
 Frc consts  --     0.0000                 0.0000                 0.0000
 IR Inten    --     0.4538                 1.2745                 0.2689
 Raman Activ --     0.0000                 0.0000                 0.0000
 Depolar     --     0.0000                 0.0000                 0.0000
 Atom AN      X      Y      Z        X      Y      Z        X      Y      Z
   1   6     0.00  -0.11  -0.25    -0.07  -0.23   0.10     0.01  -0.21  -0.50
   2   6    -0.00   0.19   0.46    -0.02   0.34  -0.14    -0.00   0.08   0.18
   3   6    -0.00   0.16   0.39     0.30   0.49  -0.20    -0.00   0.08   0.19
   4   6     0.00  -0.20  -0.47    -0.19  -0.54   0.22     0.00  -0.04  -0.08
   5   1     0.00  -0.19  -0.45    -0.02  -0.21   0.09    -0.01   0.30   0.72
                      4                      5                      6
                        a                      a                      a 
 Frequencies --   680.4105               920.1188              1032.8323
 Red. masses --    11.8421                 2.8435                11.9063
 Frc consts  --     0.0000                 0.0000                 0.0000
 IR Inten    --     0.1351                 0.2179                 0.3838
 Raman Activ --     0.0000                 0.0000                 0.0000
 Depolar     --     0.0000                 0.0000                 0.0000
 Atom AN      X      Y      Z        X      Y      Z        X      Y      Z
   1   6    -0.44   0.07  -0.04    -0.02   0.25  -0.11    -0.25  -0.51   0.21
   2   6    -0.06  -0.56   0.23     0.14  -0.01   0.00     0.39   0.27  -0.11
   3   6     0.15   0.45  -0.19    -0.23  -0.04   0.02    -0.48   0.09  -0.04
   4   6     0.39   0.03  -0.01     0.12   0.04  -0.01     0.36   0.13  -0.05
   5   1    -0.12   0.02  -0.01    -0.04  -0.84   0.35    -0.07   0.06  -0.03
                      7                      8                      9
                        a                      a                      a 
 Frequencies --  1437.9157              1509.5145              3236.6496
 Red. masses --    11.9950                11.4668                 2.0156
 Frc consts  --     0.0000                 0.0000                 0.0000
 IR Inten    --     0.4214                 0.2223                 0.0026
 Raman Activ --     0.0000                 0.0000                 0.0000
 Depolar     --     0.0000                 0.0000                 0.0000
 Atom AN      X      Y      Z        X      Y      Z        X      Y      Z
   1   6    -0.09  -0.07   0.03     0.62  -0.15   0.07    -0.30   0.01  -0.01
   2   6     0.65  -0.25   0.11    -0.16  -0.28   0.12     0.01   0.01  -0.01
   3   6     0.09   0.11  -0.05    -0.44   0.42  -0.18     0.01  -0.02   0.01
   4   6    -0.64   0.21  -0.10    -0.08   0.02  -0.01     0.00   0.00  -0.00
   5   1    -0.03  -0.02   0.01     0.22  -0.01   0.01     0.95  -0.03   0.02
