[Molden Format]
[Title]
[Atoms] AU
C      1     6  0.13392785073129E+01  0.93513056065170E-01 -0.27129937266323E-01
C      2     6 -0.86100112624956E+00 -0.13840285426485E+01  0.57368440456072E+00
C      3     6 -0.73689864269131E+00  0.14556316413493E+01 -0.61968795861396E+00
C      4     6 -0.30872306208679E+01 -0.20256390814691E+00  0.56388684500318E-01
H      5     1  0.33458518824959E+01  0.37447753380982E-01  0.16744806819246E-01
[GTO]
           1 0
 s           4   1.0000000000000000     
   51.049363095579913      -0.16312063210127389     
   8.7911227406887544      -0.19911024581000730     
  0.70640422258929825       0.31882047753655751     
  0.26922813413411617       0.12706504184240380     
 p           4   1.0000000000000000     
   5.8263656140800002       0.73716451545209605     
   1.5106896018720002       0.68216371614850257     
  0.53256483288000001       0.35783053929253711     
  0.21202323690600003        5.3983030275847881E-002

           2 0
 s           4   1.0000000000000000     
   51.049363095579913      -0.16312063210127389     
   8.7911227406887544      -0.19911024581000730     
  0.70640422258929825       0.31882047753655751     
  0.26922813413411617       0.12706504184240380     
 p           4   1.0000000000000000     
   5.8263656140800002       0.73716451545209605     
   1.5106896018720002       0.68216371614850257     
  0.53256483288000001       0.35783053929253711     
  0.21202323690600003        5.3983030275847881E-002

           3 0
 s           4   1.0000000000000000     
   51.049363095579913      -0.16312063210127389     
   8.7911227406887544      -0.19911024581000730     
  0.70640422258929825       0.31882047753655751     
  0.26922813413411617       0.12706504184240380     
 p           4   1.0000000000000000     
   5.8263656140800002       0.73716451545209605     
   1.5106896018720002       0.68216371614850257     
  0.53256483288000001       0.35783053929253711     
  0.21202323690600003        5.3983030275847881E-002

           4 0
 s           4   1.0000000000000000     
   51.049363095579913      -0.16312063210127389     
   8.7911227406887544      -0.19911024581000730     
  0.70640422258929825       0.31882047753655751     
  0.26922813413411617       0.12706504184240380     
 p           4   1.0000000000000000     
   5.8263656140800002       0.73716451545209605     
   1.5106896018720002       0.68216371614850257     
  0.53256483288000001       0.35783053929253711     
  0.21202323690600003        5.3983030275847881E-002

           5 0
 s           3   1.0000000000000000     
   3.3702276975336001       0.27359110588908298     
  0.61389118221497996       0.26460540653860526     
  0.16614291148415999        8.2465947534082318E-002

[MO]
Sym=     1a
Ene=  -0.71480576879452229     
Spin= Alpha
Occup=     2.00000000
           1  0.33453381163774615     
           2 -0.17477894333994229     
           3   4.5798048544736670E-003
           4  -3.5651246084798258E-003
           5  0.33788892119342784     
           6   2.5944162959710144E-002
           7  0.14152296553644764     
           8  -5.9272246914268960E-002
           9  0.35362437819236098     
          10   3.6920472848026208E-002
          11 -0.13821715237985580     
          12   5.8502795874541567E-002
          13  0.20986416053810147     
          14  0.10512728542856724     
          15   4.4886982422001377E-003
          16  -9.2116816648014519E-004
          17   4.3145640637557749E-002
Sym=     2a
Ene=  -0.63724152903814335     
Spin= Alpha
Occup=     2.00000000
           1 -0.43530386078811983     
           2  -5.9139040543006248E-002
           3  -4.0199284050171716E-002
           4   1.6332236118930719E-002
           5  0.16540893272597809     
           6 -0.28560252637588379     
           7   1.1472900000481767E-002
           8  -7.4761098469935906E-003
           9  -2.1840923729302922E-002
          10 -0.26711071672551373     
          11  -3.4241751260693218E-002
          12   1.1911655256433045E-002
          13  0.42051398879343982     
          14   8.3099294687766501E-002
          15  -2.9975162778601367E-002
          16   1.3357907529445935E-002
          17 -0.19783494954228631     
Sym=     3a
Ene=  -0.58730788259811695     
Spin= Alpha
Occup=     2.00000000
           1 -0.12388008906674237     
           2 -0.11873016179500255     
           3  0.36484498053483011     
           4 -0.15466946760653721     
           5 -0.44152928769394301     
           6  -8.2107028840123927E-002
           7  0.13525147614847507     
           8  -5.7720084302404460E-002
           9  0.50914504789190751     
          10   4.4599849775870573E-002
          11  0.12798261730833188     
          12  -5.3442782205809183E-002
          13  -2.3216825387937554E-002
          14  -1.4615810523034747E-002
          15  0.16502592949721670     
          16  -6.9570595043101369E-002
          17 -0.14654278137397581     
Sym=     4a
Ene=  -0.55919952192588773     
Spin= Alpha
Occup=     2.00000000
           1  0.18499053534839036     
           2  0.43724807744215932     
           3  0.13895348382224218     
           4  -5.3874763325230855E-002
           5 -0.15103597329327342     
           6 -0.27006716170818656     
           7   9.1735399712274800E-003
           8  -6.0767300401987018E-003
           9   4.0395213873008824E-002
          10  -9.5331669673920538E-002
          11   6.5497761120602377E-002
          12  -2.8129399079597665E-002
          13  0.37222813400506038     
          14  -2.9907922595369490E-002
          15  -2.2002449865281839E-003
          16   7.7373468099060732E-004
          17  0.43317764026649547     
Sym=     5a
Ene=  -0.52788916498229821     
Spin= Alpha
Occup=     2.00000000
           1  -2.3880830796893754E-004
           2  -4.6081888487909863E-003
           3  0.18797923501547198     
           4  0.44722384949096089     
           5  -1.4454610317380777E-005
           6  -3.5709464674031394E-003
           7  0.17310310481090729     
           8  0.41143538468363378     
           9   1.8061338084980098E-005
          10  -3.8598104885334051E-003
          11  0.17330784661906085     
          12  0.41204853982874023     
          13  -2.6819494770528065E-004
          14  -2.1552935107118027E-003
          15  0.10140324383834214     
          16  0.24076848971851797     
          17  -2.6582078572505159E-004
Sym=     6a
Ene=  -0.50623543643227842     
Spin= Alpha
Occup=     2.00000000
           1   6.9690334221835905E-003
           2  -6.9014443530972497E-002
           3  0.34116322423531087     
           4 -0.14408823529316481     
           5  0.19771877810882635     
           6 -0.31333217199764057     
           7 -0.16314216600937034     
           8   6.5848853150869538E-002
           9 -0.10613689785323806     
          10  0.45344536054672402     
          11   2.0132217759075401E-002
          12  -4.1399273644578960E-003
          13  -3.5697969502611990E-002
          14   8.8777893092034990E-004
          15 -0.40720638054997815     
          16  0.17138499381706779     
          17  -8.1957229288589714E-002
Sym=     7a
Ene=  -0.43863744505011770     
Spin= Alpha
Occup=     2.00000000
           1  -8.8320531013409809E-002
           2   8.4427485479035183E-002
           3  -5.9754580201596928E-002
           4   2.6038997374195117E-002
           5  0.39980815906249639     
           6   2.6063678094042999E-002
           7 -0.42256388847350795     
           8  0.17794200366672819     
           9  0.48087693419769423     
          10 -0.15503935032881871     
          11  0.48467829657945888     
          12 -0.20535527066686632     
          13 -0.23195182516309010     
          14  0.19067731157260248     
          15   6.7723373528275795E-003
          16  -1.1772995500865305E-003
          17   7.9789168568087127E-002
Sym=     8a
Ene=  -0.40882123154016320     
Spin= Alpha
Occup=     1.99999995
           1 -0.11741943042441476     
           2  0.14814095448300824     
           3   7.2381890574839930E-002
           4  -2.8675390391376631E-002
           5  -4.2660686827219074E-002
           6 -0.22154346013776038     
           7  0.22017888840322680     
           8  -9.4912487049931923E-002
           9  -7.3896416469891701E-002
          10 -0.13193915978845761     
          11 -0.20665980823717237     
          12   8.5718371260580878E-002
          13 -0.57477060951576464     
          14  0.64956488213061714     
          15  -2.6020369920374029E-002
          16   1.6555305812649992E-002
          17  0.12722481575622516     
Sym=     9a
Ene=  -0.37680761507064159     
Spin= Alpha
Occup=     1.00000005
           1   1.0192549810400043E-004
           2   5.4123830509622385E-003
           3 -0.22871783819282671     
           4 -0.54363426294976025     
           5  -6.3748394913465766E-005
           6  -3.9390035797194122E-003
           7  0.17246933172188314     
           8  0.40970449674043752     
           9   4.4070741631704538E-005
          10   2.0225522095142058E-003
          11  -9.6970466021984628E-002
          12 -0.23058097677765488     
          13  -2.3785063020426980E-004
          14  -4.8765903031114171E-003
          15  0.24360554546588511     
          16  0.57923449153589956     
          17  -7.0558444487737872E-006
Sym=    10a
Ene=  -0.31819548036452339     
Spin= Alpha
Occup=     0.00000000
           1  -1.1539650972928793E-004
           2  -3.6389259333047788E-003
           3  0.15439455072784444     
           4  0.36759498917510353     
           5  -1.6378368400562360E-004
           6  -4.7772730789142530E-003
           7  0.21753476007034589     
           8  0.51649102624309529     
           9   1.3989185386154888E-004
          10   6.6542437288612697E-003
          11 -0.29842276493985070     
          12 -0.70985474214556954     
          13   1.7371605221997752E-005
          14   2.4808261886310069E-003
          15 -0.12050867754002430     
          16 -0.28574938615291129     
          17   7.9879366135264345E-005
Sym=    11a
Ene=  -0.26602923393941691     
Spin= Alpha
Occup=     0.00000000
           1   2.6985613407911540E-002
           2  -3.3257352078594274E-002
           3 -0.45651569362886335     
           4  0.19155508761786735     
           5 -0.24848816971319865     
           6  -5.1733922960906072E-002
           7  0.54155065852109197     
           8 -0.22860565385301448     
           9  0.18125028392177475     
          10   3.4282752057515645E-002
          11  0.46578085045546719     
          12 -0.19513923323977131     
          13  -8.6142930098188943E-003
          14  -1.8959619872860121E-002
          15 -0.52687420126828588     
          16  0.22148835677128567     
          17  -8.2856221097234554E-003
Sym=    12a
Ene=  -0.19542944080896696     
Spin= Alpha
Occup=     0.00000000
           1  -3.9737112183509311E-004
           2  -5.2169316693821384E-003
           3  0.22259332891935119     
           4  0.52914812029180303     
           5   7.3783866736370116E-005
           6   5.2509939159298569E-003
           7 -0.23517394116248061     
           8 -0.55933858246991763     
           9   9.7125052032757310E-005
          10   3.9848024859611159E-003
          11 -0.17866621827479365     
          12 -0.42455627043236283     
          13  -1.5269828864683078E-005
          14  -6.1591030972305214E-003
          15  0.27377000729171297     
          16  0.65108541496349825     
          17   3.5193684155824324E-004
Sym=    13a
Ene=    1.8078953488517277E-002
Spin= Alpha
Occup=     0.00000000
           1  0.30473290380169948     
           2  0.13664450060566344     
           3  -6.9242776836513614E-002
           4   3.0786600405433805E-002
           5  0.18397697416574973     
           6 -0.14260680254089922     
           7  0.21603064155495966     
           8  -9.2334986670677577E-002
           9 -0.54528715519662851     
          10  0.53003721013545735     
          11  0.56783317650475840     
          12 -0.23417372438441356     
          13  0.29755987540045786     
          14  0.42595527160921165     
          15  0.58941679608127329     
          16 -0.24395311082336357     
          17 -0.37867100991946845     
Sym=    14a
Ene=    7.9163417284344242E-002
Spin= Alpha
Occup=     0.00000000
           1 -0.97667072013367306     
           2 -0.19330739621363241     
           3  0.21283660400205512     
           4  -9.1950576908008091E-002
           5  0.49400105027701274     
           6  0.30273530445616181     
           7  0.41978694778227593     
           8 -0.17350571771862522     
           9 -0.11326147501393377     
          10  0.30734496422659446     
          11  0.15777233496951670     
          12  -6.3289884256326936E-002
          13   1.6595534505238242E-002
          14 -0.13994906029412416     
          15  0.15505616438379632     
          16  -6.6674996232407288E-002
          17  0.80739747904980597     
Sym=    15a
Ene=   0.18005045580242915     
Spin= Alpha
Occup=     0.00000000
           1  0.30402238319937491     
           2  0.28367569856681124     
           3  0.74273208563418125     
           4 -0.30952487314165422     
           5  0.39333734662253361     
           6  0.58024637850567562     
           7  0.36106339529505010     
           8 -0.14651557952508246     
           9 -0.37059844158442634     
          10 -0.65032805317155440     
          11  0.27423288094953974     
          12 -0.12150590741263813     
          13  -5.6951801803556109E-003
          14  -5.1333911060536738E-002
          15 -0.29365974366622682     
          16  0.12308365312651937     
          17 -0.39211432355636577     
Sym=    16a
Ene=   0.42652085115069532     
Spin= Alpha
Occup=     0.00000000
           1 -0.28286416645872708     
           2   4.4647972186831475E-002
           3   5.1442965909329431E-002
           4  -2.1198607244755828E-002
           5 -0.62141737577975242     
           6  0.87787455647962476     
           7 -0.36892200417383952     
           8  0.16322951589481538     
           9   1.2455359485108470E-002
          10  0.26395984626724556     
          11  -5.4061930807825335E-002
          12   2.5172300141561507E-002
          13  0.77783831665424108     
          14  0.83447171299684453     
          15 -0.35611390498398754     
          16  0.15740045294054494     
          17   6.9525307899395414E-002
Sym=    17a
Ene=   0.61457537312610999     
Spin= Alpha
Occup=     0.00000000
           1 -0.39645353386095411     
           2   1.2599571685682143     
           3 -0.18617995533905948     
           4   9.0524834751698299E-002
           5  0.37649994326786390     
           6  0.25069926342815657     
           7  0.23029686569705413     
           8  -9.4536744208834747E-002
           9  0.63563513717823439     
          10  0.52636574280297188     
          11 -0.40607121163443005     
          12  0.17572869783010425     
          13  -5.6660167397799652E-002
          14 -0.18634518682042364     
          15   5.5236477766193457E-003
          16  -4.0405519855076137E-003
          17 -0.71053007681831204     
