$hessian                                                                        
        0.9143160299  -0.0556548079   0.0318746121  -0.2192884498  -0.1625251556
        0.0664683236  -0.2693664892   0.2343916496  -0.1009820922  -0.0788188039
       -0.0250966298   0.0097372140  -0.3468422870   0.0088849438  -0.0070980575
       -0.0556548079   0.1923090148  -0.0616316157  -0.0974549420  -0.0224671331
        0.0002451043   0.1583839093  -0.1059354362   0.0376919654  -0.0141202209
       -0.0345517684   0.0189560005   0.0088460616  -0.0293546771   0.0047385455
        0.0318746121  -0.0616316157   0.0733904450   0.0391141958  -0.0003940190
       -0.0192949837  -0.0690609479   0.0383979373  -0.0366887314   0.0051046834
        0.0188923257   0.0029780453  -0.0070325434   0.0047353717  -0.0203847752
       -0.2192884498  -0.0974549420   0.0391141958   0.5013223449  -0.0486383982
        0.0249417939   0.0291759369   0.0061460697  -0.0024613086  -0.3064327675
        0.1531241416  -0.0670710876  -0.0047770645  -0.0131768712   0.0054764065
       -0.1625251556  -0.0224671331  -0.0003940190  -0.0486383982   0.2532163989
       -0.1020102448   0.0347817244  -0.1780279881   0.0798857522   0.1731891976
       -0.0561323624   0.0216082064   0.0031926318   0.0034110848   0.0009103052
        0.0664683236   0.0002451043  -0.0192949837   0.0249417939  -0.1020102448
        0.0549015948  -0.0144526406   0.0796236025  -0.0225031436  -0.0755066554
        0.0214000997  -0.0182728834  -0.0014508216   0.0007414383   0.0051694160
       -0.2693664892   0.1583839093  -0.0690609479   0.0291759369   0.0347817244
       -0.0144526406   0.3557232750  -0.1763484503   0.0774516659  -0.1059632921
       -0.0338068470   0.0133197868  -0.0095694306   0.0169896636  -0.0072578642
        0.2343916496  -0.1059354362   0.0383979373   0.0061460697  -0.1780279881
        0.0796236025  -0.1763484503   0.2626302435  -0.1076663302  -0.0610527865
        0.0186982589  -0.0117192626  -0.0031364825   0.0026349219   0.0013640529
       -0.1009820922   0.0376919654  -0.0366887314  -0.0024613086   0.0798857522
       -0.0225031436   0.0774516659  -0.1076663302   0.0566321389   0.0248297066
       -0.0114786234  -0.0027483212   0.0011620284   0.0015672359   0.0053080573
       -0.0788188039  -0.0141202209   0.0051046834  -0.3064327675   0.1731891976
       -0.0755066554  -0.1059632921  -0.0610527865   0.0248297066   0.4974047933
       -0.0952101068   0.0444697860  -0.0061899299  -0.0028060834   0.0011024793
       -0.0250966298  -0.0345517684   0.0188923257   0.1531241416  -0.0561323624
        0.0214000997  -0.0338068470   0.0186982589  -0.0114786234  -0.0952101068
        0.0735717453  -0.0287878866   0.0009894420  -0.0015858734  -0.0000259155
        0.0097372140   0.0189560005   0.0029780453  -0.0670710876   0.0216082064
       -0.0182728834   0.0133197868  -0.0117192626  -0.0027483212   0.0444697860
       -0.0287878866   0.0196814411  -0.0004556993  -0.0000570578  -0.0016382818
       -0.3468422870   0.0088460616  -0.0070325434  -0.0047770645   0.0031926318
       -0.0014508216  -0.0095694306  -0.0031364825   0.0011620284  -0.0061899299
        0.0009894420  -0.0004556993   0.3673787119  -0.0098916529   0.0077770359
        0.0088849438  -0.0293546771   0.0047353717  -0.0131768712   0.0034110848
        0.0007414383   0.0169896636   0.0026349219   0.0015672359  -0.0028060834
       -0.0015858734  -0.0000570578  -0.0098916529   0.0248945438  -0.0069869881
       -0.0070980575   0.0047385455  -0.0203847752   0.0054764065   0.0009103052
        0.0051694160  -0.0072578642   0.0013640529   0.0053080573   0.0011024793
       -0.0000259155  -0.0016382818   0.0077770359  -0.0069869881   0.0115455837
