[Molden Format]
[Title]
[Atoms] AU
C      1     6 -0.10208122550808E+00 -0.89431343765323E+00 -0.87670216716561E+00
C      2     6  0.20148861183546E+01 -0.11543513928843E+01  0.33940742127435E+00
O      3     8 -0.21084409059016E+01  0.52330484278211E+00 -0.15064392873572E+00
H      4     1  0.26685417205822E+01 -0.28790414642995E+00  0.20788211995308E+01
H      5     1 -0.24729057075271E+01  0.18132641341854E+01 -0.13908825249039E+01
[GTO]
           1 0
 s           4   1.0000000000000000     
   51.049363095579913      -0.16312063210127389     
   8.7911227406887544      -0.19911024581000730     
  0.70640422258929825       0.31882047753655751     
  0.26922813413411617       0.12706504184240380     
 p           4   1.0000000000000000     
   5.8263656140800002       0.73716451545209605     
   1.5106896018720002       0.68216371614850257     
  0.53256483288000001       0.35783053929253711     
  0.21202323690600003        5.3983030275847881E-002

           2 0
 s           4   1.0000000000000000     
   51.049363095579913      -0.16312063210127389     
   8.7911227406887544      -0.19911024581000730     
  0.70640422258929825       0.31882047753655751     
  0.26922813413411617       0.12706504184240380     
 p           4   1.0000000000000000     
   5.8263656140800002       0.73716451545209605     
   1.5106896018720002       0.68216371614850257     
  0.53256483288000001       0.35783053929253711     
  0.21202323690600003        5.3983030275847881E-002

           3 0
 s           4   1.0000000000000000     
   69.137961906196551      -0.20478756370077797     
   11.906129132707308      -0.24997023136827334     
  0.95670827744340703       0.40025880240639616     
  0.36462520496073686       0.15952206667693555     
 p           4   1.0000000000000000     
   8.2124193257781641        1.1321556799186829     
   2.1293576997098116        1.0476840782254817     
  0.75066448202360914       0.54956508217158984     
  0.29885246543283073        8.2908486592766617E-002

           4 0
 s           3   1.0000000000000000     
   3.3702276975336001       0.27359110588908298     
  0.61389118221497996       0.26460540653860526     
  0.16614291148415999        8.2465947534082318E-002

           5 0
 s           3   1.0000000000000000     
   3.3702276975336001       0.27359110588908298     
  0.61389118221497996       0.26460540653860526     
  0.16614291148415999        8.2465947534082318E-002

[MO]
Sym=     1a
Ene=  -0.72362499771540190     
Spin= Alpha
Occup=     2.00000000
           1  0.19263211217783660     
           2 -0.12237847826553888     
           3   9.6321931422248250E-002
           4   3.8705019494263714E-002
           5   2.4459479292897490E-002
           6  -2.8368434232082212E-002
           7   1.0678063746944258E-002
           8  -7.3942287118201715E-003
           9  0.77399237961186984     
          10   6.5630168198931430E-002
          11  -1.3943699139287637E-002
          12  -7.8967241877613073E-002
          13   6.0289072314358193E-004
          14  0.16402546024148559     
Sym=     2a
Ene=  -0.64239019213228976     
Spin= Alpha
Occup=     2.00000000
           1  0.42171619772202668     
           2  -4.9830244856260498E-003
           3   2.5284789205660085E-002
           4  0.12720170560614771     
           5  0.24986139272490707     
           6 -0.12819167022534272     
           7   2.8160755815194852E-002
           8  -4.3579130799859256E-002
           9 -0.13177316771670883     
          10  0.36292125073737741     
          11 -0.37648359397927716     
          12  0.11973056338627275     
          13   5.2849520240886412E-002
          14 -0.25906748970980381     
Sym=     3a
Ene=  -0.59254540705881664     
Spin= Alpha
Occup=     2.00000000
           1 -0.17789318588848008     
           2 -0.33158717853141767     
           3  -5.7365634109807955E-004
           4   2.8181827428270221E-002
           5 -0.43834888719070497     
           6   6.2755957888892461E-002
           7  -3.4470817353088191E-002
           8   7.5570674789565515E-002
           9  0.17163740329644450     
          10   1.3969298414303310E-002
          11 -0.42558468214582146     
          12  0.22423164599601902     
          13 -0.13401419951577132     
          14 -0.25762313029196632     
Sym=     4a
Ene=  -0.56617347896059489     
Spin= Alpha
Occup=     2.00000000
           1  0.19127158183647877     
           2 -0.16146623292373041     
           3  0.12706408801564636     
           4 -0.21671653090119569     
           5 -0.24533798461628434     
           6  -1.0737169544797613E-002
           7   8.8444153679040349E-003
           8  -6.8818406876079763E-002
           9 -0.36193116516724977     
          10  0.32045234455565313     
          11  -3.4783245133436579E-002
          12 -0.63055688515669917     
          13 -0.13446072166897194     
          14  0.12125899438855091     
Sym=     5a
Ene=  -0.52160301571498191     
Spin= Alpha
Occup=     2.00000000
           1  0.19931724561444181     
           2  -6.3991257395074816E-003
           3 -0.34410890251355630     
           4 -0.13184497699289016     
           5  0.13691966092294230     
           6  -4.0062932944534571E-002
           7 -0.15036900238694745     
           8 -0.11099976401259312     
           9   3.5326948522043662E-002
          10 -0.60539570350603888     
          11 -0.43768435680715345     
          12 -0.28319692360919502     
          13  -4.1440456116075282E-002
          14   2.9571381514187336E-002
Sym=     6a
Ene=  -0.50474575140532341     
Spin= Alpha
Occup=     2.00000000
           1  0.18747031089998964     
           2  0.20618225564386281     
           3  -8.2716715626420897E-002
           4  -1.5657371920666414E-002
           5 -0.21919385968489122     
           6 -0.26456787959572736     
           7 -0.10350996354673903     
           8 -0.36371746861376825     
           9   6.5332964276775429E-002
          10   2.4048172363116516E-002
          11  0.21992229245718709     
          12  0.29009960954473407     
          13 -0.45644235554626372     
          14  -3.3067659431340194E-003
Sym=     7a
Ene=  -0.40525032776657621     
Spin= Alpha
Occup=     1.99999999
           1  -3.4052524336281031E-002
           2 -0.18952921847446061     
           3 -0.37274985537637018     
           4  0.38599077266824217     
           5  -4.2122089680415573E-002
           6 -0.33379473087233874     
           7 -0.43614479099725578     
           8  0.37027202781060164     
           9 -0.13368936530670508     
          10  0.17487648470737716     
          11  0.19469100244931262     
          12 -0.11970728264657401     
          13  -1.8294672868682495E-002
          14  0.15685203505654111     
Sym=     8a
Ene=  -0.36997947763482153     
Spin= Alpha
Occup=     1.00000001
           1  0.10716282653932781     
           2 -0.15976504924783069     
           3 -0.22413714284442862     
           4 -0.36200104121023702     
           5  0.23098423568741536     
           6  0.49852137073167929     
           7 -0.50655563622266320     
           8 -0.14352191561677369     
           9  0.10312771636711199     
          10  0.31909434238101819     
          11  0.16833135310592559     
          12  0.20034848031347030     
          13   4.1833721832533532E-002
          14  -6.3190409542205617E-002
Sym=     9a
Ene=  -0.30901619083516491     
Spin= Alpha
Occup=     1.00000000
           1  0.45899963261906612     
           2 -0.10997359685924518     
           3 -0.29735032712201898     
           4 -0.53022360284804604     
           5 -0.35660652550691108     
           6 -0.25072375480397630     
           7  0.29019215005646370     
           8  0.31026685202990278     
           9  -5.0271391915859200E-002
          10  -6.3896907665018265E-002
          11  0.23025111067203755     
          12  0.30206193476568288     
          13  0.31631594326057066     
          14   1.1595169977149529E-003
Sym=    10a
Ene=  -0.19262657825244539     
Spin= Alpha
Occup=     0.00000000
           1  -5.2235713035183136E-003
           2  0.31787967829799935     
           3  0.63563850977511227     
           4 -0.40548839972558293     
           5   1.7029318351785387E-002
           6 -0.31430494141548265     
           7 -0.58451457300487963     
           8  0.40181989128971984     
           9  0.11366737590730182     
          10 -0.14678690334491207     
          11 -0.11829719857628662     
          12   1.9013114920718974E-002
          13  -8.9461030414189242E-003
          14 -0.18405898364769135     
Sym=    11a
Ene=    8.6668723872421416E-002
Spin= Alpha
Occup=     0.00000000
           1  0.33736961401721138     
           2 -0.25534341040483000     
           3  0.34838300619938695     
           4  0.12527477441194954     
           5   7.5871189923405469E-002
           6  0.19532027620209350     
           7  -9.5404322444414186E-002
           8   8.6982826102798852E-002
           9 -0.77963154804001533     
          10 -0.19735929336338573     
          11 -0.28819851447856154     
          12  0.58704734599773478     
          13 -0.17099930586864176     
          14  0.95115525530782985     
Sym=    12a
Ene=   0.18768966338422388     
Spin= Alpha
Occup=     0.00000000
           1 -0.26745423674379015     
           2  0.42555692742455326     
           3 -0.11205245929422757     
           4   3.9335064627342445E-002
           5 -0.71192882721622974     
           6 -0.15466069634749105     
           7 -0.31396134843026013     
           8 -0.52793343843280371     
           9   2.6517821088407642E-003
          10  0.29541089160721667     
          11 -0.42257015655201652     
          12   7.0152670802087161E-002
          13  0.93308139495421982     
          14  0.44543440214528279     
Sym=    13a
Ene=   0.26427894376529376     
Spin= Alpha
Occup=     0.00000000
           1 -0.62839353760625571     
           2  0.32024113874209315     
           3 -0.41390126639768393     
           4 -0.49039889180683505     
           5  0.47787238954412053     
           6 -0.20736769695799004     
           7  0.32252928482045479     
           8  0.35528941238391198     
           9  0.15284528233169339     
          10  0.54549246114619321     
          11 -0.52919229515406818     
          12  0.11624358076689324     
          13 -0.51546475335387432     
          14  0.49745828806371140     
Sym=    14a
Ene=   0.68350330012802818     
Spin= Alpha
Occup=     0.00000000
           1 -0.67387508904716198     
           2 -0.97538819450161263     
           3  0.22860601295858954     
           4 -0.38709702270518287     
           5  0.61094523596642847     
           6 -0.85997875836565263     
           7  -3.1938022631418997E-002
           8 -0.69419646097098608     
           9 -0.18086211802828275     
          10  -8.7749192229837097E-002
          11  0.14523625962434433     
          12  0.13825301284256128     
          13  0.36599974441179478     
          14  -3.0898200385549968E-002
