$hessian                                                                        
        0.6435008440  -0.1675728751   0.2170811859  -0.4413608072   0.0409441593
       -0.2493939015  -0.1749661781   0.1192982931   0.0552241751  -0.0077097420
       -0.0040034588  -0.0179166952  -0.0194641167   0.0113338815  -0.0049947644
       -0.1675728751   0.1555864021   0.0483662020   0.0358091594  -0.0359818743
        0.0188652632   0.1148534837  -0.1143720070  -0.0458894529  -0.0060599375
        0.0090093408  -0.0166079645   0.0229701695  -0.0142418616  -0.0047340479
        0.2170811859   0.0483662020   0.2830326898  -0.2593108138   0.0216533067
       -0.1836573507   0.0814326410  -0.0656426169  -0.0817914048  -0.0238763301
       -0.0118691951  -0.0264335454  -0.0153266830   0.0074923032   0.0088496112
       -0.4413608072   0.0358091594  -0.2593108138   0.5523023700  -0.0511079837
        0.3187369633  -0.0630727684   0.0359988943   0.0045369042  -0.0484133492
       -0.0252014906  -0.0651177200   0.0005445548   0.0045014207   0.0011546663
        0.0409441593  -0.0359818743   0.0216533067  -0.0511079837   0.1108433658
        0.0698235199   0.0334597004  -0.0026606793   0.0024980425  -0.0248213790
       -0.0702844718  -0.0928928738   0.0015255030  -0.0019163403  -0.0010819952
       -0.2493939015   0.0188652632  -0.1836573507   0.3187369633   0.0698235199
        0.3657379910  -0.0103873597   0.0065733701   0.0133295156  -0.0619629835
       -0.0948209467  -0.1974924100   0.0030072813  -0.0004412066   0.0020822541
       -0.1749661781   0.1148534837   0.0814326410  -0.0630727684   0.0334597004
       -0.0103873597   0.2617571007  -0.1993538298  -0.0288397009   0.0011787926
       -0.0056448669  -0.0012257568  -0.0248969468   0.0566855125  -0.0409798236
        0.1192982931  -0.1143720070  -0.0656426169   0.0359988943  -0.0026606793
        0.0065733701  -0.1993538298   0.3247103697  -0.1549108376  -0.0026417109
       -0.0004629489   0.0096867372   0.0466983532  -0.2072147345   0.2042933471
        0.0552241751  -0.0458894529  -0.0817914048   0.0045369042   0.0024980425
        0.0133295156  -0.0288397009  -0.1549108376   0.2797807566   0.0007127588
        0.0052050674   0.0068216264  -0.0316341372   0.1930971806  -0.2181404938
       -0.0077097420  -0.0060599375  -0.0238763301  -0.0484133492  -0.0248213790
       -0.0619629835   0.0011787926  -0.0026417109   0.0007127588   0.0542269270
        0.0341945495   0.0848601127   0.0007173717  -0.0006715222   0.0002664420
       -0.0040034588   0.0090093408  -0.0118691951  -0.0252014906  -0.0702844718
       -0.0948209467  -0.0056448669  -0.0004629489   0.0052050674   0.0341945495
        0.0613236644   0.1007029595   0.0006552667   0.0004144156   0.0007821149
       -0.0179166952  -0.0166079645  -0.0264335454  -0.0651177200  -0.0928928738
       -0.1974924100  -0.0012257568   0.0096867372   0.0068216264   0.0848601127
        0.1007029595   0.2173555526  -0.0005999407  -0.0008888584  -0.0002512235
       -0.0194641167   0.0229701695  -0.0153266830   0.0005445548   0.0015255030
        0.0030072813  -0.0248969468   0.0466983532  -0.0316341372   0.0007173717
        0.0006552667  -0.0005999407   0.0430991370  -0.0718492925   0.0445534796
        0.0113338815  -0.0142418616   0.0074923032   0.0045014207  -0.0019163403
       -0.0004412066   0.0566855125  -0.2072147345   0.1930971806  -0.0006715222
        0.0004144156  -0.0008888584  -0.0718492925   0.2229585208  -0.1992594189
       -0.0049947644  -0.0047340479   0.0088496112   0.0011546663  -0.0010819952
        0.0020822541  -0.0409798236   0.2042933471  -0.2181404938   0.0002664420
        0.0007821149  -0.0002512235   0.0445534796  -0.1992594189   0.2074598519
