5
 energy: -9.073476344550 gnorm: 0.154894222534 xtb: 6.2.2 (9d81278992624c895f80dd42a50cac0aa55982e2)
C         0.08505300000000   -0.22355000000000   -0.65412500000000
C         0.98502100000000   -0.87898700000000    0.37412000000000
O        -0.98347400000000    0.40242700000000   -0.01296700000000
H         1.42432700000000   -0.10686900000000    1.03997200000000
H        -1.51092700000000    0.80697900000000   -0.74700000000000
5
 energy: -9.099397993221 gnorm: 0.114442593597 xtb: 6.2.2 (9d81278992624c895f80dd42a50cac0aa55982e2)
C         0.03476698111241   -0.31566831874955   -0.60040886587808
C         1.03143500175656   -0.80582918951169    0.28218588470691
O        -0.95785991788961    0.41854574628871   -0.02031616880950
H         1.36974869589122   -0.11742963963152    1.07957547844743
H        -1.47809076087057    0.82038140160406   -0.74103632846675
5
 energy: -9.025007553773 gnorm: 0.699207164531 xtb: 6.2.2 (9d81278992624c895f80dd42a50cac0aa55982e2)
C         0.08513827382821   -0.31204196798847   -0.41411435376824
C         0.90664890497321   -0.67090080195841    0.21622359710906
O        -0.98867927087323    0.35823384112560   -0.07250699426021
H         1.44158959844104   -0.18742621325592    1.03371152118598
H        -1.44469750636922    0.81213514207721   -0.76331377026660
5
 energy: -9.112377405371 gnorm: 0.052172115299 xtb: 6.2.2 (9d81278992624c895f80dd42a50cac0aa55982e2)
C         0.01082974498266   -0.30962273609315   -0.50516848707860
C         1.01642297778448   -0.73014145162452    0.26474568020308
O        -1.02496708535822    0.37634638540481   -0.05263502600461
H         1.44874133359558   -0.17581104535080    1.07324556191648
H        -1.45102697100451    0.83922884766366   -0.78018772903635
5
 energy: -9.116550182485 gnorm: 0.039551465975 xtb: 6.2.2 (9d81278992624c895f80dd42a50cac0aa55982e2)
C        -0.02156978446019   -0.39155982605767   -0.49166780616631
C         1.06098455840266   -0.68329257922014    0.21926520260078
O        -1.05061043468749    0.36025414525802   -0.06187852978371
H         1.44817971993489   -0.17871636447109    1.11547997318988
H        -1.43698405918988    0.89331462449087   -0.78119883984064
5
 energy: -9.117613965934 gnorm: 0.028072616258 xtb: 6.2.2 (9d81278992624c895f80dd42a50cac0aa55982e2)
C        -0.02981541798942   -0.41597824648109   -0.47266717036308
C         1.07327188542534   -0.66164884302875    0.20523499976300
O        -1.07018770952692    0.34470761105412   -0.06505058047138
H         1.44371678825854   -0.18112516710454    1.11446860748407
H        -1.41698554616754    0.91404464556026   -0.78198585641260
5
 energy: -9.117200192822 gnorm: 0.042064066132 xtb: 6.2.2 (9d81278992624c895f80dd42a50cac0aa55982e2)
C        -0.03592145995272   -0.43550576728505   -0.45854591894550
C         1.07637845879633   -0.62184743826643    0.17498178546758
O        -1.05225155104077    0.38690806806554   -0.06504482979128
H         1.42715256563565   -0.20889091155018    1.12790930281975
H        -1.41535801343849    0.87933604903613   -0.77930033955055
5
 energy: -9.118430148878 gnorm: 0.016633411514 xtb: 6.2.2 (9d81278992624c895f80dd42a50cac0aa55982e2)
C        -0.04514938786048   -0.44221707216837   -0.45154016812726
C         1.06984171003434   -0.61500549723040    0.18594349987386
O        -1.09091361053484    0.31924918722677   -0.06326594980811
H         1.43557400381399   -0.18920057417703    1.10712913872075
H        -1.36935271545301    0.92717395634903   -0.77826652065925
5
 energy: -9.118534127554 gnorm: 0.003673425874 xtb: 6.2.2 (9d81278992624c895f80dd42a50cac0aa55982e2)
C        -0.04565755698538   -0.44103195496963   -0.45634392903021
C         1.07385489633091   -0.62112191665723    0.18271883070536
O        -1.08043125352493    0.33443015913198   -0.06147318667507
H         1.42868019716638   -0.18879706135971    1.11210217966323
H        -1.37644628298698    0.91652077385460   -0.77700389466331
5
 energy: -9.118577517232 gnorm: 0.004512862566 xtb: 6.2.2 (9d81278992624c895f80dd42a50cac0aa55982e2)
C        -0.04826996544811   -0.44351752929999   -0.45400975674829
C         1.07334418400920   -0.61751341576398    0.18166585849339
O        -1.08746640548458    0.32737346222297   -0.06212061646292
H         1.42994830418887   -0.18746061609564    1.11057972239092
H        -1.36755611726539    0.92111809893664   -0.77611520767310
5
 energy: -9.118638081290 gnorm: 0.005760571448 xtb: 6.2.2 (9d81278992624c895f80dd42a50cac0aa55982e2)
C        -0.05252705654198   -0.45066514569585   -0.45306541298157
C         1.07145334665048   -0.61229221142599    0.17955588486721
O        -1.09948546148832    0.31162559790244   -0.06347862383093
H         1.42624396001377   -0.17979370190141    1.10598670924043
H        -1.34568478863394    0.93112546112080   -0.76899855729513
5
 energy: -9.118672373203 gnorm: 0.003876480217 xtb: 6.2.2 (9d81278992624c895f80dd42a50cac0aa55982e2)
C        -0.05389361024142   -0.45453992946650   -0.45469997344405
C         1.06957885575147   -0.61101482672956    0.17912874265810
O        -1.10532630428861    0.30375114462325   -0.06587239182953
H         1.42452446525121   -0.17446125767131    1.10440215893984
H        -1.33488340647264    0.93626486924412   -0.76295853632436
5
 energy: -9.118709381363 gnorm: 0.002371725173 xtb: 6.2.2 (9d81278992624c895f80dd42a50cac0aa55982e2)
C        -0.05452046397660   -0.46422965921475   -0.46053716638265
C         1.06768638518009   -0.61093104816094    0.17859751016264
O        -1.11021877665976    0.29039333747545   -0.07049873247769
H         1.41621619703322   -0.16229552715677    1.10183487332536
H        -1.31916334157695    0.94706289705701   -0.74939648462765
5
 energy: -9.118720468031 gnorm: 0.001510923613 xtb: 6.2.2 (9d81278992624c895f80dd42a50cac0aa55982e2)
C        -0.05342003872266   -0.46730513440397   -0.46253730192713
C         1.06634685149613   -0.61201929524384    0.17969805489349
O        -1.11303367552178    0.28491380098113   -0.07509732354121
H         1.41502494294798   -0.15757137407724    1.10090693734392
H        -1.31491808019967    0.95198200274392   -0.74297036676907
5
 energy: -9.118720302538 gnorm: 0.002342162132 xtb: 6.2.2 (9d81278992624c895f80dd42a50cac0aa55982e2)
C        -0.05432574975924   -0.47563097066175   -0.46514764085737
C         1.06578150842267   -0.61051957680113    0.17955790950982
O        -1.11764890561625    0.27314434496406   -0.08069597876730
H         1.41113048596068   -0.14971343852184    1.09968180305859
H        -1.30493733900786    0.96271964102066   -0.73339609294374
5
 energy: -9.118724828589 gnorm: 0.000631563443 xtb: 6.2.2 (9d81278992624c895f80dd42a50cac0aa55982e2)
C        -0.05401496585361   -0.47324980764205   -0.46393186518482
C         1.06623448679337   -0.61085123785646    0.17960934493894
O        -1.11574015312393    0.27691531998811   -0.07972075280406
H         1.41212855362941   -0.15234685342844    1.10006956976914
H        -1.30860792144525    0.95953257893884   -0.73602629671920
