 Entering Gaussian System
 *********************************************
 Gaussian 98:
 frequency output generated by the xtb code
 *********************************************
                         Standard orientation:
 --------------------------------------------------------------------
  Center     Atomic     Atomic              Coordinates (Angstroms)
  Number     Number      Type              X           Y           Z
 --------------------------------------------------------------------
    1          6             0       -0.028494    0.000562   -0.002803
    2          7             0        1.314240   -0.025924    0.129283
    3          1             0       -0.531263   -0.158265    0.968221
    4          1             0       -0.374200    0.971162   -0.401944
    5          1             0       -0.380283   -0.787535   -0.692757
 --------------------------------------------------------------------
     1 basis functions        1 primitive gaussians
     1 alpha electrons        1 beta electrons

 Harmonic frequencies (cm**-1), IR intensities (KM/Mole),
 Raman scattering activities (A**4/amu), Raman depolarization ratios,
 reduced masses (AMU), force constants (mDyne/A) and normal coordinates:
                      1                      2                      3
                        a                      a                      a 
 Frequencies --   930.2641               930.3691              1270.2959
 Red. masses --     3.8241                 3.8240                12.9226
 Frc consts  --     0.0000                 0.0000                 0.0000
 IR Inten    --     0.0629                 0.0629                 0.4249
 Raman Activ --     0.0000                 0.0000                 0.0000
 Depolar     --     0.0000                 0.0000                 0.0000
 Atom AN      X      Y      Z        X      Y      Z        X      Y      Z
   1   6     0.00   0.42   0.08    -0.04  -0.08   0.42    -0.72   0.01  -0.07
   2   7    -0.00  -0.24  -0.05     0.02   0.05  -0.24     0.69  -0.01   0.07
   3   1    -0.02  -0.20  -0.04    -0.64   0.04  -0.23    -0.03  -0.00   0.01
   4   1    -0.56  -0.16  -0.11     0.36   0.01  -0.16    -0.03   0.02  -0.01
   5   1     0.57  -0.19   0.04     0.33   0.05  -0.16    -0.03  -0.01  -0.01
                      4                      5                      6
                        a                      a                      a 
 Frequencies --  1306.2203              1347.9374              1348.0115
 Red. masses --     2.1212                 1.6447                 1.6443
 Frc consts  --     0.0000                 0.0000                 0.0000
 IR Inten    --     0.1549                 0.0984                 0.0965
 Raman Activ --     0.0000                 0.0000                 0.0000
 Depolar     --     0.0000                 0.0000                 0.0000
 Atom AN      X      Y      Z        X      Y      Z        X      Y      Z
   1   6    -0.24   0.00  -0.02    -0.02  -0.15   0.18     0.01  -0.18  -0.15
   2   7    -0.19   0.00  -0.02    -0.00  -0.01   0.01     0.00  -0.01  -0.01
   3   1     0.49  -0.04   0.24     0.24   0.34   0.19    -0.14   0.63   0.02
   4   1     0.52   0.17  -0.02    -0.23  -0.22  -0.32    -0.20   0.17   0.60
   5   1     0.52  -0.16  -0.07     0.07   0.46  -0.56     0.30  -0.11  -0.04
                      7                      8                      9
                        a                      a                      a 
 Frequencies --  2775.0685              2775.0777              2819.3378
 Red. masses --     1.8917                 1.8916                 1.1617
 Frc consts  --     0.0000                 0.0000                 0.0000
 IR Inten    --     0.1068                 0.1069                 0.0326
 Raman Activ --     0.0000                 0.0000                 0.0000
 Depolar     --     0.0000                 0.0000                 0.0000
 Atom AN      X      Y      Z        X      Y      Z        X      Y      Z
   1   6     0.01   0.28  -0.05     0.03  -0.05  -0.28    -0.11   0.00  -0.01
   2   7     0.00   0.01  -0.00     0.00  -0.00  -0.01    -0.05   0.00  -0.00
   3   1    -0.12   0.01   0.23    -0.34  -0.12   0.64     0.23   0.08  -0.52
   4   1     0.24  -0.67   0.29     0.05  -0.15   0.00     0.15  -0.51   0.21
   5   1    -0.16  -0.34  -0.35     0.19   0.44   0.34     0.15   0.42   0.36
