      -----------------------------------------------------------      
     |                   =====================                   |     
     |                           x T B                           |     
     |                   =====================                   |     
     |                         S. Grimme                         |     
     |          Mulliken Center for Theoretical Chemistry        |     
     |                    University of Bonn                     |     
      -----------------------------------------------------------      

   * xtb version 6.2.2 (9d81278992624c895f80dd42a50cac0aa55982e2) compiled by '@Darwin' on 04/03/2020

   xtb is free software: you can redistribute it and/or modify it under
   the terms of the GNU Lesser General Public License as published by
   the Free Software Foundation, either version 3 of the License, or
   (at your option) any later version.
   
   xtb is distributed in the hope that it will be useful,
   but WITHOUT ANY WARRANTY; without even the implied warranty of
   MERCHANTABILITY or FITNESS FOR A PARTICULAR PURPOSE.  See the
   GNU Lesser General Public License for more details.
   
   Cite this work as:
   * S. Grimme, C. Bannwarth, P. Shushkov, J. Chem. Theory Comput., 2017,
     13, 1989-2009. DOI: 10.1021/acs.jctc.7b00118
   * C. Bannwarth, S. Ehlert and S. Grimme., J. Chem. Theory Comput., 2019,
     15, 1652-1671. DOI: 10.1021/acs.jctc.8b01176
   * P. Pracht, E. Caldeweyher, S. Ehlert, S. Grimme, ChemRxiv, 2019, preprint.
     DOI: 10.26434/chemrxiv.8326202.v1
   
   for DFT-D4:
   * E. Caldeweyher, C. Bannwarth and S. Grimme, J. Chem. Phys., 2017,
     147, 034112. DOI: 10.1063/1.4993215
   * E. Caldeweyher, S. Ehlert, A. Hansen, H. Neugebauer, S. Spicher,
     C. Bannwarth and S. Grimme, J. Chem. Phys., 2019, 150, 154122.
     DOI: 10.1063/1.5090222
   
   for sTDA-xTB:
   * S. Grimme and C. Bannwarth, J. Chem. Phys., 2016, 145, 054103.
     DOI: 10.1063/1.4959605
   
   in the mass-spec context:
   * V. Asgeirsson, C. Bauer and S. Grimme, Chem. Sci., 2017, 8, 4879.
     DOI: 10.1039/c7sc00601b
   
   for metadynamics refer to:
   * S. Grimme, J. Chem. Theory Comput., 2019, 155, 2847-2862
     DOI: 10.1021/acs.jctc.9b00143
   
   with help from (in alphabetical order)
   C. Bannwarth, F. Bohle, G. Brandenburg, E. Caldeweyher, M. Checinski,
   S. Dohm, S. Ehlert, S. Ehrlich, F. März, H. Neugebauer, J. Pisarek,
   P. Pracht, P. Shushkov, and S. Spicher.
   
 * started run on 2020/05/12 at 11:44:28.021     

           -------------------------------------------------
          |                Calculation Setup                |
           -------------------------------------------------

          program call               : xtb --input H3C1N1_0_S_2.input H3C1N1_0_S_2.xyz --ohess --molden --namespace H3C1N1_0_S_2 output.out
          calculation namespace      : H3C1N1_0_S_2
          coordinate file            : H3C1N1_0_S_2.xyz
          number of atoms            :                     5
          number of electrons        :                    12
          charge                     :                     0
          spin                       :                   1.0
          first test random number   :      0.24261104789195

   ID    Z sym.   atoms
    1    6 C      1
    2    7 N      2
    3    1 H      3-5

           -------------------------------------------------
          |                 G F N 2 - x T B                 |
           -------------------------------------------------

        Reference                      10.1021/acs.jctc.8b01176
      * Hamiltonian:
        H0-scaling (s, p, d)           1.850000    2.230000    2.230000
        zeta-weighting                 0.500000
      * Dispersion:
        s8                             2.700000
        a1                             0.520000
        a2                             5.000000
        s9                             5.000000
      * Repulsion:
        kExp                           1.500000    1.000000
        rExp                           1.000000
      * Coulomb:
        alpha                          2.000000
        third order                    shell-resolved
        anisotropic                    true
        a3                             3.000000
        a5                             4.000000
        cn-shift                       1.200000
        cn-exp                         4.000000
        max-rad                        5.000000


          ...................................................
          :                      SETUP                      :
          :.................................................:
          :  # basis functions                  11          :
          :  # atomic orbitals                  11          :
          :  # shells                            7          :
          :  # electrons                        12          :
          :  max. iterations                   250          :
          :  Hamiltonian                  GFN2-xTB          :
          :  restarted?                      false          :
          :  GBSA solvation                  false          :
          :  PC potential                    false          :
          :  electronic temp.          300.0000000     K    :
          :  accuracy                    1.0000000          :
          :  -> integral cutoff          0.2500000E+02      :
          :  -> integral neglect         0.1000000E-07      :
          :  -> SCF convergence          0.1000000E-05 Eh   :
          :  -> wf. convergence          0.1000000E-03 e    :
          :  Broyden damping             0.4000000          :
          ...................................................

 iter      E             dE          RMSdq      gap      omega  full diag
   1     -6.4518146 -0.645181E+01  0.394E+00   11.83       0.0  T
   2     -6.4607922 -0.897760E-02  0.209E+00   12.49       1.0  T
   3     -6.4612843 -0.492112E-03  0.696E-01   12.44       1.0  T
   4     -6.4616062 -0.321904E-03  0.147E-01   12.54       1.0  T
   5     -6.4616384 -0.321444E-04  0.691E-02   12.51       1.0  T
   6     -6.4616348  0.351221E-05  0.480E-02   12.53       1.0  T
   7     -6.4616419 -0.704473E-05  0.447E-03   12.52      10.0  T
   8     -6.4616419 -0.416415E-07  0.733E-04   12.52      61.0  T
   9     -6.4616419 -0.122072E-08  0.662E-05   12.52     675.7  T

   *** convergence criteria satisfied after 9 iterations ***

         #    Occupation            Energy/Eh            Energy/eV
      -------------------------------------------------------------
         1        2.0000           -0.6312770             -17.1779
         2        2.0000           -0.5670832             -15.4311
         3        2.0000           -0.5165300             -14.0555
         4        2.0000           -0.5165298             -14.0555
         5        2.0000           -0.4379644             -11.9176
         6        1.0000           -0.3761101             -10.2345
         7        1.0000           -0.3761100             -10.2345 (HOMO)
         8                          0.0840420               2.2869 (LUMO)
         9                          0.1081165               2.9420
        10                          0.1664894               4.5304
        11                          0.1664911               4.5305
      -------------------------------------------------------------
                  HL-Gap            0.4601521 Eh           12.5214 eV
             Fermi-level           -0.2766902 Eh           -7.5291 eV

 transition dipole moment (au) for excitation:           6           7
     X       Y       Z   
  -0.0092  -0.0687   0.0800  total (au/Debye):    0.106   0.269
 dE (eV)             :    0.000
 oscillator strength :  0.12610E-08

 SCC (total)                   0 d,  0 h,  0 min,  0.002 sec
 SCC setup                      ...        0 min,  0.000 sec (  4.057%)
 Dispersion                     ...        0 min,  0.000 sec (  0.615%)
 integral evaluation            ...        0 min,  0.000 sec ( 20.743%)
 zeroth order Hamiltonian       ...        0 min,  0.000 sec (  0.707%)
 iterations                     ...        0 min,  0.001 sec ( 34.386%)
 molecular gradient             ...        0 min,  0.000 sec ( 21.473%)
 printout                       ...        0 min,  0.000 sec ( 17.597%)

         :::::::::::::::::::::::::::::::::::::::::::::::::::::
         ::                     SUMMARY                     ::
         :::::::::::::::::::::::::::::::::::::::::::::::::::::
         :: total energy              -6.406737457370 Eh    ::
         :: gradient norm              0.080323630720 Eh/a0 ::
         :: HOMO-LUMO gap             12.521374752822 eV    ::
         ::.................................................::
         :: SCC energy                -6.461641930690 Eh    ::
         :: -> isotropic ES            0.009476150792 Eh    ::
         :: -> anisotropic ES          0.000979273608 Eh    ::
         :: -> anisotropic XC          0.010921516013 Eh    ::
         :: -> dispersion             -0.000918885822 Eh    ::
         :: repulsion energy           0.054904456045 Eh    ::
         :: add. restraining           0.000000000000 Eh    ::
         :::::::::::::::::::::::::::::::::::::::::::::::::::::

      ----------------------------------------------------------- 
     |                   =====================                   |
     |                        A N C O P T                        |
     |                   =====================                   |
     |               Approximate Normal Coordinate               |
     |                Rational Function Optimizer                |
      ----------------------------------------------------------- 

          ...................................................
          :                      SETUP                      :
          :.................................................:
          :   optimization level            normal          :
          :   max. optcycles                   200          :
          :   ANC micro-cycles                  20          :
          :   degrees of freedom                 9          :
          :.................................................:
          :   RF solver                   davidson          :
          :   write xtbopt.log                true          :
          :   linear?                        false          :
          :   energy convergence         0.5000000E-05 Eh   :
          :   grad. convergence          0.1000000E-02 Eh/α :
          :   maximium RF displ.         1.0000000          :
          :   Hlow (freq-cutoff)         0.1000000E-01      :
          :   Hmax (freq-cutoff)         5.0000000          :
          :   S6 in model hess.         20.0000000          :
          ...................................................

generating ANC from model Hessian ...
Using Lindh-Hessian (1995)
 Shifting diagonal of input Hessian by    0.0000000000000000     
 Lowest  eigenvalues of input Hessian
   -0.000000   -0.000000   -0.000000   -0.000000    0.000000    0.000000
    0.088167    0.088167    0.105996    0.105996    0.127657    0.416628
    1.033081    1.033084    1.211120
 Highest eigenvalues
    0.105996    0.127657    0.416628    1.033081    1.033084    1.211120


........................................................................
.............................. CYCLE    1 ..............................
........................................................................
   1     -6.4616419 -0.646164E+01  0.391E-06   12.52       0.0  T
   2     -6.4616419 -0.426326E-13  0.172E-06   12.52   26053.1  T
   3     -6.4616419 -0.444089E-14  0.885E-07   12.52   50542.2  T
     SCC iter.                  ...        0 min,  0.000 sec
     gradient                   ...        0 min,  0.000 sec
 * total energy  :    -6.4067375 Eh     change        0.6872281E-09 Eh
   gradient norm :     0.0803232 Eh/α   predicted     0.0000000E+00 (-100.00%)
   displ. norm   :     0.1195286 α      lambda       -0.7927478E-02
   maximum displ.:     0.0915814 α      in ANC's #6, #9, #5, ...

........................................................................
.............................. CYCLE    2 ..............................
........................................................................
   1     -6.4775221 -0.647752E+01  0.570E-01   13.50       0.0  T
   2     -6.4778549 -0.332774E-03  0.256E-01   13.32       1.0  T
   3     -6.4778790 -0.241795E-04  0.129E-01   13.36       1.0  T
   4     -6.4778897 -0.106658E-04  0.179E-02   13.34       2.5  T
   5     -6.4778899 -0.149307E-06  0.719E-03   13.34       6.2  T
   6     -6.4778899 -0.838565E-08  0.509E-04   13.34      87.8  T
   7     -6.4778899 -0.570759E-09  0.162E-04   13.34     275.6  T
     SCC iter.                  ...        0 min,  0.000 sec
     gradient                   ...        0 min,  0.000 sec
 * total energy  :    -6.4121741 Eh     change       -0.5436687E-02 Eh
   gradient norm :     0.0364753 Eh/α   predicted    -0.4020368E-02 ( -26.05%)
   displ. norm   :     0.0620142 α      lambda       -0.2033043E-02
   maximum displ.:     0.0492988 α      in ANC's #9, #6, #5, ...

........................................................................
.............................. CYCLE    3 ..............................
........................................................................
   1     -6.4849717 -0.648497E+01  0.337E-01   13.49       0.0  T
   2     -6.4850664 -0.947277E-04  0.153E-01   13.41       1.0  T
   3     -6.4850721 -0.574022E-05  0.762E-02   13.44       1.0  T
   4     -6.4850752 -0.303477E-05  0.822E-03   13.43       5.4  T
   5     -6.4850752 -0.618136E-08  0.274E-03   13.43      16.3  T
   6     -6.4850752 -0.165463E-08  0.138E-04   13.43     325.0  T
   7     -6.4850752 -0.243894E-11  0.605E-05   13.43     739.8  T
     SCC iter.                  ...        0 min,  0.000 sec
     gradient                   ...        0 min,  0.000 sec
 * total energy  :    -6.4130959 Eh     change       -0.9217127E-03 Eh
   gradient norm :     0.0092214 Eh/α   predicted    -0.1020429E-02 (  10.71%)
   displ. norm   :     0.0248813 α      lambda       -0.1971385E-03
   maximum displ.:     0.0192434 α      in ANC's #5, #6, #9, ...

........................................................................
.............................. CYCLE    4 ..............................
........................................................................
   1     -6.4830240 -0.648302E+01  0.724E-02   13.34       0.0  T
   2     -6.4830297 -0.568719E-05  0.323E-02   13.36       1.4  T
   3     -6.4830299 -0.257285E-06  0.147E-02   13.36       3.0  T
   4     -6.4830301 -0.119592E-06  0.313E-03   13.36      14.3  T
   5     -6.4830301 -0.516179E-08  0.778E-04   13.36      57.5  T
   6     -6.4830301 -0.377574E-10  0.318E-05   13.36    1407.4  T
     SCC iter.                  ...        0 min,  0.000 sec
     gradient                   ...        0 min,  0.000 sec
 * total energy  :    -6.4132151 Eh     change       -0.1192633E-03 Eh
   gradient norm :     0.0029821 Eh/α   predicted    -0.9862829E-04 ( -17.30%)
   displ. norm   :     0.0082485 α      lambda       -0.2177183E-04
   maximum displ.:     0.0060608 α      in ANC's #6, #5, #9, ...

........................................................................
.............................. CYCLE    5 ..............................
........................................................................
   1     -6.4823750 -0.648237E+01  0.173E-02   13.29       0.0  T
   2     -6.4823753 -0.346232E-06  0.700E-03   13.29       6.4  T
   3     -6.4823753 -0.128984E-07  0.299E-03   13.29      15.0  T
   4     -6.4823753 -0.801572E-09  0.577E-04   13.29      77.6  T
   5     -6.4823753 -0.858829E-09  0.161E-04   13.29     277.8  T
     SCC iter.                  ...        0 min,  0.000 sec
     gradient                   ...        0 min,  0.000 sec
 * total energy  :    -6.4132265 Eh     change       -0.1133142E-04 Eh
   gradient norm :     0.0002322 Eh/α   predicted    -0.1088852E-04 (  -3.91%)
   displ. norm   :     0.0012093 α      lambda       -0.1491750E-06
   maximum displ.:     0.0009926 α      in ANC's #5, #6, #9, ...

........................................................................
.............................. CYCLE    6 ..............................
........................................................................
   1     -6.4823040 -0.648230E+01  0.309E-03   13.28       0.0  T
   2     -6.4823040 -0.790150E-08  0.136E-03   13.28      32.8  T
   3     -6.4823040 -0.419928E-09  0.776E-04   13.28      57.6  T
   4     -6.4823040 -0.249659E-09  0.684E-05   13.28     654.0  T
     SCC iter.                  ...        0 min,  0.000 sec
     gradient                   ...        0 min,  0.000 sec
 * total energy  :    -6.4132265 Eh     change       -0.6777967E-07 Eh
   gradient norm :     0.0000952 Eh/α   predicted    -0.7516199E-07 (  10.89%)
   displ. norm   :     0.0003470 α      lambda       -0.1810926E-07
   maximum displ.:     0.0002640 α      in ANC's #5, #6, #9, ...

   *** GEOMETRY OPTIMIZATION CONVERGED AFTER 6 ITERATIONS ***

------------------------------------------------------------------------
 total energy gain   :        -0.0064891 Eh       -4.0719 kcal/mol
 total RMSD          :         0.0676926 a0        0.0358 Å
 total power (kW/mol):        -2.8395047 (step)-2229.6632 (real)
------------------------------------------------------------------------

 ANCopt (total)                0 d,  0 h,  0 min,  0.008 sec
 optimizer setup                ...        0 min,  0.000 sec (  0.888%)
 model hessian                  ...        0 min,  0.000 sec (  1.322%)
 ANC generation                 ...        0 min,  0.000 sec (  0.720%)
 coordinate transformation      ...        0 min,  0.000 sec (  0.150%)
 single point calculation       ...        0 min,  0.007 sec ( 90.213%)
 optimization log               ...        0 min,  0.000 sec (  1.711%)
 hessian update                 ...        0 min,  0.000 sec (  0.187%)
 rational function              ...        0 min,  0.000 sec (  1.786%)

================
 final structure:
================
5
 xtb: 6.2.2 (9d81278992624c895f80dd42a50cac0aa55982e2)
C        -0.02849419924705    0.00056191480782   -0.00280310307033
N         1.31423933667494   -0.02591725542279    0.12928764030278
H        -0.53126516172730   -0.15826923915945    0.96821868964735
H        -0.37420339949617    0.97116044726424   -0.40194334832840
H        -0.38027657620442   -0.78753586748983   -0.69275987855141

 Bond Distances (Angstroems)
 ---------------------------
C1-N2=1.3495         C1-H3=1.1049         C1-H4=1.1049         C1-H5=1.1049         N2-C1=1.3495         H3-C1=1.1049         
H4-C1=1.1049         H5-C1=1.1049         
 C  H  Rav=1.1049 sigma=0.0000  Rmin=1.1049  Rmax=1.1049     3
 N  C  Rav=1.3495 sigma=0.0000  Rmin=1.3495  Rmax=1.3495     1

 selected bond angles (degree)
 --------------------
H3-C1-N2=111.34                H4-C1-N2=111.34                H4-C1-H3=107.54                H5-C1-N2=111.34                
H5-C1-H3=107.54                H5-C1-H4=107.54                

 selected dihedral angles (degree)
 ---------------------------------

           -------------------------------------------------
          |                Final Singlepoint                |
           -------------------------------------------------

          ...................................................
          :                      SETUP                      :
          :.................................................:
          :  # basis functions                  11          :
          :  # atomic orbitals                  11          :
          :  # shells                            7          :
          :  # electrons                        12          :
          :  max. iterations                   250          :
          :  Hamiltonian                  GFN2-xTB          :
          :  restarted?                      false          :
          :  GBSA solvation                  false          :
          :  PC potential                    false          :
          :  electronic temp.          300.0000000     K    :
          :  accuracy                    1.0000000          :
          :  -> integral cutoff          0.2500000E+02      :
          :  -> integral neglect         0.1000000E-07      :
          :  -> SCF convergence          0.1000000E-05 Eh   :
          :  -> wf. convergence          0.1000000E-03 e    :
          :  Broyden damping             0.4000000          :
          ...................................................

 iter      E             dE          RMSdq      gap      omega  full diag
   1     -6.4823040 -0.648230E+01  0.157E-05   13.28       0.0  T
   2     -6.4823040 -0.199840E-12  0.947E-06   13.28    4720.2  T
   3     -6.4823040 -0.799361E-14  0.430E-06   13.28   10391.2  T

   *** convergence criteria satisfied after 3 iterations ***

         #    Occupation            Energy/Eh            Energy/eV
      -------------------------------------------------------------
         1        2.0000           -0.6444353             -17.5360
         2        2.0000           -0.5746300             -15.6365
         3        2.0000           -0.5238264             -14.2540
         4        2.0000           -0.5238264             -14.2540
         5        2.0000           -0.4300949             -11.7035
         6        1.0000           -0.3641544              -9.9091
         7        1.0000           -0.3641544              -9.9091 (HOMO)
         8                          0.1237950               3.3686 (LUMO)
         9                          0.1739014               4.7321
        10                          0.1739014               4.7321
        11                          0.2569512               6.9920
      -------------------------------------------------------------
                  HL-Gap            0.4879493 Eh           13.2778 eV
             Fermi-level           -0.2588181 Eh           -7.0428 eV

 transition dipole moment (au) for excitation:           6           7
     X       Y       Z   
  -0.0132  -0.0737   0.1197  total (au/Debye):    0.141   0.359
 dE (eV)             :    0.000
 oscillator strength :  0.51963E-11

 SCC (total)                   0 d,  0 h,  0 min,  0.002 sec
 SCC setup                      ...        0 min,  0.000 sec (  4.750%)
 Dispersion                     ...        0 min,  0.000 sec (  0.525%)
 integral evaluation            ...        0 min,  0.000 sec ( 23.695%)
 zeroth order Hamiltonian       ...        0 min,  0.000 sec (  0.565%)
 iterations                     ...        0 min,  0.000 sec ( 24.327%)
 molecular gradient             ...        0 min,  0.000 sec ( 24.112%)
 printout                       ...        0 min,  0.000 sec ( 21.555%)

         :::::::::::::::::::::::::::::::::::::::::::::::::::::
         ::                     SUMMARY                     ::
         :::::::::::::::::::::::::::::::::::::::::::::::::::::
         :: total energy              -6.413226516608 Eh    ::
         :: gradient norm              0.000095119865 Eh/a0 ::
         :: HOMO-LUMO gap             13.277777479317 eV    ::
         ::.................................................::
         :: SCC energy                -6.482304026755 Eh    ::
         :: -> isotropic ES            0.011000926546 Eh    ::
         :: -> anisotropic ES          0.001101318012 Eh    ::
         :: -> anisotropic XC          0.010733085090 Eh    ::
         :: -> dispersion             -0.000920413853 Eh    ::
         :: repulsion energy           0.069077495240 Eh    ::
         :: add. restraining           0.000000000000 Eh    ::
         :::::::::::::::::::::::::::::::::::::::::::::::::::::

           ------------------------------------------------- 
          |                Numerical Hessian                |
           ------------------------------------------------- 
step length          :   0.00500
SCC accuracy         :   0.30000
Hessian scale factor :   1.00000
frozen atoms in %    :   0.00000    0
RMS gradient         :   0.00010
estimated CPU  time      0.00 min
estimated wall time      0.00 min

writing file <hessian>.

 projected vibrational frequencies (cm-1)
eigval :       -0.00    -0.00    -0.00     0.00     0.00     0.00
eigval :      930.26   930.37  1270.30  1306.22  1347.94  1348.01
eigval :     2775.07  2775.08  2819.34
           -------------------------------------------------
          |                Property Printout                |
           -------------------------------------------------

    * Orbital Energies and Occupations

         #    Occupation            Energy/Eh            Energy/eV
      -------------------------------------------------------------
         1        2.0000           -0.6444353             -17.5360
         2        2.0000           -0.5746300             -15.6365
         3        2.0000           -0.5238264             -14.2540
         4        2.0000           -0.5238264             -14.2540
         5        2.0000           -0.4300949             -11.7035
         6        1.0000           -0.3641544              -9.9091
         7        1.0000           -0.3641544              -9.9091 (HOMO)
         8                          0.1237950               3.3686 (LUMO)
         9                          0.1739013               4.7321
        10                          0.1739013               4.7321
        11                          0.2569512               6.9920
      -------------------------------------------------------------
                  HL-Gap            0.4879493 Eh           13.2778 eV
             Fermi-level           -0.2588181 Eh           -7.0428 eV

     #   Z        covCN         q      C6AA      α(0)
     1   6 C      3.677    -0.001    20.823     6.537
     2   7 N      0.910    -0.260    26.757     7.482
     3   1 H      0.922     0.087     1.907     2.160
     4   1 H      0.922     0.087     1.907     2.160
     5   1 H      0.922     0.087     1.907     2.160

 Mol. C6AA /au·bohr⁶  :        192.093379
 Mol. C8AA /au·bohr⁸  :       3990.115743
 Mol. α(0) /au        :         20.498265


Wiberg/Mayer (AO) data.
largest (>0.10) Wiberg bond orders for each atom
          total WBO             WBO to atom ...
     1  C   3.938        N    2 1.287    H    5 0.884    H    3 0.884    H    4 0.884
     2  N   1.322        C    1 1.287
     3  H   0.899        C    1 0.884
     4  H   0.899        C    1 0.884
     5  H   0.899        C    1 0.884

MOs/occ written to file <molden.input>


molecular dipole:
                 x           y           z       tot (Debye)
 q only:       -0.858       0.017      -0.084
   full:       -1.277       0.025      -0.126       3.263
molecular quadrupole (traceless):
                xx          xy          yy          xz          yz          zz
 q only:       -1.914       0.057       0.970      -0.284       0.006       0.944
  q+dip:       -3.776       0.112       1.915      -0.560       0.011       1.862
   full:       -4.076       0.121       2.067      -0.605       0.012       2.010

           -------------------------------------------------
          |                Geometry Summary                 |
           -------------------------------------------------

      molecular mass/u    :       29.0412614
   center of mass at/Å    :        0.5774533      -0.0113905       0.0568047
  moments of inertia/u·Å² :        0.3202857E+01   0.1682720E+02   0.1682720E+02
rotational constants/cm⁻¹ :        0.5263312E+01   0.1001808E+01   0.1001808E+01

 * 4 selected distances

     #   Z        #   Z                                     value/Å
     1   6 C      2   7 N                                 1.3494749 (max)
     1   6 C      3   1 H                                 1.1049386
     1   6 C      4   1 H                                 1.1049386 (min)
     1   6 C      5   1 H                                 1.1049386

 * 2 distinct bonds (by element types)

   Z      Z             #   av. dist./Å        max./Å        min./Å
   1 H    6 C           3     1.1049386     1.1049386     1.1049386
   6 C    7 N           1     1.3494749     1.3494749     1.3494749

           -------------------------------------------------
          |               Frequency Printout                |
           -------------------------------------------------
 projected vibrational frequencies (cm-1)
eigval :       -0.00    -0.00    -0.00     0.00     0.00     0.00
eigval :      930.26   930.37  1270.30  1306.22  1347.94  1348.01
eigval :     2775.07  2775.08  2819.34
Molecule has the following symmetry elements: (C3) 3*(sigma) 
It seems to be the C3v point group
 reduced masses (amu)
   1:  3.39   2: 10.58   3: 12.92   4: 13.38   5: 10.00   6:  5.93   7:  3.82   8:  3.82
   9: 12.92  10:  2.12  11:  1.64  12:  1.64  13:  1.89  14:  1.89  15:  1.16
 IR intensities (amu)
   1:  0.15   2:  0.10   3:  0.37   4:  0.34   5:  0.19   6:  0.22   7:  0.06   8:  0.06
   9:  0.42  10:  0.15  11:  0.10  12:  0.10  13:  0.11  14:  0.11  15:  0.03
 Raman intensities (amu)
   1:  0.00   2:  0.00   3:  0.00   4:  0.00   5:  0.00   6:  0.00   7:  0.00   8:  0.00
   9:  0.00  10:  0.00  11:  0.00  12:  0.00  13:  0.00  14:  0.00  15:  0.00
 output can be read by thermo (or use thermo option).
 writing <g98.out> molden fake output.
 recommended (thermochemical) frequency scaling factor: 1.0
           -------------------------------------------------
          |             Thermodynamic Functions             |
           -------------------------------------------------

c3v symmetry found (for desy threshold:  0.10E+00) used in thermo

          ...................................................
          :                      SETUP                      :
          :.................................................:
          :  # frequencies                           9      :
          :  # imaginary freq.                       0      :
          :  linear?                             false      :
          :  only rotor calc.                    false      :
          :  symmetry                              c3v      :
          :  rotational number                       3      :
          :  scaling factor                  1.0000000      :
          :  rotor cutoff                   50.0000000 cm⁻¹ :
          :  imag. cutoff                  -20.0000000 cm⁻¹ :
          :.................................................:

    mode    ω/cm⁻¹     T·S(HO)/kcal·mol⁻¹    T·S(FR)/kcal·mol⁻¹   T·S(vib)
   ------------------------------------------------------------------------
   ------------------------------------------------------------------------

   temp. (K)  partition function   enthalpy   heat capacity  entropy
                                   cal/mol     cal/K/mol   cal/K/mol   J/K/mol
 298.15  VIB   1.03                   86.760      1.482      0.350
         ROT   767.                  888.752      2.981     16.181
         INT   790.                  975.512      4.463     16.531
         TR   0.151E+27             1481.254      4.968     36.016
         TOT                        2456.7664     9.4311    52.5467   219.8553

   temp. (K)  partition function   enthalpy   heat capacity  entropy
                                   cal/mol     cal/K/mol   cal/K/mol   J/K/mol
 120.00  VIB   1.00                    0.078      0.007      0.001
         ROT   196.                  357.707      2.981     13.468
         INT   196.                  357.785      2.988     13.469
         TR   0.387E+26              596.178      4.968     31.497
         TOT                         953.9632     7.9564    44.9653   188.1349

   temp. (K)  partition function   enthalpy   heat capacity  entropy
                                   cal/mol     cal/K/mol   cal/K/mol   J/K/mol
 100.00  VIB   1.00                    0.008      0.001      0.000
         ROT   149.                  298.089      2.981     12.924
         INT   149.                  298.097      2.982     12.924
         TR   0.294E+26              496.815      4.968     30.591
         TOT                         794.9123     7.9502    43.5158   182.0703

   temp. (K)  partition function   enthalpy   heat capacity  entropy
                                   cal/mol     cal/K/mol   cal/K/mol   J/K/mol
  80.00  VIB   1.00                    0.000      0.000     -0.000
         ROT   107.                  238.471      2.981     12.259
         INT   107.                  238.471      2.981     12.259
         TR   0.210E+26              397.452      4.968     29.483
         TOT                         635.9235     7.9491    41.7425   174.6507

   temp. (K)  partition function   enthalpy   heat capacity  entropy
                                   cal/mol     cal/K/mol   cal/K/mol   J/K/mol
  60.00  VIB   1.00                    0.000      0.000     -0.000
         ROT   69.2                  178.853      2.981     11.402
         INT   69.2                  178.853      2.981     11.402
         TR   0.137E+26              298.089      4.968     28.055
         TOT                         476.9424     7.9490    39.4564   165.0856

   temp. (K)  partition function   enthalpy   heat capacity  entropy
                                   cal/mol     cal/K/mol   cal/K/mol   J/K/mol
  40.00  VIB   1.00                    0.000      0.000     -0.000
         ROT   37.7                  119.236      2.981     10.193
         INT   37.7                  119.236      2.981     10.193
         TR   0.744E+25              198.726      4.968     26.041
         TOT                         317.9616     7.9490    36.2343   151.6044

   temp. (K)  partition function   enthalpy   heat capacity  entropy
                                   cal/mol     cal/K/mol   cal/K/mol   J/K/mol
  20.00  VIB   1.00                    0.000      0.000     -0.000
         ROT   13.3                   59.618      2.981      8.127
         INT   13.3                   59.618      2.981      8.127
         TR   0.263E+25               99.363      4.968     22.599
         TOT                         158.9808     7.9490    30.7261   128.5581

   temp. (K)  partition function   enthalpy   heat capacity  entropy
                                   cal/mol     cal/K/mol   cal/K/mol   J/K/mol
  10.00  VIB   1.00                    0.000      0.000     -0.000
         ROT   4.71                   29.809      2.981      6.061
         INT   4.71                   29.809      2.981      6.061
         TR   0.930E+24               49.681      4.968     19.157
         TOT                          79.4904     7.9490    25.2179   105.5119

       T/K    H(0)-H(T)+PV         H(T)/Eh          T*S/Eh         G(T)/Eh
   ------------------------------------------------------------------------
    298.15    0.391511E-02    0.392326E-01    0.249666E-01    0.142660E-01
    120.00    0.152024E-02    0.368377E-01    0.859881E-02    0.282389E-01
    100.00    0.126677E-02    0.365843E-01    0.693469E-02    0.296496E-01
     80.00    0.101341E-02    0.363309E-01    0.532168E-02    0.310092E-01
     60.00    0.760056E-03    0.360775E-01    0.377267E-02    0.323049E-01
     40.00    0.506704E-03    0.358242E-01    0.230972E-02    0.335145E-01
     20.00    0.253352E-03    0.355708E-01    0.979304E-03    0.345915E-01
     10.00    0.126676E-03    0.354442E-01    0.401874E-03    0.350423E-01 (used)
   ------------------------------------------------------------------------

         :::::::::::::::::::::::::::::::::::::::::::::::::::::
         ::                  THERMODYNAMIC                  ::
         :::::::::::::::::::::::::::::::::::::::::::::::::::::
         :: total free energy          -6.378184232771 Eh   ::
         ::.................................................::
         :: total energy               -6.413226516653 Eh   ::
         :: zero point energy           0.035317481401 Eh   ::
         :: G(RRHO) w/o ZPVE           -0.000275197519 Eh   ::
         :: G(RRHO) contrib.            0.035042283882 Eh   ::
         :::::::::::::::::::::::::::::::::::::::::::::::::::::

optimized geometry written to: xtbopt.xyz


           -------------------------------------------------
          | TOTAL ENERGY               -6.413226516653 Eh   |
          | TOTAL ENTHALPY             -6.377782359236 Eh   |
          | TOTAL FREE ENERGY          -6.378184232771 Eh   |
          | GRADIENT NORM               0.000095123202 Eh/α |
          | HOMO-LUMO GAP              13.277777077365 eV   |
           -------------------------------------------------

------------------------------------------------------------------------
 * finished run on 2020/05/12 at 11:44:28.085     
------------------------------------------------------------------------
 total:
 * wall-time:     0 d,  0 h,  0 min,  0.064 sec
 *  cpu-time:     0 d,  0 h,  0 min,  0.063 sec
 * ratio c/w:     0.999 speedup
 SCF:
 * wall-time:     0 d,  0 h,  0 min,  0.002 sec
 *  cpu-time:     0 d,  0 h,  0 min,  0.002 sec
 * ratio c/w:     1.000 speedup
 ANC optimizer:
 * wall-time:     0 d,  0 h,  0 min,  0.010 sec
 *  cpu-time:     0 d,  0 h,  0 min,  0.010 sec
 * ratio c/w:     0.998 speedup
 numerical hessian:
 * wall-time:     0 d,  0 h,  0 min,  0.033 sec
 *  cpu-time:     0 d,  0 h,  0 min,  0.033 sec
 * ratio c/w:     0.999 speedup

