[Molden Format]
[Title]
[Atoms] AU
C      1     6  0.21182518224050E+01 -0.56238241464725E+00  0.79940534742610E+00
N      2     7  0.86388002999998E+00  0.55034149174246E+00 -0.12289994291186E+01
C      3     6 -0.13823750917126E+01 -0.10052327244238E+01 -0.11864526838111E+01
C      4     6 -0.42339384567252E+00 -0.69056929280016E+00  0.14433826240028E+01
C      5     6 -0.11763629150199E+01  0.17078429401287E+01  0.17266414150081E+00
[GTO]
           1 0
 s           4   1.0000000000000000     
   51.049363095579913      -0.16312063210127389     
   8.7911227406887544      -0.19911024581000730     
  0.70640422258929825       0.31882047753655751     
  0.26922813413411617       0.12706504184240380     
 p           4   1.0000000000000000     
   5.8263656140800002       0.73716451545209605     
   1.5106896018720002       0.68216371614850257     
  0.53256483288000001       0.35783053929253711     
  0.21202323690600003        5.3983030275847881E-002

           2 0
 s           4   1.0000000000000000     
   63.594024466941008      -0.19234388414721629     
   10.951417231523665      -0.23478107924953728     
  0.87999310257376984       0.37593753901700888     
  0.33538715296521110       0.14982889271862770     
 p           4   1.0000000000000000     
   7.2965040481495080       0.97658666315667420     
   1.8918745450712575       0.90372226730345739     
  0.66694432110824120       0.47404958461536373     
  0.26552202674130870        7.1516067715011844E-002

           3 0
 s           4   1.0000000000000000     
   51.049363095579913      -0.16312063210127389     
   8.7911227406887544      -0.19911024581000730     
  0.70640422258929825       0.31882047753655751     
  0.26922813413411617       0.12706504184240380     
 p           4   1.0000000000000000     
   5.8263656140800002       0.73716451545209605     
   1.5106896018720002       0.68216371614850257     
  0.53256483288000001       0.35783053929253711     
  0.21202323690600003        5.3983030275847881E-002

           4 0
 s           4   1.0000000000000000     
   51.049363095579913      -0.16312063210127389     
   8.7911227406887544      -0.19911024581000730     
  0.70640422258929825       0.31882047753655751     
  0.26922813413411617       0.12706504184240380     
 p           4   1.0000000000000000     
   5.8263656140800002       0.73716451545209605     
   1.5106896018720002       0.68216371614850257     
  0.53256483288000001       0.35783053929253711     
  0.21202323690600003        5.3983030275847881E-002

           5 0
 s           4   1.0000000000000000     
   51.049363095579913      -0.16312063210127389     
   8.7911227406887544      -0.19911024581000730     
  0.70640422258929825       0.31882047753655751     
  0.26922813413411617       0.12706504184240380     
 p           4   1.0000000000000000     
   5.8263656140800002       0.73716451545209605     
   1.5106896018720002       0.68216371614850257     
  0.53256483288000001       0.35783053929253711     
  0.21202323690600003        5.3983030275847881E-002

[MO]
Sym=     1a
Ene=  -0.79856401055337312     
Spin= Alpha
Occup=     2.00000000
           1 -0.22073503812969497     
           2  0.11914408120568110     
           3  -3.1416214769447476E-002
           4   4.4526189391562755E-002
           5 -0.30691145661062352     
           6  0.12278492072491665     
           7   8.9578138665235257E-002
           8 -0.19732486052167711     
           9 -0.21008005142857983     
          10  -7.7703865258231516E-002
          11  -5.9214407976018534E-002
          12  -6.4965916264974041E-002
          13 -0.27085018412118467     
          14  -5.3583506336853721E-002
          15  -6.3063896494212096E-002
          16  0.13408163221597424     
          17 -0.21003755503870267     
          18  -6.5883221761616262E-002
          19   9.6204255642389894E-002
          20   1.2895037387160050E-002
Sym=     2a
Ene=  -0.70444790631987719     
Spin= Alpha
Occup=     2.00000000
           1 -0.45066453137907442     
           2   6.3233870518123222E-002
           3  -3.2052437438656656E-002
           4   5.4259849807532526E-002
           5  -2.9590138039009638E-002
           6 -0.35489945360053726     
           7  0.10988889524241187     
           8 -0.16514922004116847     
           9  0.26232281311820044     
          10  -2.3748370200991492E-002
          11  0.12049720575623911     
          12   8.1319685703101045E-003
          13  -5.9611862880378855E-002
          14 -0.25003157464764270     
          15   5.2493187421502330E-002
          16  -6.6600655060820552E-002
          17  0.26252747432754586     
          18  -3.8473585100800303E-002
          19  -7.4865688182208845E-002
          20  -8.9699466413374687E-002
Sym=     3a
Ene=  -0.65907666585346159     
Spin= Alpha
Occup=     2.00000000
           1  -6.3508549974871989E-005
           2  -1.4784198656345594E-002
           3 -0.19514278106439081     
           4  -9.8130916703220120E-002
           5   5.7811593656118443E-004
           6  -3.2191847957858635E-002
           7 -0.42289419946536172     
           8 -0.21220627992231494     
           9  0.35969910588147025     
          10  0.12698172297119195     
          11  -9.1408897953705950E-002
          12  -1.7824477665727537E-002
          13  -6.4174484921982475E-004
          14  -2.0734023050984221E-002
          15 -0.27184050269499438     
          16 -0.13625247379834349     
          17 -0.35955780990115838     
          18 -0.13780633725501923     
          19  -5.2740305011038172E-002
          20  -5.4997521646766322E-002
Sym=     4a
Ene=  -0.65609921676322280     
Spin= Alpha
Occup=     2.00000000
           1  -1.8928737460450356E-002
           2  0.10422220181816833     
           3  0.10453401571028571     
           4 -0.22386045568858684     
           5  0.57716931978964459     
           6   7.3294031620247238E-002
           7   6.0143282501415304E-002
           8 -0.13002906121872301     
           9  -3.4605580527344540E-002
          10   9.7546033856421799E-002
          11   7.8994298599431093E-002
          12 -0.17884050975754517     
          13 -0.44335095520526713     
          14   4.3897757176399509E-002
          15   2.5616030427382325E-002
          16  -5.6837022214981513E-002
          17  -3.3732645293227878E-002
          18   9.8245546281314697E-002
          19   8.4188764253945114E-002
          20 -0.17613495257929679     
Sym=     5a
Ene=  -0.58058582330589292     
Spin= Alpha
Occup=     2.00000000
           1  0.11946004829108346     
           2 -0.12596688359512409     
           3 -0.17837967415987907     
           4  0.37513072449747886     
           5  -7.0745489578947921E-003
           6 -0.38118171837886600     
           7  0.10914500458228794     
           8 -0.15963309949883833     
           9  -5.4309472784811456E-002
          10  0.12507950545340935     
          11   9.8357576464555466E-002
          12 -0.20125719069609602     
          13   3.2315063042613765E-002
          14  0.38053399538626820     
          15 -0.10740663626103254     
          16  0.15624682763856082     
          17  -5.4353004370565679E-002
          18  0.12432201723237621     
          19   8.7222578514593294E-002
          20 -0.20705298726479440     
Sym=     6a
Ene=  -0.52879289467062596     
Spin= Alpha
Occup=     2.00000000
           1 -0.26332944623859639     
           2 -0.17845380117176085     
           3   4.1325565535286265E-003
           4   1.8908823168769667E-002
           5  0.45420784181101981     
           6  0.19391009586984156     
           7  0.18807401712578520     
           8 -0.40464699042463947     
           9 -0.13384828293229678     
          10   8.1481832150665304E-002
          11  -6.7174076365794921E-002
          12   9.1144456761187639E-002
          13  0.49914096261650454     
          14 -0.17889752467785106     
          15 -0.14068143773032793     
          16  0.30774100145705902     
          17 -0.13404119320146707     
          18   8.3399257348083164E-002
          19  -4.2820787933633919E-002
          20  0.10324913443863870     
Sym=     7a
Ene=  -0.51885247332618267     
Spin= Alpha
Occup=     2.00000000
           1  0.54069287798660792     
           2  0.36373274417454454     
           3  -9.0041535139091813E-002
           4  0.12428324785969129     
           5   9.4422151757829517E-002
           6  0.19550884007061614     
           7  0.13165921549519832     
           8 -0.29214085207423451     
           9  0.26089707572220439     
          10 -0.27360955356496391     
          11   9.2705545008303691E-002
          12  -5.1314988735025560E-002
          13   9.5475288612017484E-002
          14  -7.4071695417327110E-002
          15  -7.0282503973345734E-002
          16  0.15119320058177294     
          17  0.26109997424017606     
          18 -0.27913085806484961     
          19   1.9298743076013734E-002
          20  -8.8303140837919389E-002
Sym=     8a
Ene=  -0.51697736914891101     
Spin= Alpha
Occup=     2.00000000
           1  -1.4443387758683783E-004
           2   1.0288690469803569E-003
           3   1.4475470685049042E-002
           4   7.1361904101767673E-003
           5   3.4359364168161292E-005
           6   3.6210963648962036E-002
           7  0.47440699881703230     
           8  0.23789277630687408     
           9  0.17342569075285763     
          10 -0.21088117360499217     
          11 -0.20768348868580611     
          12  0.23931057350833718     
          13  -2.7852472019410253E-004
          14  -3.2142613655026367E-002
          15 -0.42186742725685755     
          16 -0.21163680130212748     
          17 -0.17341259290145233     
          18  0.19826531561399952     
          19   4.2413903698326073E-002
          20 -0.32189110249978153     
Sym=     9a
Ene=  -0.48134269416547099     
Spin= Alpha
Occup=     2.00000000
           1  -9.5919484850791312E-005
           2   3.1740668808502771E-002
           3  0.41651396897666937     
           4  0.20872777985129826     
           5  -1.1230893329969454E-005
           6   3.1602397289880999E-003
           7   4.0407057316586413E-002
           8   2.0298986687471893E-002
           9  0.45399820623811898     
          10 -0.20583547354109472     
          11 -0.10979711121370729     
          12 -0.28496260733255990     
          13   6.8698475643247321E-005
          14   1.9485920015268676E-002
          15  0.25399097034251467     
          16  0.12735346905003228     
          17 -0.45371987139926495     
          18  0.17301750288849987     
          19 -0.31689968546187491     
          20   7.0897430051301544E-002
Sym=    10a
Ene=  -0.45463065251433610     
Spin= Alpha
Occup=     1.99999997
           1 -0.16795018113883345     
           2 -0.26792399999355970     
           3   4.0807531496314185E-002
           4  -4.0905487545701773E-002
           5  -1.3322903560339628E-002
           6  0.12436575604471137     
           7   4.0200187864802888E-004
           8  -1.9657657997693739E-002
           9  0.41528224474494774     
          10  -7.8508303763446349E-002
          11 -0.42096078043102420     
          12 -0.27725350340335631     
          13  -1.2075194233414254E-002
          14  0.13335068856111176     
          15  -2.1986308200920263E-002
          16   2.3711394074948391E-002
          17  0.41544104382145342     
          18  -1.0203248780632307E-002
          19  0.47958244714789316     
          20  0.17384471188128123     
Sym=    11a
Ene=  -0.42143288647740956     
Spin= Alpha
Occup=     1.00000003
           1  0.23697240078412612     
           2  0.50128074496060315     
           3 -0.10524745100591369     
           4  0.13240758609624165     
           5  -6.8768534196821723E-003
           6 -0.20861605449439605     
           7   6.2729866644179802E-002
           8  -9.3083399324392316E-002
           9   2.0668724817761334E-002
          10  0.38199507586992448     
          11 -0.35184607854226618     
          12   6.9556689924965123E-002
          13  -7.3112419671435948E-003
          14 -0.22176116478495408     
          15   6.5974882335282925E-002
          16  -9.7383945756561285E-002
          17   2.0124500892465071E-002
          18  0.41742283552295151     
          19  0.10583016896946411     
          20  0.29934058320915452     
Sym=    12a
Ene=  -0.36135517175946619     
Spin= Alpha
Occup=     0.00000000
           1  -2.1709675482924337E-002
           2 -0.18504714776292377     
           3 -0.13615784209309620     
           4  0.30087657078608665     
           5  0.11517022502166073     
           6  0.20350566814603246     
           7  0.20700315307456651     
           8 -0.44443843095955710     
           9  -2.9014594411555964E-002
          10  -9.7859359504785220E-002
          11  -8.7044370442348501E-002
          12  0.26479092958305284     
          13 -0.25760833848613973     
          14  0.29608901945869265     
          15  0.27178261217518929     
          16 -0.58756169857358453     
          17  -2.8950959779901104E-002
          18 -0.10290116880908061     
          19 -0.14770113570133672     
          20  0.23449691069994855     
Sym=    13a
Ene=  -0.35725111897017031     
Spin= Alpha
Occup=     0.00000000
           1  -3.1679113059760921E-005
           2  -5.8753451635987525E-002
           3 -0.76199925214733477     
           4 -0.38186579634124113     
           5   7.1822864624751357E-005
           6   1.3349480696398280E-002
           7  0.17110725508897906     
           8   8.5600892782731586E-002
           9   6.5183922400764788E-002
          10 -0.32418837993890065     
          11   2.1209761742307955E-002
          12 -0.24125295441514100     
          13  -9.7174417557569116E-005
          14   1.5657448238602444E-002
          15  0.20085935944079988     
          16  0.10039743728324951     
          17  -6.5356433037837267E-002
          18  0.30825859638490388     
          19 -0.21933627211549425     
          20  0.14179872417265926     
Sym=    14a
Ene=  -0.17517249803168175     
Spin= Alpha
Occup=     0.00000000
           1   4.0208267078489584E-006
           2   1.0736713387887172E-002
           3  0.14070346275622483     
           4   7.0421533854887253E-002
           5  -6.1340451213098466E-005
           6  -3.1372249542599678E-002
           7 -0.41179277835275163     
           8 -0.20641206714213836     
           9   6.3520124043782961E-002
          10 -0.50703088741538149     
          11  0.55134230771186032     
          12  0.20322198078399201     
          13   1.5224802352830450E-005
          14  -1.7222918931166616E-002
          15 -0.22661677783749609     
          16 -0.11356349924147101     
          17  -6.3534722773101376E-002
          18  0.58136544467388063     
          19  0.42688766513947296     
          20  0.28688793763046139     
Sym=    15a
Ene=  -0.11672764091218865     
Spin= Alpha
Occup=     0.00000000
           1   3.1961663774477157E-005
           2  -5.5888085897559166E-003
           3  -7.4437216997097919E-002
           4  -3.7884091533370440E-002
           5  -3.3182775487010857E-004
           6  -3.1685843608069794E-002
           7 -0.41422027392120903     
           8 -0.20803827522554399     
           9  -1.6207776999238522E-002
          10 -0.21651358285825190     
          11 -0.41635553169146322     
          12  0.51956422436161920     
          13   2.4151531888790944E-004
          14   4.6249550670473587E-002
          15  0.60202160668875515     
          16  0.30151230455691641     
          17   1.6236580259594530E-002
          18  0.19559573328256685     
          19  0.14161525915757309     
          20 -0.65696629129546924     
Sym=    16a
Ene=   -2.9882956136162906E-002
Spin= Alpha
Occup=     0.00000000
           1   7.4865628560669542E-002
           2   2.4258070885403285E-002
           3  0.20301302706510252     
           4 -0.40863790335282540     
           5 -0.77920792041295417     
           6  0.34496474931223209     
           7  0.21109496248116175     
           8 -0.47304280095465551     
           9   4.7988366088627686E-002
          10  0.30213130369533847     
          11  0.22550152392857151     
          12 -0.29565194563768477     
          13  0.49656601054038862     
          14   6.7111800930222426E-002
          15  0.17831767771747584     
          16 -0.36686451946577442     
          17   4.8033992866780312E-002
          18  0.28986628946102705     
          19   6.5624956415238647E-002
          20 -0.37526548672328047     
Sym=    17a
Ene=    4.6252178047783782E-002
Spin= Alpha
Occup=     0.00000000
           1 -0.16821822629260846     
           2 -0.10664380892834453     
           3 -0.36008193301535235     
           4  0.73460560775447115     
           5   8.3183114762207966E-002
           6  0.74830177955312016     
           7 -0.23724479189060824     
           8  0.35906603484655397     
           9   8.4380885250116805E-002
          10  0.23817774573830391     
          11  0.18937221705031712     
          12 -0.24273397292178550     
          13  -7.6842770262456561E-002
          14 -0.47728261667558020     
          15  0.10068235910822332     
          16 -0.12744769350772123     
          17   8.4271030924835413E-002
          18  0.22804469682452774     
          19   5.3099791012150392E-002
          20 -0.31186647496584741     
Sym=    18a
Ene=   0.13640578150536631     
Spin= Alpha
Occup=     0.00000000
           1   2.0576829673365081E-003
           2   1.1032089072141779E-002
           3  0.16914200373852664     
           4   8.5008485319625321E-002
           5   7.3087098173880885E-004
           6  -3.4734734614378010E-002
           7 -0.43179224481797768     
           8 -0.21662447203342428     
           9 -0.62189838686280985     
          10 -0.36314977631427836     
          11 -0.46488727708891131     
          12 -0.41228038401147293     
          13   8.3285463553445097E-004
          14  -3.8826459048240065E-002
          15 -0.46603199853002486     
          16 -0.23596170578338421     
          17  0.61831493952552319     
          18  0.27665692318039176     
          19 -0.64389291839646767     
          20 -0.14588715208324871     
Sym=    19a
Ene=   0.15335675372505456     
Spin= Alpha
Occup=     0.00000000
           1  0.47350689522324735     
           2 -0.40514611338309736     
           3   8.0287300321471265E-003
           4   4.4105296483003695E-002
           5  0.17465259201212094     
           6 -0.45048773800614450     
           7   5.8457798809817975E-002
           8  -4.3703576657918061E-002
           9 -0.42258202261231492     
          10 -0.29012613422819811     
          11 -0.13110104176768644     
          12 -0.38684570120885248     
          13  0.23264602489667371     
          14 -0.73613093076190539     
          15  0.28777603922429718     
          16 -0.45715078478688315     
          17 -0.42803282560275130     
          18 -0.25054508496887257     
          19  0.42662355309388644     
          20 -0.10925091769951027     
Sym=    20a
Ene=   0.40157094759408329     
Spin= Alpha
Occup=     0.00000000
           1  0.70596373668598744     
           2 -0.82102958048099994     
           3  0.11093550275897603     
           4  -9.5893601286582683E-002
           5 -0.42547523095162815     
           6   1.0494806568422291E-002
           7  0.15496284472420882     
           8 -0.31050306463207772     
           9  0.22533739101321029     
          10  0.26759780577077041     
          11   6.0841659807766409E-002
          12  0.24429363541578583     
          13 -0.84337906579451594     
          14 -0.52529852965880852     
          15 -0.18781604602668106     
          16  0.45537479520338447     
          17  0.22517023240889594     
          18  0.24304018972355781     
          19 -0.26294389262471135     
          20   8.2032656845727303E-002
