5
 energy: -11.030301484006 gnorm: 0.000517105881 xtb: 6.2.2 (9d81278992624c895f80dd42a50cac0aa55982e2)
C         1.12093069537030   -0.29759998525521    0.42302713138029
N         0.45714566724411    0.29122820266459   -0.65035855044257
C        -0.73152146332470   -0.53194629877291   -0.62784378033879
C        -0.22405039515385   -0.36543356620413    0.76380526210142
C        -0.62250450413586    0.90375164756766    0.09136993729965
