      -----------------------------------------------------------      
     |                   =====================                   |     
     |                           x T B                           |     
     |                   =====================                   |     
     |                         S. Grimme                         |     
     |          Mulliken Center for Theoretical Chemistry        |     
     |                    University of Bonn                     |     
      -----------------------------------------------------------      

   * xtb version 6.2.2 (9d81278992624c895f80dd42a50cac0aa55982e2) compiled by '@Darwin' on 04/03/2020

   xtb is free software: you can redistribute it and/or modify it under
   the terms of the GNU Lesser General Public License as published by
   the Free Software Foundation, either version 3 of the License, or
   (at your option) any later version.
   
   xtb is distributed in the hope that it will be useful,
   but WITHOUT ANY WARRANTY; without even the implied warranty of
   MERCHANTABILITY or FITNESS FOR A PARTICULAR PURPOSE.  See the
   GNU Lesser General Public License for more details.
   
   Cite this work as:
   * S. Grimme, C. Bannwarth, P. Shushkov, J. Chem. Theory Comput., 2017,
     13, 1989-2009. DOI: 10.1021/acs.jctc.7b00118
   * C. Bannwarth, S. Ehlert and S. Grimme., J. Chem. Theory Comput., 2019,
     15, 1652-1671. DOI: 10.1021/acs.jctc.8b01176
   * P. Pracht, E. Caldeweyher, S. Ehlert, S. Grimme, ChemRxiv, 2019, preprint.
     DOI: 10.26434/chemrxiv.8326202.v1
   
   for DFT-D4:
   * E. Caldeweyher, C. Bannwarth and S. Grimme, J. Chem. Phys., 2017,
     147, 034112. DOI: 10.1063/1.4993215
   * E. Caldeweyher, S. Ehlert, A. Hansen, H. Neugebauer, S. Spicher,
     C. Bannwarth and S. Grimme, J. Chem. Phys., 2019, 150, 154122.
     DOI: 10.1063/1.5090222
   
   for sTDA-xTB:
   * S. Grimme and C. Bannwarth, J. Chem. Phys., 2016, 145, 054103.
     DOI: 10.1063/1.4959605
   
   in the mass-spec context:
   * V. Asgeirsson, C. Bauer and S. Grimme, Chem. Sci., 2017, 8, 4879.
     DOI: 10.1039/c7sc00601b
   
   for metadynamics refer to:
   * S. Grimme, J. Chem. Theory Comput., 2019, 155, 2847-2862
     DOI: 10.1021/acs.jctc.9b00143
   
   with help from (in alphabetical order)
   C. Bannwarth, F. Bohle, G. Brandenburg, E. Caldeweyher, M. Checinski,
   S. Dohm, S. Ehlert, S. Ehrlich, F. März, H. Neugebauer, J. Pisarek,
   P. Pracht, P. Shushkov, and S. Spicher.
   
 * started run on 2020/05/12 at 11:45:19.905     

           -------------------------------------------------
          |                Calculation Setup                |
           -------------------------------------------------

          program call               : xtb --input H2C1N2_0_S_0.input H2C1N2_0_S_0.xyz --ohess --molden --namespace H2C1N2_0_S_0 output.out
          calculation namespace      : H2C1N2_0_S_0
          coordinate file            : H2C1N2_0_S_0.xyz
          number of atoms            :                     5
          number of electrons        :                    16
          charge                     :                     0
          spin                       :                   0.0
          first test random number   :      0.91540253196785

   ID    Z sym.   atoms
    1    7 N      1, 3
    2    6 C      2
    3    1 H      4, 5

           -------------------------------------------------
          |                 G F N 2 - x T B                 |
           -------------------------------------------------

        Reference                      10.1021/acs.jctc.8b01176
      * Hamiltonian:
        H0-scaling (s, p, d)           1.850000    2.230000    2.230000
        zeta-weighting                 0.500000
      * Dispersion:
        s8                             2.700000
        a1                             0.520000
        a2                             5.000000
        s9                             5.000000
      * Repulsion:
        kExp                           1.500000    1.000000
        rExp                           1.000000
      * Coulomb:
        alpha                          2.000000
        third order                    shell-resolved
        anisotropic                    true
        a3                             3.000000
        a5                             4.000000
        cn-shift                       1.200000
        cn-exp                         4.000000
        max-rad                        5.000000


          ...................................................
          :                      SETUP                      :
          :.................................................:
          :  # basis functions                  14          :
          :  # atomic orbitals                  14          :
          :  # shells                            8          :
          :  # electrons                        16          :
          :  max. iterations                   250          :
          :  Hamiltonian                  GFN2-xTB          :
          :  restarted?                      false          :
          :  GBSA solvation                  false          :
          :  PC potential                    false          :
          :  electronic temp.          300.0000000     K    :
          :  accuracy                    1.0000000          :
          :  -> integral cutoff          0.2500000E+02      :
          :  -> integral neglect         0.1000000E-07      :
          :  -> SCF convergence          0.1000000E-05 Eh   :
          :  -> wf. convergence          0.1000000E-03 e    :
          :  Broyden damping             0.4000000          :
          ...................................................

 iter      E             dE          RMSdq      gap      omega  full diag
   1     -8.5717696 -0.857177E+01  0.604E+00    0.59       0.0  T
   2     -7.8684497  0.703320E+00  0.115E+01    2.19       1.0  T
   3     -8.2450596 -0.376610E+00  0.889E+00    0.97       1.0  T
   4     -7.0945753  0.115048E+01  0.159E+01    1.32       1.0  T
   5     -8.4368379 -0.134226E+01  0.587E+00    0.64       1.0  T
   6     -7.6941000  0.742738E+00  0.130E+01    0.67       1.0  T
   7     -7.6262453  0.678546E-01  0.133E+01    0.70       1.0  T
   8     -8.4556180 -0.829373E+00  0.546E+00    0.72       1.0  T
   9     -8.6036589 -0.148041E+00  0.314E+00    0.51       1.0  T
  10     -8.5255076  0.781513E-01  0.441E+00    0.59       1.0  T
  11     -8.6622606 -0.136753E+00  0.442E-01    0.39       1.0  T
  12     -8.6624537 -0.193105E-03  0.394E-01    0.39       1.0  T
  13     -8.6503892  0.120644E-01  0.140E+00    0.42       1.0  T
  14     -8.6625008 -0.121115E-01  0.231E-01    0.38       1.0  T
  15     -8.6616010  0.899820E-03  0.400E-01    0.38       1.0  T
  16     -8.6625009 -0.899893E-03  0.995E-02    0.37       1.0  T
  17     -8.6623799  0.121016E-03  0.168E-01    0.37       1.0  T
  18     -8.6625485 -0.168606E-03  0.185E-02    0.37       2.4  T
  19     -8.6625466  0.185453E-05  0.231E-02    0.37       1.9  T
  20     -8.6625501 -0.353434E-05  0.669E-03    0.37       6.7  T
  21     -8.6625503 -0.136994E-06  0.853E-04    0.37      52.4  T
  22     -8.6625503 -0.382448E-08  0.678E-05    0.37     659.1  T

   *** convergence criteria satisfied after 22 iterations ***

         #    Occupation            Energy/Eh            Energy/eV
      -------------------------------------------------------------
         1        2.0000           -0.7165595             -19.4986
         2        2.0000           -0.6571832             -17.8829
         3        2.0000           -0.6468544             -17.6018
         4        2.0000           -0.6290794             -17.1181
         5        2.0000           -0.4880879             -13.2815
         6        2.0000           -0.4449835             -12.1086
         7        2.0000           -0.3628257              -9.8730
         8        1.9984           -0.3543840              -9.6433 (HOMO)
         9        0.0016           -0.3408852              -9.2760 (LUMO)
        10                         -0.3279595              -8.9242
        11                         -0.0694411              -1.8896
        12                          0.0413863               1.1262
        13                          0.0723150               1.9678
        14                          0.0883730               2.4048
      -------------------------------------------------------------
                  HL-Gap            0.0134989 Eh            0.3673 eV
             Fermi-level           -0.3476345 Eh           -9.4596 eV

 SCC (total)                   0 d,  0 h,  0 min,  0.004 sec
 SCC setup                      ...        0 min,  0.000 sec (  2.549%)
 Dispersion                     ...        0 min,  0.000 sec (  0.409%)
 integral evaluation            ...        0 min,  0.001 sec ( 21.768%)
 zeroth order Hamiltonian       ...        0 min,  0.000 sec (  0.571%)
 iterations                     ...        0 min,  0.002 sec ( 49.270%)
 molecular gradient             ...        0 min,  0.001 sec ( 22.345%)
 printout                       ...        0 min,  0.000 sec (  2.744%)

         :::::::::::::::::::::::::::::::::::::::::::::::::::::
         ::                     SUMMARY                     ::
         :::::::::::::::::::::::::::::::::::::::::::::::::::::
         :: total energy              -8.615737241248 Eh    ::
         :: gradient norm              0.064212374466 Eh/a0 ::
         :: HOMO-LUMO gap              0.367323230528 eV    ::
         ::.................................................::
         :: SCC energy                -8.662550278835 Eh    ::
         :: -> isotropic ES            0.017190645928 Eh    ::
         :: -> anisotropic ES          0.003940644881 Eh    ::
         :: -> anisotropic XC          0.007732006871 Eh    ::
         :: -> dispersion             -0.001447388522 Eh    ::
         :: repulsion energy           0.046813002106 Eh    ::
         :: add. restraining           0.000000000000 Eh    ::
         :::::::::::::::::::::::::::::::::::::::::::::::::::::

      ----------------------------------------------------------- 
     |                   =====================                   |
     |                        A N C O P T                        |
     |                   =====================                   |
     |               Approximate Normal Coordinate               |
     |                Rational Function Optimizer                |
      ----------------------------------------------------------- 

          ...................................................
          :                      SETUP                      :
          :.................................................:
          :   optimization level            normal          :
          :   max. optcycles                   200          :
          :   ANC micro-cycles                  20          :
          :   degrees of freedom                 9          :
          :.................................................:
          :   RF solver                   davidson          :
          :   write xtbopt.log                true          :
          :   linear?                        false          :
          :   energy convergence         0.5000000E-05 Eh   :
          :   grad. convergence          0.1000000E-02 Eh/α :
          :   maximium RF displ.         1.0000000          :
          :   Hlow (freq-cutoff)         0.1000000E-01      :
          :   Hmax (freq-cutoff)         5.0000000          :
          :   S6 in model hess.         20.0000000          :
          ...................................................

generating ANC from model Hessian ...
Using Lindh-Hessian (1995)
 Shifting diagonal of input Hessian by    0.0000000000000000     
 Lowest  eigenvalues of input Hessian
   -0.000000   -0.000000   -0.000000   -0.000000    0.000000    0.000000
    0.121335    0.128468    0.158773    0.187500    0.195201    0.541230
    1.289236    1.303349    1.427594
 Highest eigenvalues
    0.187500    0.195201    0.541230    1.289236    1.303349    1.427594


........................................................................
.............................. CYCLE    1 ..............................
........................................................................
   1     -8.6625503 -0.866255E+01  0.274E-04    0.37       0.0  T
   2     -8.6625500  0.246808E-06  0.603E-03    0.37       7.4  T
   3     -8.6625503 -0.244626E-06  0.613E-04    0.37      73.0  T
   4     -8.6625503 -0.257744E-08  0.157E-05    0.37    2849.6  T
     SCC iter.                  ...        0 min,  0.001 sec
     gradient                   ...        0 min,  0.001 sec
 * total energy  :    -8.6157372 Eh     change        0.1772733E-09 Eh
   gradient norm :     0.0642125 Eh/α   predicted     0.0000000E+00 (-100.00%)
   displ. norm   :     0.2679386 α      lambda       -0.1319495E-01
   maximum displ.:     0.2426212 α      in ANC's #1, #4, #6, ...

........................................................................
.............................. CYCLE    2 ..............................
........................................................................
   1     -8.6034161 -0.860342E+01  0.490E+00    0.24       0.0  T
   2     -6.8857946  0.171762E+01  0.183E+01    2.59       1.0  T
   3     -8.4803299 -0.159454E+01  0.534E+00    0.46       1.0  T
   4     -7.8905088  0.589821E+00  0.131E+01    0.45       1.0  T
   5     -7.7915740  0.989348E-01  0.139E+01    0.69       1.0  T
   6     -7.7753921  0.161819E-01  0.142E+01    0.81       1.0  T
   7     -7.4248060  0.350586E+00  0.179E+01    2.05       1.0  T
   8     -7.1652455  0.259560E+00  0.213E+01    2.02       1.0  T
   9     -8.3764448 -0.121120E+01  0.730E+00    1.31       1.0  T
  10     -8.3973123 -0.208675E-01  0.731E+00    1.26       1.0  T
  11     -8.5411421 -0.143830E+00  0.557E+00    0.67       1.0  T
  12     -8.5406974  0.444743E-03  0.558E+00    0.67       1.0  T
  13     -8.0062839  0.534413E+00  0.123E+01    0.29       1.0  T
  14     -8.4298466 -0.423563E+00  0.701E+00    1.19       1.0  T
  15     -8.5967141 -0.166868E+00  0.439E+00    0.37       1.0  T
  16     -8.6664535 -0.697394E-01  0.209E+00    0.19       1.0  T
  17     -8.6484865  0.179670E-01  0.292E+00    0.22       1.0  T
  18     -8.1570917  0.491395E+00  0.109E+01    0.20       1.0  T
  19     -8.4760540 -0.318962E+00  0.639E+00    0.98       1.0  T
  20     -8.5808499 -0.104796E+00  0.468E+00    0.39       1.0  T
  21     -8.6797143 -0.988645E-01  0.682E-01    0.15       1.0  T
  22     -8.5739020  0.105812E+00  0.483E+00    0.40       1.0  T
  23     -8.6147970 -0.408950E-01  0.372E+00    0.13       1.0  T
  24     -8.5448770  0.699200E-01  0.536E+00    0.54       1.0  T
  25     -8.6806609 -0.135784E+00  0.594E-01    0.15       1.0  T
  26     -8.6256527  0.550082E-01  0.350E+00    0.24       1.0  T
  27     -8.5904610  0.351916E-01  0.438E+00    0.12       1.0  T
  28     -8.5558078  0.346532E-01  0.510E+00    0.45       1.0  T
  29     -8.6799729 -0.124165E+00  0.556E-01    0.14       1.0  T
  30     -8.6217641  0.582088E-01  0.357E+00    0.23       1.0  T
  31     -8.5972419  0.245222E-01  0.423E+00    0.11       1.0  T
  32     -8.5712315  0.260103E-01  0.476E+00    0.37       1.0  T
  33     -8.6654516 -0.942200E-01  0.181E+00    0.12       1.0  T
  34     -8.6084826  0.569689E-01  0.390E+00    0.25       1.0  T
  35     -8.6144928 -0.601019E-02  0.377E+00    0.11       1.0  T
  36     -8.5890620  0.254308E-01  0.435E+00    0.30       1.0  T
  37     -8.6502452 -0.611832E-01  0.256E+00    0.11       1.0  T
  38     -8.6098931  0.403521E-01  0.384E+00    0.25       1.0  T
  39     -8.6404268 -0.305336E-01  0.294E+00    0.11       1.0  T
  40     -8.6114008  0.290260E-01  0.379E+00    0.24       1.0  T
  41     -8.6534199 -0.420191E-01  0.242E+00    0.11       1.0  T
  42     -8.6235577  0.298622E-01  0.346E+00    0.22       1.0  T
  43     -8.6605550 -0.369973E-01  0.208E+00    0.11       1.0  T
  44     -8.6337912  0.267638E-01  0.314E+00    0.20       1.0  T
  45     -8.6686216 -0.348303E-01  0.162E+00    0.12       1.0  T
  46     -8.6449649  0.236566E-01  0.275E+00    0.18       1.0  T
  47     -8.6748808 -0.299159E-01  0.114E+00    0.12       1.0  T
  48     -8.6556776  0.192032E-01  0.232E+00    0.17       1.0  T
  49     -8.6789267 -0.232491E-01  0.683E-01    0.12       1.0  T
  50     -8.6649716  0.139551E-01  0.186E+00    0.16       1.0  T
  51     -8.6808196 -0.158480E-01  0.289E-01    0.12       1.0  T
  52     -8.6720014  0.881822E-02  0.140E+00    0.15       1.0  T
  53     -8.6812516 -0.925025E-02  0.612E-02    0.13       1.0  T
  54     -8.6765373  0.471428E-02  0.101E+00    0.14       1.0  T
  55     -8.6811103 -0.457299E-02  0.194E-01    0.13       1.0  T
  56     -8.6790422  0.206810E-02  0.693E-01    0.13       1.0  T
  57     -8.6809783 -0.193607E-02  0.255E-01    0.13       1.0  T
  58     -8.6802688  0.709430E-03  0.465E-01    0.13       1.0  T
  59     -8.6810098 -0.740973E-03  0.237E-01    0.13       1.0  T
  60     -8.6808433  0.166564E-03  0.301E-01    0.13       1.0  T
  61     -8.6811630 -0.319729E-03  0.145E-01    0.13       1.0  T
  62     -8.6811465  0.164576E-04  0.155E-01    0.12       1.0  T
  63     -8.6812049 -0.583203E-04  0.101E-01    0.12       1.0  T
  64     -8.6812478 -0.429544E-04  0.375E-02    0.12       1.2  T
  65     -8.6812458  0.195694E-05  0.428E-02    0.12       1.0  T
  66     -8.6812542 -0.834985E-05  0.840E-03    0.12       5.3  T
  67     -8.6812537  0.496824E-06  0.134E-02    0.12       3.3  T
  68     -8.6812545 -0.791675E-06  0.337E-03    0.12      13.3  T
  69     -8.6812545 -0.162491E-07  0.278E-03    0.12      16.1  T
  70     -8.6812545 -0.330459E-07  0.811E-04    0.12      55.1  T
  71     -8.6812545 -0.314387E-08  0.436E-05    0.12    1025.1  T
     SCC iter.                  ...        0 min,  0.012 sec
     gradient                   ...        0 min,  0.001 sec
 * total energy  :    -8.6284916 Eh     change       -0.1275439E-01 Eh
   gradient norm :     0.0553225 Eh/α   predicted    -0.7071116E-02 ( -44.56%)
   displ. norm   :     0.3138476 α      lambda       -0.1521482E-01
   maximum displ.:     0.2959043 α      in ANC's #1, #4, #6, ...

........................................................................
.............................. CYCLE    3 ..............................
........................................................................
   1     -8.7062731 -0.870627E+01  0.417E+00    0.48       0.0  T
   2     -8.5761018  0.130171E+00  0.502E+00    0.91       1.0  T
   3     -7.7264090  0.849693E+00  0.142E+01    1.08       1.0  T
   4     -8.6488842 -0.922475E+00  0.372E+00    0.58       1.0  T
   5     -8.6481866  0.697539E-03  0.362E+00    0.57       1.0  T
   6     -8.7126091 -0.644224E-01  0.831E-01    0.33       1.0  T
   7     -8.7132862 -0.677146E-03  0.828E-01    0.33       1.0  T
   8     -8.7105199  0.276630E-02  0.993E-01    0.29       1.0  T
   9     -8.7134501 -0.293020E-02  0.226E-01    0.27       1.0  T
  10     -8.7136242 -0.174135E-03  0.995E-03    0.27       4.5  T
  11     -8.7136237  0.516162E-06  0.145E-02    0.27       3.1  T
  12     -8.7136229  0.836337E-06  0.190E-02    0.27       2.4  T
  13     -8.7136244 -0.154725E-05  0.198E-03    0.27      22.6  T
  14     -8.7136245 -0.147055E-07  0.100E-03    0.27      44.7  T
  15     -8.7136245 -0.394767E-08  0.389E-05    0.27    1148.9  T
  16     -8.7136245 -0.111555E-11  0.910E-06    0.27    4916.2  T
     SCC iter.                  ...        0 min,  0.001 sec
     gradient                   ...        0 min,  0.001 sec
 * total energy  :    -8.6598160 Eh     change       -0.3132437E-01 Eh
   gradient norm :     0.1523720 Eh/α   predicted    -0.8356749E-02 ( -73.32%)
   displ. norm   :     0.6459722 α      lambda       -0.9602238E-01
   maximum displ.:     0.6040452 α      in ANC's #1, #4, #6, ...

........................................................................
.............................. CYCLE    4 ..............................
........................................................................
   1     -8.7756970 -0.877570E+01  0.595E+00    2.29       0.0  T
   2     -8.6747869  0.100910E+00  0.517E+00    3.45       1.0  T
   3     -8.7223449 -0.475579E-01  0.470E+00    2.12       1.0  T
   4     -8.8092000 -0.868551E-01  0.150E+00    2.50       1.0  T
   5     -8.8172960 -0.809599E-02  0.623E-01    2.38       1.0  T
   6     -8.8184801 -0.118409E-02  0.181E-01    2.33       1.0  T
   7     -8.8185876 -0.107517E-03  0.586E-02    2.31       1.0  T
   8     -8.8186010 -0.134312E-04  0.135E-03    2.31      33.2  T
   9     -8.8186010  0.252989E-08  0.109E-03    2.31      40.9  T
  10     -8.8186010 -0.301476E-08  0.438E-04    2.31     102.1  T
  11     -8.8186010 -0.622423E-09  0.216E-04    2.31     207.4  T
     SCC iter.                  ...        0 min,  0.001 sec
     gradient                   ...        0 min,  0.001 sec
 * total energy  :    -8.7682158 Eh     change       -0.1083997E+00 Eh
   gradient norm :     0.2064467 Eh/α   predicted    -0.6804532E-01 ( -37.23%)
   displ. norm   :     0.6522648 α      lambda       -0.1229024E+00
   maximum displ.:     0.5760695 α      in ANC's #1, #4, #6, ...

........................................................................
.............................. CYCLE    5 ..............................
........................................................................
   1     -8.9159074 -0.891591E+01  0.671E+00    5.18       0.0  T
   2     -8.9406196 -0.247122E-01  0.321E+00    4.99       1.0  T
   3     -8.9418382 -0.121858E-02  0.161E+00    4.83       1.0  T
   4     -8.9452151 -0.337696E-02  0.416E-01    4.76       1.0  T
   5     -8.9454162 -0.201082E-03  0.141E-01    4.73       1.0  T
   6     -8.9454198 -0.364199E-05  0.219E-02    4.72       2.0  T
   7     -8.9454200 -0.112579E-06  0.606E-03    4.72       7.4  T
   8     -8.9454200 -0.265689E-07  0.137E-03    4.72      32.6  T
   9     -8.9454200 -0.121078E-08  0.328E-04    4.72     136.2  T
  10     -8.9454200 -0.776801E-11  0.125E-04    4.72     357.1  T
     SCC iter.                  ...        0 min,  0.001 sec
     gradient                   ...        0 min,  0.001 sec
 * total energy  :    -8.8006910 Eh     change       -0.3247529E-01 Eh
   gradient norm :     0.3444480 Eh/α   predicted    -0.8759563E-01 ( 169.73%)
   displ. norm   :     0.3406712 α      lambda       -0.1099762E+00
   maximum displ.:     0.2602089 α      in ANC's #1, #4, #6, ...

........................................................................
.............................. CYCLE    6 ..............................
........................................................................
   1     -8.8641275 -0.886413E+01  0.402E+00    3.30       0.0  T
   2     -8.8586763  0.545121E-02  0.267E+00    3.17       1.0  T
   3     -8.8670248 -0.834856E-02  0.200E+00    3.48       1.0  T
   4     -8.8801085 -0.130837E-01  0.350E-01    3.44       1.0  T
   5     -8.8802290 -0.120451E-03  0.130E-01    3.48       1.0  T
   6     -8.8802331 -0.415151E-05  0.347E-02    3.49       1.3  T
   7     -8.8802353 -0.220435E-05  0.998E-03    3.49       4.5  T
   8     -8.8802357 -0.321657E-06  0.168E-03    3.49      26.6  T
   9     -8.8802357 -0.694625E-09  0.425E-04    3.49     105.3  T
  10     -8.8802357 -0.608122E-09  0.139E-04    3.49     320.9  T
     SCC iter.                  ...        0 min,  0.001 sec
     gradient                   ...        0 min,  0.001 sec
 * total energy  :    -8.8167258 Eh     change       -0.1603472E-01 Eh
   gradient norm :     0.1386266 Eh/α   predicted    -0.6136983E-01 ( 282.73%)
   displ. norm   :     0.0921771 α      lambda       -0.1192164E-01
   maximum displ.:     0.0661667 α      in ANC's #1, #6, #5, ...

........................................................................
.............................. CYCLE    7 ..............................
........................................................................
   1     -8.9028158 -0.890282E+01  0.934E-01    3.82       0.0  T
   2     -8.9028168 -0.987809E-06  0.579E-01    3.83       1.0  T
   3     -8.9031618 -0.344977E-03  0.406E-01    3.78       1.0  T
   4     -8.9035934 -0.431635E-03  0.733E-02    3.77       1.0  T
   5     -8.9036004 -0.700369E-05  0.285E-02    3.77       1.6  T
   6     -8.9036008 -0.334862E-06  0.493E-03    3.76       9.1  T
   7     -8.9036008 -0.126301E-07  0.119E-03    3.76      37.7  T
   8     -8.9036008 -0.288224E-08  0.270E-04    3.76     165.8  T
   9     -8.9036008 -0.124203E-10  0.370E-05    3.76    1209.5  T
     SCC iter.                  ...        0 min,  0.001 sec
     gradient                   ...        0 min,  0.001 sec
 * total energy  :    -8.8257597 Eh     change       -0.9033886E-02 Eh
   gradient norm :     0.0665624 Eh/α   predicted    -0.6011466E-02 ( -33.46%)
   displ. norm   :     0.0875397 α      lambda       -0.5317155E-02
   maximum displ.:     0.0710998 α      in ANC's #1, #6, #5, ...

........................................................................
.............................. CYCLE    8 ..............................
........................................................................
   1     -8.9218290 -0.892183E+01  0.933E-01    4.12       0.0  T
   2     -8.9221333 -0.304335E-03  0.496E-01    4.11       1.0  T
   3     -8.9221765 -0.431271E-04  0.339E-01    4.07       1.0  T
   4     -8.9224523 -0.275839E-03  0.725E-02    4.06       1.0  T
   5     -8.9224596 -0.727215E-05  0.252E-02    4.05       1.8  T
   6     -8.9224597 -0.183278E-06  0.448E-03    4.05      10.0  T
   7     -8.9224598 -0.108506E-07  0.816E-04    4.05      54.8  T
   8     -8.9224598 -0.719085E-09  0.236E-04    4.05     189.5  T
     SCC iter.                  ...        0 min,  0.001 sec
     gradient                   ...        0 min,  0.001 sec
 * total energy  :    -8.8273610 Eh     change       -0.1601354E-02 Eh
   gradient norm :     0.0334713 Eh/α   predicted    -0.2678950E-02 (  67.29%)
   displ. norm   :     0.0275442 α      lambda       -0.8867251E-03
   maximum displ.:     0.0202812 α      in ANC's #1, #6, #4, ...

........................................................................
.............................. CYCLE    9 ..............................
........................................................................
   1     -8.9160884 -0.891609E+01  0.316E-01    3.93       0.0  T
   2     -8.9161179 -0.295707E-04  0.176E-01    3.93       1.0  T
   3     -8.9161343 -0.163504E-04  0.123E-01    3.94       1.0  T
   4     -8.9161708 -0.365631E-04  0.249E-02    3.95       1.8  T
   5     -8.9161716 -0.763159E-06  0.904E-03    3.95       4.9  T
   6     -8.9161716 -0.300800E-07  0.157E-03    3.95      28.4  T
   7     -8.9161716 -0.174252E-08  0.198E-04    3.95     225.8  T
   8     -8.9161716 -0.398082E-11  0.807E-05    3.95     554.2  T
     SCC iter.                  ...        0 min,  0.001 sec
     gradient                   ...        0 min,  0.001 sec
 * total energy  :    -8.8277387 Eh     change       -0.3777211E-03 Eh
   gradient norm :     0.0043645 Eh/α   predicted    -0.4436989E-03 (  17.47%)
   displ. norm   :     0.0050158 α      lambda       -0.1531489E-04
   maximum displ.:     0.0039832 α      in ANC's #1, #5, #4, ...

........................................................................
.............................. CYCLE   10 ..............................
........................................................................
   1     -8.9167904 -0.891679E+01  0.376E-02    3.96       0.0  T
   2     -8.9167909 -0.476398E-06  0.186E-02    3.96       2.4  T
   3     -8.9167907  0.201118E-06  0.125E-02    3.96       3.6  T
   4     -8.9167911 -0.432337E-06  0.346E-03    3.96      12.9  T
   5     -8.9167911 -0.280611E-07  0.964E-04    3.96      46.4  T
   6     -8.9167911 -0.136648E-09  0.208E-04    3.96     215.1  T
     SCC iter.                  ...        0 min,  0.001 sec
     gradient                   ...        0 min,  0.001 sec
 * total energy  :    -8.8277476 Eh     change       -0.8913409E-05 Eh
   gradient norm :     0.0009722 Eh/α   predicted    -0.7658851E-05 ( -14.07%)
   displ. norm   :     0.0039674 α      lambda       -0.1611383E-05
   maximum displ.:     0.0024287 α      in ANC's #5, #4, #1, ...

........................................................................
.............................. CYCLE   11 ..............................
........................................................................
   1     -8.9168875 -0.891689E+01  0.153E-02    3.96       0.0  T
   2     -8.9168876 -0.426900E-07  0.838E-03    3.96       5.3  T
   3     -8.9168875  0.914900E-07  0.598E-03    3.96       7.5  T
   4     -8.9168876 -0.131023E-06  0.846E-04    3.96      52.9  T
   5     -8.9168876 -0.600924E-10  0.364E-04    3.96     122.9  T
     SCC iter.                  ...        0 min,  0.000 sec
     gradient                   ...        0 min,  0.001 sec
 * total energy  :    -8.8277492 Eh     change       -0.1523291E-05 Eh
   gradient norm :     0.0009922 Eh/α   predicted    -0.8060243E-06 ( -47.09%)
   displ. norm   :     0.0030705 α      lambda       -0.1085916E-05
   maximum displ.:     0.0019194 α      in ANC's #5, #4, #9, ...

   *** GEOMETRY OPTIMIZATION CONVERGED AFTER 11 ITERATIONS ***

------------------------------------------------------------------------
 total energy gain   :        -0.2120119 Eh     -133.0395 kcal/mol
 total RMSD          :         0.7540270 a0        0.3990 Å
 total power (kW/mol):       -50.6033855 (step)********** (real)
------------------------------------------------------------------------

 ANCopt (total)                0 d,  0 h,  0 min,  0.040 sec
 optimizer setup                ...        0 min,  0.000 sec (  0.209%)
 model hessian                  ...        0 min,  0.000 sec (  0.355%)
 ANC generation                 ...        0 min,  0.000 sec (  0.159%)
 coordinate transformation      ...        0 min,  0.000 sec (  0.076%)
 single point calculation       ...        0 min,  0.038 sec ( 96.451%)
 optimization log               ...        0 min,  0.000 sec (  0.864%)
 hessian update                 ...        0 min,  0.000 sec (  0.074%)
 rational function              ...        0 min,  0.000 sec (  0.782%)

================
 final structure:
================
5
 xtb: 6.2.2 (9d81278992624c895f80dd42a50cac0aa55982e2)
N        -0.00741402890874   -0.31554493114072    0.01858362805008
C         0.72842495408236    0.99913102541370   -0.05220495766820
N        -0.54416293074946    1.02532941539313   -0.06573461416901
H        -0.09649219122925   -0.80379817999301    0.90666252226610
H        -0.08035580319491   -0.90511832967310   -0.80730557847896

 Bond Distances (Angstroems)
 ---------------------------
N1-C2=1.5083         N1-N3=1.4468         N1-H4=1.0174         N1-H5=1.0174         C2-N1=1.5083         C2-N3=1.2729         
N3-N1=1.4468         N3-C2=1.2729         H4-N1=1.0174         H5-N1=1.0174         
 N  H  Rav=1.0174 sigma=0.0000  Rmin=1.0174  Rmax=1.0174     2
 N  C  Rav=1.3906 sigma=0.1177  Rmin=1.2729  Rmax=1.5083     2
 N  N  Rav=1.4468 sigma=0.0000  Rmin=1.4468  Rmax=1.4468     1

 selected bond angles (degree)
 --------------------
N3-N1-C2= 50.98                H4-N1-C2=120.13                H4-N1-N3=117.59                H5-N1-C2=120.13                
H5-N1-N3=117.59                H5-N1-H4=115.10                N3-C2-N1= 62.01                C2-N3-N1= 67.01                

 selected dihedral angles (degree)
 ---------------------------------
N3-C2-N1-H4=257.35            N3-C2-N1-H5=102.65            C2-N3-N1-H4=107.79            C2-N3-N1-H5=252.21            
           -------------------------------------------------
          |                Final Singlepoint                |
           -------------------------------------------------

          ...................................................
          :                      SETUP                      :
          :.................................................:
          :  # basis functions                  14          :
          :  # atomic orbitals                  14          :
          :  # shells                            8          :
          :  # electrons                        16          :
          :  max. iterations                   250          :
          :  Hamiltonian                  GFN2-xTB          :
          :  restarted?                      false          :
          :  GBSA solvation                  false          :
          :  PC potential                    false          :
          :  electronic temp.          300.0000000     K    :
          :  accuracy                    1.0000000          :
          :  -> integral cutoff          0.2500000E+02      :
          :  -> integral neglect         0.1000000E-07      :
          :  -> SCF convergence          0.1000000E-05 Eh   :
          :  -> wf. convergence          0.1000000E-03 e    :
          :  Broyden damping             0.4000000          :
          ...................................................

 iter      E             dE          RMSdq      gap      omega  full diag
   1     -8.9168876 -0.891689E+01  0.776E-05    3.96       0.0  T
   2     -8.9168876 -0.141576E-11  0.304E-05    3.96    1472.8  T
   3     -8.9168876  0.575540E-12  0.374E-05    3.96    1196.4  T

   *** convergence criteria satisfied after 3 iterations ***

         #    Occupation            Energy/Eh            Energy/eV
      -------------------------------------------------------------
         1        2.0000           -0.7159888             -19.4830
         2        2.0000           -0.6498617             -17.6836
         3        2.0000           -0.6062266             -16.4963
         4        2.0000           -0.5748292             -15.6419
         5        2.0000           -0.5223812             -14.2147
         6        2.0000           -0.4308604             -11.7243
         7        2.0000           -0.4277612             -11.6400
         8        2.0000           -0.3796550             -10.3309 (HOMO)
         9                         -0.2340246              -6.3681 (LUMO)
        10                         -0.1013559              -2.7580
        11                         -0.1010023              -2.7484
        12                          0.0917580               2.4969
        13                          0.1606169               4.3706
        14                          0.4686396              12.7523
      -------------------------------------------------------------
                  HL-Gap            0.1456304 Eh            3.9628 eV
             Fermi-level           -0.3068398 Eh           -8.3495 eV

 SCC (total)                   0 d,  0 h,  0 min,  0.002 sec
 SCC setup                      ...        0 min,  0.000 sec (  3.876%)
 Dispersion                     ...        0 min,  0.000 sec (  0.881%)
 integral evaluation            ...        0 min,  0.001 sec ( 38.184%)
 zeroth order Hamiltonian       ...        0 min,  0.000 sec (  0.599%)
 iterations                     ...        0 min,  0.000 sec ( 12.955%)
 molecular gradient             ...        0 min,  0.001 sec ( 40.063%)
 printout                       ...        0 min,  0.000 sec (  2.901%)

         :::::::::::::::::::::::::::::::::::::::::::::::::::::
         ::                     SUMMARY                     ::
         :::::::::::::::::::::::::::::::::::::::::::::::::::::
         :: total energy              -8.827749169138 Eh    ::
         :: gradient norm              0.001012025608 Eh/a0 ::
         :: HOMO-LUMO gap              3.962804232869 eV    ::
         ::.................................................::
         :: SCC energy                -8.916887614662 Eh    ::
         :: -> isotropic ES            0.005956920848 Eh    ::
         :: -> anisotropic ES          0.006790298728 Eh    ::
         :: -> anisotropic XC          0.012901398645 Eh    ::
         :: -> dispersion             -0.001444492498 Eh    ::
         :: repulsion energy           0.089138426819 Eh    ::
         :: add. restraining           0.000000000000 Eh    ::
         :::::::::::::::::::::::::::::::::::::::::::::::::::::

           ------------------------------------------------- 
          |                Numerical Hessian                |
           ------------------------------------------------- 
step length          :   0.00500
SCC accuracy         :   0.30000
Hessian scale factor :   1.00000
frozen atoms in %    :   0.00000    0
RMS gradient         :   0.00101
estimated CPU  time      0.00 min
estimated wall time      0.00 min

writing file <hessian>.

 projected vibrational frequencies (cm-1)
eigval :       -0.00    -0.00    -0.00     0.00     0.00     0.00
eigval :      788.12   824.94   854.74  1000.62  1042.08  1470.28
eigval :     1710.32  3300.48  3307.84
           -------------------------------------------------
          |                Property Printout                |
           -------------------------------------------------

    * Orbital Energies and Occupations

         #    Occupation            Energy/Eh            Energy/eV
      -------------------------------------------------------------
         1        2.0000           -0.7159888             -19.4830
         2        2.0000           -0.6498617             -17.6836
         3        2.0000           -0.6062266             -16.4963
         4        2.0000           -0.5748292             -15.6419
         5        2.0000           -0.5223813             -14.2147
         6        2.0000           -0.4308604             -11.7243
         7        2.0000           -0.4277613             -11.6400
         8        2.0000           -0.3796550             -10.3309 (HOMO)
         9                         -0.2340247              -6.3681 (LUMO)
        10                         -0.1013559              -2.7580
        11                         -0.1010023              -2.7484
        12                          0.0917580               2.4969
        13                          0.1606169               4.3706
        14                          0.4686396              12.7523
      -------------------------------------------------------------
                  HL-Gap            0.1456303 Eh            3.9628 eV
             Fermi-level           -0.3068398 Eh           -8.3495 eV

     #   Z        covCN         q      C6AA      α(0)
     1   7 N      3.597     0.003    21.197     6.838
     2   6 C      1.813    -0.127    34.760     9.527
     3   7 N      1.885    -0.206    26.306     7.603
     4   1 H      0.860     0.165     1.305     1.789
     5   1 H      0.860     0.165     1.305     1.789

 Mol. C6AA /au·bohr⁶  :        319.996287
 Mol. C8AA /au·bohr⁸  :       7267.342678
 Mol. α(0) /au        :         27.546653


Wiberg/Mayer (AO) data.
largest (>0.10) Wiberg bond orders for each atom
          total WBO             WBO to atom ...
     1  N   3.591        H    5 0.949    H    4 0.949    N    3 0.907    C    2 0.786
     2  C   2.698        N    3 1.893    N    1 0.786
     3  N   2.828        C    2 1.893    N    1 0.907
     4  H   0.973        N    1 0.949
     5  H   0.973        N    1 0.949

MOs/occ written to file <molden.input>


molecular dipole:
                 x           y           z       tot (Debye)
 q only:       -0.019      -1.173       0.069
   full:       -0.257      -1.728       0.100       4.447
molecular quadrupole (traceless):
                xx          xy          yy          xz          yz          zz
 q only:       -0.700       0.252      -0.569      -0.033       0.111       1.269
  q+dip:       -1.692      -0.196      -1.796      -0.037       0.312       3.489
   full:       -2.852      -0.225      -1.139      -0.051       0.302       3.991

           -------------------------------------------------
          |                Geometry Summary                 |
           -------------------------------------------------

      molecular mass/u    :       42.0400238
   center of mass at/Å    :        0.0200998       0.4809594      -0.0282431
  moments of inertia/u·Å² :        0.1195491E+02   0.2146306E+02   0.3044635E+02
rotational constants/cm⁻¹ :        0.1410101E+01   0.7854253E+00   0.5536832E+00

 * 3 selected distances

     #   Z        #   Z                                     value/Å
     2   6 C      3   7 N                                 1.2729294 (max)
     1   7 N      4   1 H                                 1.0173545
     1   7 N      5   1 H                                 1.0173545 (min)

 * 2 distinct bonds (by element types)

   Z      Z             #   av. dist./Å        max./Å        min./Å
   1 H    7 N           2     1.0173545     1.0173545     1.0173545
   6 C    7 N           1     1.2729294     1.2729294     1.2729294
Molecule has the following symmetry elements: (sigma) 
It seems to be the Cs point group

           -------------------------------------------------
          |               Frequency Printout                |
           -------------------------------------------------
 projected vibrational frequencies (cm-1)
eigval :       -0.00    -0.00    -0.00     0.00     0.00     0.00
eigval :      788.12   824.94   854.74  1000.62  1042.08  1470.28
eigval :     1710.32  3300.48  3307.84
 reduced masses (amu)
   1: 12.55   2: 12.80   3: 11.86   4: 11.50   5: 11.68   6: 11.94   7:  5.10   8:  2.61
   9: 11.25  10: 13.27  11:  3.40  12:  1.78  13: 12.83  14:  1.38  15:  2.18
 IR intensities (amu)
   1:  0.19   2:  0.21   3:  0.12   4:  0.21   5:  0.41   6:  0.34   7:  0.53   8:  0.02
   9:  0.54  10:  0.53  11:  0.11  12:  0.25  13:  0.51  14:  0.08  15:  0.05
 Raman intensities (amu)
   1:  0.00   2:  0.00   3:  0.00   4:  0.00   5:  0.00   6:  0.00   7:  0.00   8:  0.00
   9:  0.00  10:  0.00  11:  0.00  12:  0.00  13:  0.00  14:  0.00  15:  0.00
 output can be read by thermo (or use thermo option).
 writing <g98.out> molden fake output.
 recommended (thermochemical) frequency scaling factor: 1.0
           -------------------------------------------------
          |             Thermodynamic Functions             |
           -------------------------------------------------

cs  symmetry found (for desy threshold:  0.10E+00) used in thermo

          ...................................................
          :                      SETUP                      :
          :.................................................:
          :  # frequencies                           9      :
          :  # imaginary freq.                       0      :
          :  linear?                             false      :
          :  only rotor calc.                    false      :
          :  symmetry                               cs      :
          :  rotational number                       1      :
          :  scaling factor                  1.0000000      :
          :  rotor cutoff                   50.0000000 cm⁻¹ :
          :  imag. cutoff                  -20.0000000 cm⁻¹ :
          :.................................................:

    mode    ω/cm⁻¹     T·S(HO)/kcal·mol⁻¹    T·S(FR)/kcal·mol⁻¹   T·S(vib)
   ------------------------------------------------------------------------
   ------------------------------------------------------------------------

   temp. (K)  partition function   enthalpy   heat capacity  entropy
                                   cal/mol     cal/K/mol   cal/K/mol   J/K/mol
 298.15  VIB   1.08                  183.894      2.674      0.763
         ROT  0.675E+04              888.752      2.981     20.504
         INT  0.727E+04             1072.646      5.655     21.266
         TR   0.264E+27             1481.254      4.968     37.118
         TOT                        2553.9000    10.6233    58.3845   244.2809

   temp. (K)  partition function   enthalpy   heat capacity  entropy
                                   cal/mol     cal/K/mol   cal/K/mol   J/K/mol
 120.00  VIB   1.00                    0.412      0.034      0.004
         ROT  0.172E+04              357.707      2.981     17.791
         INT  0.172E+04              358.119      3.015     17.795
         TR   0.673E+26              596.178      4.968     32.599
         TOT                         954.2971     7.9832    50.3934   210.8460

   temp. (K)  partition function   enthalpy   heat capacity  entropy
                                   cal/mol     cal/K/mol   cal/K/mol   J/K/mol
 100.00  VIB   1.00                    0.057      0.007      0.001
         ROT  0.131E+04              298.089      2.981     17.247
         INT  0.131E+04              298.146      2.988     17.248
         TR   0.512E+26              496.815      4.968     31.693
         TOT                         794.9610     7.9558    48.9414   204.7708

   temp. (K)  partition function   enthalpy   heat capacity  entropy
                                   cal/mol     cal/K/mol   cal/K/mol   J/K/mol
  80.00  VIB   1.00                    0.003      0.001      0.000
         ROT   938.                  238.471      2.981     16.582
         INT   938.                  238.474      2.981     16.582
         TR   0.367E+26              397.452      4.968     30.585
         TOT                         635.9262     7.9496    47.1676   197.3491

   temp. (K)  partition function   enthalpy   heat capacity  entropy
                                   cal/mol     cal/K/mol   cal/K/mol   J/K/mol
  60.00  VIB   1.00                    0.000      0.000     -0.000
         ROT   610.                  178.853      2.981     15.725
         INT   610.                  178.853      2.981     15.725
         TR   0.238E+26              298.089      4.968     29.157
         TOT                         476.9424     7.9490    44.8814   187.7838

   temp. (K)  partition function   enthalpy   heat capacity  entropy
                                   cal/mol     cal/K/mol   cal/K/mol   J/K/mol
  40.00  VIB   1.00                    0.000      0.000     -0.000
         ROT   332.                  119.236      2.981     14.516
         INT   332.                  119.236      2.981     14.516
         TR   0.130E+26              198.726      4.968     27.143
         TOT                         317.9616     7.9490    41.6593   174.3026

   temp. (K)  partition function   enthalpy   heat capacity  entropy
                                   cal/mol     cal/K/mol   cal/K/mol   J/K/mol
  20.00  VIB   1.00                    0.000      0.000     -0.000
         ROT   117.                   59.618      2.981     12.450
         INT   117.                   59.618      2.981     12.450
         TR   0.458E+25               99.363      4.968     23.701
         TOT                         158.9808     7.9490    36.1511   151.2562

   temp. (K)  partition function   enthalpy   heat capacity  entropy
                                   cal/mol     cal/K/mol   cal/K/mol   J/K/mol
  10.00  VIB   1.00                    0.000      0.000     -0.000
         ROT   41.5                   29.809      2.981     10.384
         INT   41.5                   29.809      2.981     10.383
         TR   0.162E+25               49.681      4.968     20.259
         TOT                          79.4904     7.9490    30.6429   128.2099

       T/K    H(0)-H(T)+PV         H(T)/Eh          T*S/Eh         G(T)/Eh
   ------------------------------------------------------------------------
    298.15    0.406990E-02    0.366464E-01    0.277404E-01    0.890601E-02
    120.00    0.152077E-02    0.340973E-01    0.963684E-02    0.244604E-01
    100.00    0.126685E-02    0.338433E-01    0.779931E-02    0.260440E-01
     80.00    0.101341E-02    0.335899E-01    0.601330E-02    0.275766E-01
     60.00    0.760056E-03    0.333365E-01    0.429138E-02    0.290452E-01
     40.00    0.506704E-03    0.330832E-01    0.265553E-02    0.304277E-01
     20.00    0.253352E-03    0.328298E-01    0.115221E-02    0.316776E-01
     10.00    0.126676E-03    0.327032E-01    0.488326E-03    0.322148E-01 (used)
   ------------------------------------------------------------------------

         :::::::::::::::::::::::::::::::::::::::::::::::::::::
         ::                  THERMODYNAMIC                  ::
         :::::::::::::::::::::::::::::::::::::::::::::::::::::
         :: total free energy          -8.795534332481 Eh   ::
         ::.................................................::
         :: total energy               -8.827749169179 Eh   ::
         :: zero point energy           0.032576486249 Eh   ::
         :: G(RRHO) w/o ZPVE           -0.000361649551 Eh   ::
         :: G(RRHO) contrib.            0.032214836698 Eh   ::
         :::::::::::::::::::::::::::::::::::::::::::::::::::::

optimized geometry written to: xtbopt.xyz


           -------------------------------------------------
          | TOTAL ENERGY               -8.827749169179 Eh   |
          | TOTAL ENTHALPY             -8.795046006915 Eh   |
          | TOTAL FREE ENERGY          -8.795534332481 Eh   |
          | GRADIENT NORM               0.001012067490 Eh/α |
          | HOMO-LUMO GAP               3.962803092131 eV   |
           -------------------------------------------------

------------------------------------------------------------------------
 * finished run on 2020/05/12 at 11:45:20.031     
------------------------------------------------------------------------
 total:
 * wall-time:     0 d,  0 h,  0 min,  0.126 sec
 *  cpu-time:     0 d,  0 h,  0 min,  0.126 sec
 * ratio c/w:     1.005 speedup
 SCF:
 * wall-time:     0 d,  0 h,  0 min,  0.004 sec
 *  cpu-time:     0 d,  0 h,  0 min,  0.004 sec
 * ratio c/w:     0.998 speedup
 ANC optimizer:
 * wall-time:     0 d,  0 h,  0 min,  0.043 sec
 *  cpu-time:     0 d,  0 h,  0 min,  0.043 sec
 * ratio c/w:     1.021 speedup
 numerical hessian:
 * wall-time:     0 d,  0 h,  0 min,  0.062 sec
 *  cpu-time:     0 d,  0 h,  0 min,  0.061 sec
 * ratio c/w:     0.996 speedup

