5
 energy: -8.615737241071 gnorm: 0.064212482654 xtb: 6.2.2 (9d81278992624c895f80dd42a50cac0aa55982e2)
N        -0.00993600000000   -0.10023500000000    0.00583200000000
C         1.21156500000000    0.68228400000000   -0.02892600000000
N        -1.09061100000000    0.78758000000000   -0.05682500000000
H        -0.06362500000000   -0.63385400000000    0.90203500000000
H        -0.04739300000000   -0.73577600000000   -0.82211500000000
5
 energy: -8.628491630806 gnorm: 0.055322930085 xtb: 6.2.2 (9d81278992624c895f80dd42a50cac0aa55982e2)
N        -0.01508188471191   -0.12929316491711    0.00750129949785
C         1.12746032111818    0.72334869396250   -0.03214537064886
N        -1.00083689078289    0.82285420179757   -0.05806497026474
H        -0.06384882386154   -0.65773292105640    0.89939439088563
H        -0.04769272176184   -0.75917780978656   -0.81668434946988
5
 energy: -8.659816005784 gnorm: 0.152373937890 xtb: 6.2.2 (9d81278992624c895f80dd42a50cac0aa55982e2)
N        -0.02035100335333   -0.16747078050953    0.00970852251723
C         1.03736617663433    0.78044583246928   -0.03636886361222
N        -0.90412634996293    0.87546559008696   -0.06026452380913
H        -0.06453579959380   -0.69341479260729    0.90291609575320
H        -0.04835302372428   -0.79502684943942   -0.81599023084907
5
 energy: -8.768215754668 gnorm: 0.206468129811 xtb: 6.2.2 (9d81278992624c895f80dd42a50cac0aa55982e2)
N        -0.02348132200216   -0.26537389676111    0.01546652514831
C         0.85824423309335    0.90429075482633   -0.04537628087146
N        -0.71141662891577    0.98697292517948   -0.06504187517991
H        -0.06992625995226   -0.76112392136127    0.92410691916099
H        -0.05342002222316   -0.86476686188344   -0.82915428825793
5
 energy: -8.800691047578 gnorm: 0.344535537680 xtb: 6.2.2 (9d81278992624c895f80dd42a50cac0aa55982e2)
N        -0.02137909760681   -0.35154853778756    0.02058047848056
C         0.65398222312740    1.00692223477537   -0.05336635846648
N        -0.49008915625160    1.06256977414465   -0.06742699064449
H        -0.07960875689571   -0.80653128431398    0.93721690050287
H        -0.06290521237327   -0.91141318681847   -0.83700302987245
5
 energy: -8.816725771124 gnorm: 0.138636861019 xtb: 6.2.2 (9d81278992624c895f80dd42a50cac0aa55982e2)
N        -0.01795886576067   -0.30752046118793    0.01800998644339
C         0.77357721310483    0.97561425251515   -0.05038965703898
N        -0.60490402764784    1.02961863988202   -0.06656005098498
H        -0.08352788782378   -0.79755265222638    0.91734833327475
H        -0.06718643187254   -0.90016077898286   -0.81840761169418
5
 energy: -8.825759657403 gnorm: 0.066564176605 xtb: 6.2.2 (9d81278992624c895f80dd42a50cac0aa55982e2)
N        -0.01393066249020   -0.31245399483575    0.01833955545417
C         0.74529020211245    0.98561674378757   -0.05124727213772
N        -0.56958110962800    1.02648475648295   -0.06604223233962
H        -0.08898813257356   -0.79897114379870    0.90972498114056
H        -0.07279029742069   -0.90067736163606   -0.81077403211740
5
 energy: -8.827361011259 gnorm: 0.033477707209 xtb: 6.2.2 (9d81278992624c895f80dd42a50cac0aa55982e2)
N        -0.00975838005364   -0.31820981840931    0.01871908968940
C         0.71917679779317    0.99893110793487   -0.05228020250807
N        -0.53611346637196    1.02705567701575   -0.06576088391276
H        -0.09472570988184   -0.80319720530525    0.90718186003669
H        -0.07857924148573   -0.90458076123606   -0.80785886330527
5
 energy: -8.827738732363 gnorm: 0.004366174637 xtb: 6.2.2 (9d81278992624c895f80dd42a50cac0aa55982e2)
N        -0.00940442169319   -0.31563590578845    0.01857026646740
C         0.72914195180421    0.99696782252634   -0.05207032639812
N        -0.54611488208954    1.02563112054549   -0.06577083111139
H        -0.09488584844705   -0.80278215707140    0.90729305194466
H        -0.07873679957444   -0.90418188021199   -0.80802116090255
5
 energy: -8.827747645772 gnorm: 0.000986035897 xtb: 6.2.2 (9d81278992624c895f80dd42a50cac0aa55982e2)
N        -0.00855759960903   -0.31568666239029    0.01858123972655
C         0.72841286904166    0.99820852057132   -0.05215053564385
N        -0.54464489584882    1.02554130915321   -0.06575168023284
H        -0.09567665614309   -0.80335142206217    0.90699329558494
H        -0.07953371744072   -0.90471274527206   -0.80767131943479
5
 energy: -8.827749169062 gnorm: 0.001012730739 xtb: 6.2.2 (9d81278992624c895f80dd42a50cac0aa55982e2)
N        -0.00741402890874   -0.31554493114072    0.01858362805008
C         0.72842495408236    0.99913102541370   -0.05220495766820
N        -0.54416293074946    1.02532941539313   -0.06573461416901
H        -0.09649219122925   -0.80379817999301    0.90666252226610
H        -0.08035580319491   -0.90511832967310   -0.80730557847896
