      -----------------------------------------------------------      
     |                   =====================                   |     
     |                           x T B                           |     
     |                   =====================                   |     
     |                         S. Grimme                         |     
     |          Mulliken Center for Theoretical Chemistry        |     
     |                    University of Bonn                     |     
      -----------------------------------------------------------      

   * xtb version 6.2.2 (9d81278992624c895f80dd42a50cac0aa55982e2) compiled by '@Darwin' on 04/03/2020

   xtb is free software: you can redistribute it and/or modify it under
   the terms of the GNU Lesser General Public License as published by
   the Free Software Foundation, either version 3 of the License, or
   (at your option) any later version.
   
   xtb is distributed in the hope that it will be useful,
   but WITHOUT ANY WARRANTY; without even the implied warranty of
   MERCHANTABILITY or FITNESS FOR A PARTICULAR PURPOSE.  See the
   GNU Lesser General Public License for more details.
   
   Cite this work as:
   * S. Grimme, C. Bannwarth, P. Shushkov, J. Chem. Theory Comput., 2017,
     13, 1989-2009. DOI: 10.1021/acs.jctc.7b00118
   * C. Bannwarth, S. Ehlert and S. Grimme., J. Chem. Theory Comput., 2019,
     15, 1652-1671. DOI: 10.1021/acs.jctc.8b01176
   * P. Pracht, E. Caldeweyher, S. Ehlert, S. Grimme, ChemRxiv, 2019, preprint.
     DOI: 10.26434/chemrxiv.8326202.v1
   
   for DFT-D4:
   * E. Caldeweyher, C. Bannwarth and S. Grimme, J. Chem. Phys., 2017,
     147, 034112. DOI: 10.1063/1.4993215
   * E. Caldeweyher, S. Ehlert, A. Hansen, H. Neugebauer, S. Spicher,
     C. Bannwarth and S. Grimme, J. Chem. Phys., 2019, 150, 154122.
     DOI: 10.1063/1.5090222
   
   for sTDA-xTB:
   * S. Grimme and C. Bannwarth, J. Chem. Phys., 2016, 145, 054103.
     DOI: 10.1063/1.4959605
   
   in the mass-spec context:
   * V. Asgeirsson, C. Bauer and S. Grimme, Chem. Sci., 2017, 8, 4879.
     DOI: 10.1039/c7sc00601b
   
   for metadynamics refer to:
   * S. Grimme, J. Chem. Theory Comput., 2019, 155, 2847-2862
     DOI: 10.1021/acs.jctc.9b00143
   
   with help from (in alphabetical order)
   C. Bannwarth, F. Bohle, G. Brandenburg, E. Caldeweyher, M. Checinski,
   S. Dohm, S. Ehlert, S. Ehrlich, F. März, H. Neugebauer, J. Pisarek,
   P. Pracht, P. Shushkov, and S. Spicher.
   
 * started run on 2020/05/12 at 11:44:07.296     

           -------------------------------------------------
          |                Calculation Setup                |
           -------------------------------------------------

          program call               : xtb --input C4N1_21_S_3.input C4N1_21_S_3.xyz --ohess --molden --namespace C4N1_21_S_3 output.out
          calculation namespace      : C4N1_21_S_3
          coordinate file            : C4N1_21_S_3.xyz
          number of atoms            :                     5
          number of electrons        :                    21
          charge                     :                     0
          spin                       :                   1.5
          first test random number   :      0.08454864074724

   ID    Z sym.   atoms
    1    6 C      1, 2, 4, 5
    2    7 N      3

           -------------------------------------------------
          |                 G F N 2 - x T B                 |
           -------------------------------------------------

        Reference                      10.1021/acs.jctc.8b01176
      * Hamiltonian:
        H0-scaling (s, p, d)           1.850000    2.230000    2.230000
        zeta-weighting                 0.500000
      * Dispersion:
        s8                             2.700000
        a1                             0.520000
        a2                             5.000000
        s9                             5.000000
      * Repulsion:
        kExp                           1.500000    1.000000
        rExp                           1.000000
      * Coulomb:
        alpha                          2.000000
        third order                    shell-resolved
        anisotropic                    true
        a3                             3.000000
        a5                             4.000000
        cn-shift                       1.200000
        cn-exp                         4.000000
        max-rad                        5.000000


          ...................................................
          :                      SETUP                      :
          :.................................................:
          :  # basis functions                  20          :
          :  # atomic orbitals                  20          :
          :  # shells                           10          :
          :  # electrons                        21          :
          :  max. iterations                   250          :
          :  Hamiltonian                  GFN2-xTB          :
          :  restarted?                      false          :
          :  GBSA solvation                  false          :
          :  PC potential                    false          :
          :  electronic temp.          300.0000000     K    :
          :  accuracy                    1.0000000          :
          :  -> integral cutoff          0.2500000E+02      :
          :  -> integral neglect         0.1000000E-07      :
          :  -> SCF convergence          0.1000000E-05 Eh   :
          :  -> wf. convergence          0.1000000E-03 e    :
          :  Broyden damping             0.4000000          :
          ...................................................

 iter      E             dE          RMSdq      gap      omega  full diag
   1    -10.6573840 -0.106574E+02  0.112E+01    0.98       0.0  T
   2     -7.5029708  0.315441E+01  0.166E+01    0.17       1.0  T
   3     -9.5426175 -0.203965E+01  0.108E+01    0.17       1.0  T
   4    -10.8069565 -0.126434E+01  0.587E+00    0.75       1.0  T
   5    -10.8693986 -0.624421E-01  0.536E+00    0.84       1.0  T
   6    -10.8639481  0.545052E-02  0.428E+00    0.84       1.0  T
   7    -10.9444671 -0.805190E-01  0.250E+00    0.59       1.0  T
   8    -10.9447767 -0.309617E-03  0.136E+00    0.56       1.0  T
   9    -10.9304137  0.143631E-01  0.155E+00    0.55       1.0  T
  10    -10.9202585  0.101552E-01  0.191E+00    0.55       1.0  T
  11    -10.9430421 -0.227836E-01  0.978E-01    0.55       1.0  T
  12    -10.9486555 -0.561342E-02  0.663E-01    0.57       1.0  T
  13    -10.9472354  0.142009E-02  0.508E-01    0.56       1.0  T
  14    -10.9481857 -0.950260E-03  0.368E-01    0.57       1.0  T
  15    -10.9491076 -0.921968E-03  0.144E-01    0.58       1.0  T
  16    -10.9492117 -0.104095E-03  0.334E-02    0.58       1.3  T
  17    -10.9492165 -0.482695E-05  0.719E-03    0.58       6.2  T
  18    -10.9492168 -0.292903E-06  0.538E-03    0.58       8.3  T
  19    -10.9492169 -0.627828E-07  0.163E-03    0.58      27.4  T
  20    -10.9492169 -0.238149E-08  0.145E-03    0.58      30.9  T
  21    -10.9492169 -0.474845E-08  0.359E-04    0.58     124.5  T
  22    -10.9492169  0.208876E-09  0.279E-04    0.58     160.3  T

   *** convergence criteria satisfied after 22 iterations ***

         #    Occupation            Energy/Eh            Energy/eV
      -------------------------------------------------------------
         1        2.0000           -0.7270894             -19.7851
       ...           ...                  ...                  ...
         6        2.0000           -0.5347803             -14.5521
         7        2.0000           -0.5176859             -14.0869
         8        2.0000           -0.5169266             -14.0663
         9        1.9513           -0.4593418             -12.4993
        10        1.0487           -0.4536963             -12.3457
        11        1.0000           -0.4434804             -12.0677
        12        1.0000           -0.3955888             -10.7645 (HOMO)
        13        0.0000           -0.3742955             -10.1851 (LUMO)
        14                         -0.3555602              -9.6753
        15                         -0.3342448              -9.0953
        16                         -0.1317027              -3.5838
        17                          0.0149494               0.4068
       ...                                ...                  ...
        20                          0.1315014               3.5783
      -------------------------------------------------------------
                  HL-Gap            0.0212933 Eh            0.5794 eV
             Fermi-level           -0.4207306 Eh          -11.4487 eV

 SCC (total)                   0 d,  0 h,  0 min,  0.005 sec
 SCC setup                      ...        0 min,  0.000 sec (  1.460%)
 Dispersion                     ...        0 min,  0.000 sec (  0.342%)
 integral evaluation            ...        0 min,  0.001 sec ( 24.150%)
 zeroth order Hamiltonian       ...        0 min,  0.000 sec (  0.366%)
 iterations                     ...        0 min,  0.002 sec ( 45.186%)
 molecular gradient             ...        0 min,  0.001 sec ( 26.877%)
 printout                       ...        0 min,  0.000 sec (  1.474%)

         :::::::::::::::::::::::::::::::::::::::::::::::::::::
         ::                     SUMMARY                     ::
         :::::::::::::::::::::::::::::::::::::::::::::::::::::
         :: total energy             -10.882026241734 Eh    ::
         :: gradient norm              0.341643313334 Eh/a0 ::
         :: HOMO-LUMO gap              0.579420771441 eV    ::
         ::.................................................::
         :: SCC energy               -10.949216902760 Eh    ::
         :: -> isotropic ES           -0.020502802037 Eh    ::
         :: -> anisotropic ES          0.000397918846 Eh    ::
         :: -> anisotropic XC          0.007759432612 Eh    ::
         :: -> dispersion             -0.002870853665 Eh    ::
         :: repulsion energy           0.067190652140 Eh    ::
         :: add. restraining           0.000000000000 Eh    ::
         :::::::::::::::::::::::::::::::::::::::::::::::::::::

      ----------------------------------------------------------- 
     |                   =====================                   |
     |                        A N C O P T                        |
     |                   =====================                   |
     |               Approximate Normal Coordinate               |
     |                Rational Function Optimizer                |
      ----------------------------------------------------------- 

          ...................................................
          :                      SETUP                      :
          :.................................................:
          :   optimization level            normal          :
          :   max. optcycles                   200          :
          :   ANC micro-cycles                  20          :
          :   degrees of freedom                 9          :
          :.................................................:
          :   RF solver                   davidson          :
          :   write xtbopt.log                true          :
          :   linear?                        false          :
          :   energy convergence         0.5000000E-05 Eh   :
          :   grad. convergence          0.1000000E-02 Eh/α :
          :   maximium RF displ.         1.0000000          :
          :   Hlow (freq-cutoff)         0.1000000E-01      :
          :   Hmax (freq-cutoff)         5.0000000          :
          :   S6 in model hess.         20.0000000          :
          ...................................................

generating ANC from model Hessian ...
Using Lindh-Hessian (1995)
 Shifting diagonal of input Hessian by    0.0000000000000000     
 Lowest  eigenvalues of input Hessian
   -0.000000   -0.000000   -0.000000    0.000000    0.000000    0.000000
    0.012789    0.065828    0.071438    0.106947    0.684055    0.696166
    0.925626    1.084277    1.336616
 Highest eigenvalues
    0.106947    0.684055    0.696166    0.925626    1.084277    1.336616


........................................................................
.............................. CYCLE    1 ..............................
........................................................................
   1    -10.9492169 -0.109492E+02  0.494E-05    0.58       0.0  T
   2    -10.9492169  0.643642E-09  0.252E-04    0.58     177.3  T
   3    -10.9492169 -0.643011E-09  0.405E-05    0.58    1103.8  T
     SCC iter.                  ...        0 min,  0.001 sec
     gradient                   ...        0 min,  0.001 sec
 * total energy  :   -10.8820262 Eh     change       -0.6975966E-09 Eh
   gradient norm :     0.3416412 Eh/α   predicted     0.0000000E+00 (-100.00%)
   displ. norm   :     0.3996241 α      lambda       -0.1184466E+00
   maximum displ.:     0.2929398 α      in ANC's #7, #4, #9, ...

........................................................................
.............................. CYCLE    2 ..............................
........................................................................
   1    -11.0837044 -0.110837E+02  0.280E+00    1.68       0.0  T
   2    -10.8410864  0.242618E+00  0.466E+00    1.98       1.0  T
   3    -11.0700955 -0.229009E+00  0.200E+00    1.51       1.0  T
   4    -11.1017401 -0.316446E-01  0.920E-01    1.67       1.0  T
   5    -11.1020214 -0.281319E-03  0.538E-01    1.69       1.0  T
   6    -11.1019739  0.474824E-04  0.211E-01    1.64       1.0  T
   7    -11.1021261 -0.152256E-03  0.115E-01    1.66       1.0  T
   8    -11.1021730 -0.468282E-04  0.482E-02    1.66       1.0  T
   9    -11.1021772 -0.426036E-05  0.194E-02    1.67       2.3  T
  10    -11.1021753  0.191403E-05  0.191E-02    1.67       2.3  T
  11    -11.1021779 -0.256788E-05  0.538E-03    1.67       8.3  T
  12    -11.1021781 -0.212104E-06  0.107E-03    1.67      41.9  T
  13    -11.1021781 -0.497873E-08  0.474E-04    1.67      94.4  T
  14    -11.1021781 -0.118278E-08  0.386E-05    1.67    1159.9  T
     SCC iter.                  ...        0 min,  0.001 sec
     gradient                   ...        0 min,  0.002 sec
 * total energy  :   -10.9826153 Eh     change       -0.1005891E+00 Eh
   gradient norm :     0.2179252 Eh/α   predicted    -0.6868124E-01 ( -31.72%)
   displ. norm   :     0.4975489 α      lambda       -0.1048481E+00
   maximum displ.:     0.4481986 α      in ANC's #7, #4, #3, ...

........................................................................
.............................. CYCLE    3 ..............................
........................................................................
   1    -11.2841379 -0.112841E+02  0.374E+00    3.76       0.0  T
   2    -11.2847218 -0.583898E-03  0.268E+00    3.62       1.0  T
   3    -11.2949400 -0.102182E-01  0.154E+00    3.75       1.0  T
   4    -11.3004073 -0.546731E-02  0.574E-01    3.69       1.0  T
   5    -11.3020036 -0.159632E-02  0.108E-01    3.66       1.0  T
   6    -11.3020128 -0.914472E-05  0.625E-02    3.69       1.0  T
   7    -11.3020218 -0.903053E-05  0.927E-03    3.68       4.8  T
   8    -11.3020221 -0.242891E-06  0.454E-03    3.68       9.8  T
   9    -11.3020220  0.219699E-08  0.282E-03    3.68      15.9  T
  10    -11.3020221 -0.517838E-07  0.235E-04    3.68     190.5  T
  11    -11.3020221 -0.303686E-10  0.109E-04    3.68     409.5  T
     SCC iter.                  ...        0 min,  0.001 sec
     gradient                   ...        0 min,  0.001 sec
 * total energy  :   -11.0018901 Eh     change       -0.1927477E-01 Eh
   gradient norm :     0.3706906 Eh/α   predicted    -0.6540188E-01 ( 239.31%)
   displ. norm   :     0.3969698 α      lambda       -0.8808281E-01
   maximum displ.:     0.3001155 α      in ANC's #3, #4, #5, ...

........................................................................
.............................. CYCLE    4 ..............................
........................................................................
   1    -11.2093392 -0.112093E+02  0.245E+00    2.47       0.0  T
   2    -11.2058528  0.348640E-02  0.177E+00    2.51       1.0  T
   3    -11.2061021 -0.249277E-03  0.138E+00    2.69       1.0  T
   4    -11.2146691 -0.856697E-02  0.720E-01    2.47       1.0  T
   5    -11.2178102 -0.314114E-02  0.833E-02    2.58       1.0  T
   6    -11.2178086  0.161286E-05  0.542E-02    2.58       1.0  T
   7    -11.2178222 -0.135909E-04  0.121E-02    2.58       3.7  T
   8    -11.2178226 -0.462442E-06  0.472E-03    2.58       9.5  T
   9    -11.2178227 -0.320411E-07  0.121E-03    2.58      37.0  T
  10    -11.2178227 -0.101305E-07  0.342E-04    2.58     130.7  T
  11    -11.2178227 -0.157193E-09  0.132E-04    2.58     339.9  T
     SCC iter.                  ...        0 min,  0.001 sec
     gradient                   ...        0 min,  0.001 sec
 * total energy  :   -11.0340095 Eh     change       -0.3211943E-01 Eh
   gradient norm :     0.1167847 Eh/α   predicted    -0.5098165E-01 (  58.73%)
   displ. norm   :     0.1914684 α      lambda       -0.1418133E-01
   maximum displ.:     0.1604265 α      in ANC's #3, #5, #9, ...

........................................................................
.............................. CYCLE    5 ..............................
........................................................................
   1    -11.2184077 -0.112184E+02  0.108E+00    2.22       0.0  T
   2    -11.2177367  0.671071E-03  0.809E-01    2.09       1.0  T
   3    -11.2187949 -0.105821E-02  0.570E-01    2.24       1.0  T
   4    -11.2197560 -0.961079E-03  0.265E-01    2.15       1.0  T
   5    -11.2201829 -0.426901E-03  0.330E-02    2.18       1.4  T
   6    -11.2201830 -0.884687E-07  0.233E-02    2.19       1.9  T
   7    -11.2201847 -0.178253E-05  0.283E-03    2.18      15.8  T
   8    -11.2201847  0.892093E-08  0.218E-03    2.18      20.5  T
   9    -11.2201847  0.719843E-08  0.209E-03    2.18      21.4  T
  10    -11.2201847 -0.275853E-07  0.119E-04    2.18     377.0  T
  11    -11.2201847 -0.312816E-11  0.133E-05    2.18    3365.7  T
     SCC iter.                  ...        0 min,  0.001 sec
     gradient                   ...        0 min,  0.001 sec
 * total energy  :   -11.0383939 Eh     change       -0.4384404E-02 Eh
   gradient norm :     0.0717688 Eh/α   predicted    -0.7350614E-02 (  67.65%)
   displ. norm   :     0.1691049 α      lambda       -0.6837989E-02
   maximum displ.:     0.1068782 α      in ANC's #7, #3, #4, ...

........................................................................
.............................. CYCLE    6 ..............................
........................................................................
   1    -11.2379792 -0.112380E+02  0.779E-01    2.41       0.0  T
   2    -11.2379510  0.282367E-04  0.470E-01    2.38       1.0  T
   3    -11.2365346  0.141645E-02  0.427E-01    2.44       1.0  T
   4    -11.2380454 -0.151085E-02  0.317E-02    2.38       1.4  T
   5    -11.2380444  0.976915E-06  0.143E-02    2.39       3.1  T
   6    -11.2380459 -0.146776E-05  0.338E-03    2.39      13.2  T
   7    -11.2380459 -0.491920E-07  0.114E-03    2.39      39.4  T
   8    -11.2380459 -0.228725E-09  0.519E-04    2.39      86.2  T
   9    -11.2380459  0.127537E-08  0.452E-04    2.39      98.9  T
     SCC iter.                  ...        0 min,  0.001 sec
     gradient                   ...        0 min,  0.001 sec
 * total energy  :   -11.0430532 Eh     change       -0.4659230E-02 Eh
   gradient norm :     0.0256938 Eh/α   predicted    -0.3516765E-02 ( -24.52%)
   displ. norm   :     0.1178687 α      lambda       -0.1900163E-02
   maximum displ.:     0.0849586 α      in ANC's #7, #3, #4, ...

........................................................................
.............................. CYCLE    7 ..............................
........................................................................
   1    -11.2468458 -0.112468E+02  0.545E-01    2.41       0.0  T
   2    -11.2467941  0.517142E-04  0.343E-01    2.37       1.0  T
   3    -11.2458254  0.968699E-03  0.362E-01    2.44       1.0  T
   4    -11.2469073 -0.108190E-02  0.238E-02    2.38       1.9  T
   5    -11.2469075 -0.209770E-06  0.151E-02    2.38       3.0  T
   6    -11.2469079 -0.432270E-06  0.262E-03    2.38      17.1  T
   7    -11.2469080 -0.600918E-07  0.678E-04    2.38      65.9  T
   8    -11.2469080  0.633120E-09  0.483E-04    2.38      92.6  T
     SCC iter.                  ...        0 min,  0.001 sec
     gradient                   ...        0 min,  0.001 sec
 * total energy  :   -11.0442227 Eh     change       -0.1169566E-02 Eh
   gradient norm :     0.0125479 Eh/α   predicted    -0.9632824E-03 ( -17.64%)
   displ. norm   :     0.0526416 α      lambda       -0.3954238E-03
   maximum displ.:     0.0415799 α      in ANC's #7, #5, #4, ...

........................................................................
.............................. CYCLE    8 ..............................
........................................................................
   1    -11.2499399 -0.112499E+02  0.270E-01    2.30       0.0  T
   2    -11.2498995  0.403458E-04  0.188E-01    2.27       1.0  T
   3    -11.2498006  0.989692E-04  0.164E-01    2.31       1.0  T
   4    -11.2499789 -0.178361E-03  0.206E-02    2.29       2.2  T
   5    -11.2499810 -0.206875E-05  0.769E-03    2.28       5.8  T
   6    -11.2499809  0.577308E-07  0.460E-03    2.29       9.7  T
   7    -11.2499810 -0.768969E-07  0.260E-03    2.29      17.2  T
   8    -11.2499811 -0.515741E-07  0.297E-04    2.29     150.7  T
   9    -11.2499811 -0.975433E-10  0.927E-05    2.29     482.4  T
     SCC iter.                  ...        0 min,  0.001 sec
     gradient                   ...        0 min,  0.001 sec
 * total energy  :   -11.0444765 Eh     change       -0.2537760E-03 Eh
   gradient norm :     0.0037685 Eh/α   predicted    -0.1982603E-03 ( -21.88%)
   displ. norm   :     0.0267319 α      lambda       -0.6409018E-04
   maximum displ.:     0.0196644 α      in ANC's #7, #5, #3, ...

........................................................................
.............................. CYCLE    9 ..............................
........................................................................
   1    -11.2502639 -0.112503E+02  0.135E-01    2.24       0.0  T
   2    -11.2502569  0.700351E-05  0.888E-02    2.22       1.0  T
   3    -11.2502070  0.499356E-04  0.917E-02    2.25       1.0  T
   4    -11.2502704 -0.634340E-04  0.600E-03    2.23       7.5  T
   5    -11.2502705 -0.651822E-07  0.351E-03    2.23      12.7  T
   6    -11.2502705 -0.227782E-07  0.246E-04    2.23     181.6  T
   7    -11.2502705 -0.916760E-10  0.139E-04    2.23     322.4  T
     SCC iter.                  ...        0 min,  0.001 sec
     gradient                   ...        0 min,  0.001 sec
 * total energy  :   -11.0445129 Eh     change       -0.3642042E-04 Eh
   gradient norm :     0.0010770 Eh/α   predicted    -0.3206705E-04 ( -11.95%)
   displ. norm   :     0.0119550 α      lambda       -0.6696876E-05
   maximum displ.:     0.0066321 α      in ANC's #7, #4, #3, ...

........................................................................
.............................. CYCLE   10 ..............................
........................................................................
   1    -11.2508686 -0.112509E+02  0.581E-02    2.21       0.0  T
   2    -11.2508660  0.250939E-05  0.424E-02    2.21       1.1  T
   3    -11.2508652  0.869392E-06  0.332E-02    2.22       1.3  T
   4    -11.2508711 -0.591734E-05  0.592E-03    2.21       7.6  T
   5    -11.2508713 -0.210852E-06  0.164E-03    2.21      27.3  T
   6    -11.2508713  0.511034E-08  0.128E-03    2.21      34.8  T
   7    -11.2508713 -0.468705E-08  0.818E-04    2.21      54.6  T
   8    -11.2508713 -0.505282E-08  0.902E-05    2.21     495.7  T
     SCC iter.                  ...        0 min,  0.001 sec
     gradient                   ...        0 min,  0.001 sec
 * total energy  :   -11.0445183 Eh     change       -0.5412087E-05 Eh
   gradient norm :     0.0029363 Eh/α   predicted    -0.3347285E-05 ( -38.15%)
   displ. norm   :     0.0068243 α      lambda       -0.5655186E-05
   maximum displ.:     0.0036721 α      in ANC's #3, #4, #5, ...

........................................................................
.............................. CYCLE   11 ..............................
........................................................................
   1    -11.2508925 -0.112509E+02  0.314E-02    2.21       0.0  T
   2    -11.2508919  0.620774E-06  0.215E-02    2.20       2.1  T
   3    -11.2508902  0.166537E-05  0.208E-02    2.21       2.1  T
   4    -11.2508930 -0.281375E-05  0.134E-03    2.20      33.3  T
   5    -11.2508930 -0.362638E-08  0.664E-04    2.20      67.4  T
   6    -11.2508930  0.796305E-10  0.255E-04    2.20     175.6  T
     SCC iter.                  ...        0 min,  0.001 sec
     gradient                   ...        0 min,  0.002 sec
 * total energy  :   -11.0445234 Eh     change       -0.5033822E-05 Eh
   gradient norm :     0.0022129 Eh/α   predicted    -0.2827904E-05 ( -43.82%)
   displ. norm   :     0.0425066 α      lambda       -0.2949289E-04
   maximum displ.:     0.0297432 α      in ANC's #3, #4, #8, ...

........................................................................
.............................. CYCLE   12 ..............................
........................................................................
   1    -11.2505976 -0.112506E+02  0.173E-01    2.18       0.0  T
   2    -11.2505869  0.106403E-04  0.111E-01    2.16       1.0  T
   3    -11.2505026  0.843459E-04  0.120E-01    2.19       1.0  T
   4    -11.2506075 -0.104877E-03  0.638E-03    2.17       7.0  T
   5    -11.2506076 -0.877343E-07  0.328E-03    2.17      13.6  T
   6    -11.2506076  0.207990E-08  0.907E-04    2.17      49.3  T
   7    -11.2506076 -0.560775E-08  0.338E-04    2.17     132.2  T
     SCC iter.                  ...        0 min,  0.001 sec
     gradient                   ...        0 min,  0.001 sec
 * total energy  :   -11.0445411 Eh     change       -0.1778721E-04 Eh
   gradient norm :     0.0007068 Eh/α   predicted    -0.1477234E-04 ( -16.95%)
   displ. norm   :     0.0264923 α      lambda       -0.6726977E-05
   maximum displ.:     0.0229143 α      in ANC's #3, #8, #5, ...

........................................................................
.............................. CYCLE   13 ..............................
........................................................................
   1    -11.2512070 -0.112512E+02  0.108E-01    2.16       0.0  T
   2    -11.2511982  0.879601E-05  0.736E-02    2.15       1.0  T
   3    -11.2511860  0.122080E-04  0.699E-02    2.17       1.0  T
   4    -11.2512143 -0.283742E-04  0.525E-03    2.16       8.5  T
   5    -11.2512145 -0.139592E-06  0.252E-03    2.16      17.8  T
   6    -11.2512145  0.493399E-09  0.896E-04    2.16      49.9  T
   7    -11.2512145 -0.383579E-08  0.522E-04    2.16      85.7  T
     SCC iter.                  ...        0 min,  0.001 sec
     gradient                   ...        0 min,  0.001 sec
 * total energy  :   -11.0445426 Eh     change       -0.1420029E-05 Eh
   gradient norm :     0.0022698 Eh/α   predicted    -0.3364268E-05 ( 136.92%)
   displ. norm   :     0.0023220 α      lambda       -0.3736533E-05
   maximum displ.:     0.0012775 α      in ANC's #4, #8, #3, ...

........................................................................
.............................. CYCLE   14 ..............................
........................................................................
   1    -11.2508676 -0.112509E+02  0.141E-02    2.16       0.0  T
   2    -11.2508672  0.408563E-06  0.125E-02    2.16       3.6  T
   3    -11.2508680 -0.863506E-06  0.659E-03    2.15       6.8  T
   4    -11.2508681 -0.719528E-07  0.260E-03    2.16      17.2  T
   5    -11.2508682 -0.663578E-07  0.351E-04    2.16     127.4  T
   6    -11.2508682 -0.507757E-09  0.124E-04    2.16     360.6  T
     SCC iter.                  ...        0 min,  0.001 sec
     gradient                   ...        0 min,  0.001 sec
 * total energy  :   -11.0445447 Eh     change       -0.2108178E-05 Eh
   gradient norm :     0.0003685 Eh/α   predicted    -0.1867074E-05 ( -11.44%)
   displ. norm   :     0.0092344 α      lambda       -0.4907112E-06
   maximum displ.:     0.0071076 α      in ANC's #3, #4, #8, ...

   *** GEOMETRY OPTIMIZATION CONVERGED AFTER 14 ITERATIONS ***

------------------------------------------------------------------------
 total energy gain   :        -0.1625184 Eh     -101.9819 kcal/mol
 total RMSD          :         0.6022715 a0        0.3187 Å
 total power (kW/mol):       -30.4780065 (step)-8408.8687 (real)
------------------------------------------------------------------------

 ANCopt (total)                0 d,  0 h,  0 min,  0.051 sec
 optimizer setup                ...        0 min,  0.000 sec (  0.109%)
 model hessian                  ...        0 min,  0.000 sec (  0.140%)
 ANC generation                 ...        0 min,  0.000 sec (  0.081%)
 coordinate transformation      ...        0 min,  0.000 sec (  0.056%)
 single point calculation       ...        0 min,  0.049 sec ( 97.472%)
 optimization log               ...        0 min,  0.000 sec (  0.609%)
 hessian update                 ...        0 min,  0.000 sec (  0.049%)
 rational function              ...        0 min,  0.000 sec (  0.617%)

================
 final structure:
================
5
 xtb: 6.2.2 (9d81278992624c895f80dd42a50cac0aa55982e2)
C        -1.46833279812402    0.73454098098765   -0.12608924626548
C        -0.17710336641092   -0.01705001880609   -0.19472810955501
N         1.01352334276528   -0.05373026003614   -0.57925948344700
C        -1.56977042733549   -0.54835654473227   -0.31784975948845
C         2.20168224910515   -0.11540315741315   -0.79528040124406

 Bond Distances (Angstroems)
 ---------------------------
C1-C2=1.4956         C1-C4=1.3011         C2-C1=1.4956         C2-N3=1.2517         C2-C4=1.4956         N3-C2=1.2517         
N3-C5=1.2092         C4-C1=1.3011         C4-C2=1.4956         C5-N3=1.2092         
 C  C  Rav=1.4308 sigma=0.0917  Rmin=1.3011  Rmax=1.4956     3
 N  C  Rav=1.2305 sigma=0.0213  Rmin=1.2092  Rmax=1.2517     2

 selected bond angles (degree)
 --------------------
C4-C1-C2= 64.22                N3-C2-C1=148.21                C4-C2-C1= 51.57                C4-C2-N3=148.21                
C5-N3-C2=172.31                C2-C4-C1= 64.22                

 selected dihedral angles (degree)
 ---------------------------------
N3-C2-C1-C4=141.21            C5-N3-C2-C1=124.34            C5-N3-C2-C4=235.67            C1-C4-C2-N3=218.78            
           -------------------------------------------------
          |                Final Singlepoint                |
           -------------------------------------------------

          ...................................................
          :                      SETUP                      :
          :.................................................:
          :  # basis functions                  20          :
          :  # atomic orbitals                  20          :
          :  # shells                           10          :
          :  # electrons                        21          :
          :  max. iterations                   250          :
          :  Hamiltonian                  GFN2-xTB          :
          :  restarted?                      false          :
          :  GBSA solvation                  false          :
          :  PC potential                    false          :
          :  electronic temp.          300.0000000     K    :
          :  accuracy                    1.0000000          :
          :  -> integral cutoff          0.2500000E+02      :
          :  -> integral neglect         0.1000000E-07      :
          :  -> SCF convergence          0.1000000E-05 Eh   :
          :  -> wf. convergence          0.1000000E-03 e    :
          :  Broyden damping             0.4000000          :
          ...................................................

 iter      E             dE          RMSdq      gap      omega  full diag
   1    -11.2508682 -0.112509E+02  0.155E-04    2.16       0.0  T
   2    -11.2508682  0.498025E-09  0.294E-04    2.16     151.9  T
   3    -11.2508682 -0.678458E-09  0.115E-05    2.16    3898.3  T

   *** convergence criteria satisfied after 3 iterations ***

         #    Occupation            Energy/Eh            Energy/eV
      -------------------------------------------------------------
         1        2.0000           -0.7222590             -19.6537
       ...           ...                  ...                  ...
         6        2.0000           -0.5574179             -15.1681
         7        2.0000           -0.5260743             -14.3152
         8        2.0000           -0.5006570             -13.6236
         9        2.0000           -0.4584056             -12.4739
        10        1.0000           -0.4169092             -11.3447
        11        1.0000           -0.4123425             -11.2204
        12        1.0000           -0.3517895              -9.5727 (HOMO)
        13                         -0.2725721              -7.4171 (LUMO)
        14                         -0.2578611              -7.0168
        15                         -0.2030059              -5.5241
        16                         -0.0321047              -0.8736
        17                         -0.0135408              -0.3685
       ...                                ...                  ...
        20                          1.0192817              27.7361
      -------------------------------------------------------------
                  HL-Gap            0.0792175 Eh            2.1556 eV
             Fermi-level           -0.3749210 Eh          -10.2021 eV

 SCC (total)                   0 d,  0 h,  0 min,  0.003 sec
 SCC setup                      ...        0 min,  0.000 sec (  1.237%)
 Dispersion                     ...        0 min,  0.000 sec (  0.420%)
 integral evaluation            ...        0 min,  0.002 sec ( 48.973%)
 zeroth order Hamiltonian       ...        0 min,  0.000 sec (  0.428%)
 iterations                     ...        0 min,  0.000 sec ( 10.275%)
 molecular gradient             ...        0 min,  0.001 sec ( 36.512%)
 printout                       ...        0 min,  0.000 sec (  1.898%)

         :::::::::::::::::::::::::::::::::::::::::::::::::::::
         ::                     SUMMARY                     ::
         :::::::::::::::::::::::::::::::::::::::::::::::::::::
         :: total energy             -11.044544676053 Eh    ::
         :: gradient norm              0.000375559931 Eh/a0 ::
         :: HOMO-LUMO gap              2.155616672649 eV    ::
         ::.................................................::
         :: SCC energy               -11.250868176850 Eh    ::
         :: -> isotropic ES           -0.012144014120 Eh    ::
         :: -> anisotropic ES         -0.000107959207 Eh    ::
         :: -> anisotropic XC          0.013253171960 Eh    ::
         :: -> dispersion             -0.002785614868 Eh    ::
         :: repulsion energy           0.206323610972 Eh    ::
         :: add. restraining           0.000000000000 Eh    ::
         :::::::::::::::::::::::::::::::::::::::::::::::::::::

           ------------------------------------------------- 
          |                Numerical Hessian                |
           ------------------------------------------------- 
step length          :   0.00500
SCC accuracy         :   0.30000
Hessian scale factor :   1.00000
frozen atoms in %    :   0.00000    0
RMS gradient         :   0.00038
estimated CPU  time      0.00 min
estimated wall time      0.00 min

writing file <hessian>.

 projected vibrational frequencies (cm-1)
eigval :       -0.00    -0.00    -0.00    -0.00     0.00     0.00
eigval :      145.17   151.38   316.01   390.95   555.03   764.64
eigval :     1469.60  1756.98  1917.75
           -------------------------------------------------
          |                Property Printout                |
           -------------------------------------------------

    * Orbital Energies and Occupations

         #    Occupation            Energy/Eh            Energy/eV
      -------------------------------------------------------------
         1        2.0000           -0.7222591             -19.6537
         2        2.0000           -0.7059077             -19.2087
         3        2.0000           -0.6619375             -18.0122
         4        2.0000           -0.5905505             -16.0697
         5        2.0000           -0.5715095             -15.5516
         6        2.0000           -0.5574180             -15.1681
         7        2.0000           -0.5260743             -14.3152
         8        2.0000           -0.5006570             -13.6236
         9        2.0000           -0.4584055             -12.4738
        10        1.0000           -0.4169094             -11.3447
        11        1.0000           -0.4123426             -11.2204
        12        1.0000           -0.3517895              -9.5727 (HOMO)
        13                         -0.2725722              -7.4171 (LUMO)
        14                         -0.2578609              -7.0168
        15                         -0.2030059              -5.5241
        16                         -0.0321048              -0.8736
        17                         -0.0135409              -0.3685
        18                          0.3659769               9.9587
        19                          0.5549506              15.1010
        20                          1.0192817              27.7361
      -------------------------------------------------------------
                  HL-Gap            0.0792173 Eh            2.1556 eV
             Fermi-level           -0.3749210 Eh          -10.2021 eV

     #   Z        covCN         q      C6AA      α(0)
     1   6 C      1.958    -0.017    31.535     9.069
     2   6 C      2.873     0.112    25.533     8.283
     3   7 N      1.821     0.060    20.855     6.767
     4   6 C      1.958    -0.017    31.535     9.069
     5   6 C      0.918    -0.137    39.876    10.572

 Mol. C6AA /au·bohr⁶  :        736.834273
 Mol. C8AA /au·bohr⁸  :      20415.345515
 Mol. α(0) /au        :         43.759299


Wiberg/Mayer (AO) data.
largest (>0.10) Wiberg bond orders for each atom
          total WBO             WBO to atom ...
     1  C   2.783        C    4 1.873    C    2 0.825
     2  C   3.247        N    3 1.524    C    1 0.825    C    4 0.825
     3  N   3.655        C    5 2.015    C    2 1.524
     4  C   2.783        C    1 1.873    C    2 0.825
     5  C   2.144        N    3 2.015

MOs/occ written to file <molden.input>


molecular dipole:
                 x           y           z       tot (Debye)
 q only:       -0.392       0.014       0.114
   full:       -0.729       0.028       0.197       1.920
molecular quadrupole (traceless):
                xx          xy          yy          xz          yz          zz
 q only:       -2.277       0.191       1.267       1.051      -0.063       1.010
  q+dip:       -5.397       0.499       3.611       2.289       0.066       1.785
   full:       -7.067       0.561       3.742       2.812      -0.190       3.325

           -------------------------------------------------
          |                Geometry Summary                 |
           -------------------------------------------------

      molecular mass/u    :       62.0496468
   center of mass at/Å    :        0.0326006      -0.0017290      -0.4083228
  moments of inertia/u·Å² :        0.1066729E+02   0.1323515E+03   0.1420170E+03
rotational constants/cm⁻¹ :        0.1580311E+01   0.1273702E+00   0.1187015E+00

 * 3 selected distances

     #   Z        #   Z                                     value/Å
     2   6 C      3   7 N                                 1.2517195
     1   6 C      4   6 C                                 1.3011102 (max)
     3   7 N      5   6 C                                 1.2092106 (min)

 * 2 distinct bonds (by element types)

   Z      Z             #   av. dist./Å        max./Å        min./Å
   6 C    6 C           1     1.3011102     1.3011102     1.3011102
   6 C    7 N           2     1.2304650     1.2517195     1.2092106

           -------------------------------------------------
          |               Frequency Printout                |
           -------------------------------------------------
 projected vibrational frequencies (cm-1)
eigval :       -0.00    -0.00    -0.00    -0.00     0.00     0.00
eigval :      145.17   151.38   316.01   390.95   555.03   764.64
eigval :     1469.60  1756.98  1917.75
Molecule has the following symmetry elements: (sigma) 
It seems to be the Cs point group
 reduced masses (amu)
   1: 12.16   2: 12.43   3: 12.65   4: 12.28   5: 12.05   6: 12.26   7: 12.06   8: 12.55
   9: 13.31  10: 12.81  11: 12.01  12: 12.37  13: 12.02  14: 12.31  15: 12.88
 IR intensities (amu)
   1:  0.10   2:  0.09   3:  0.08   4:  0.03   5:  0.05   6:  0.07   7:  0.31   8:  0.28
   9:  0.17  10:  0.11  11:  0.22  12:  0.29  13:  0.33  14:  0.61  15:  0.64
 Raman intensities (amu)
   1:  0.00   2:  0.00   3:  0.00   4:  0.00   5:  0.00   6:  0.00   7:  0.00   8:  0.00
   9:  0.00  10:  0.00  11:  0.00  12:  0.00  13:  0.00  14:  0.00  15:  0.00
 output can be read by thermo (or use thermo option).
 writing <g98.out> molden fake output.
 recommended (thermochemical) frequency scaling factor: 1.0
           -------------------------------------------------
          |             Thermodynamic Functions             |
           -------------------------------------------------

cs  symmetry found (for desy threshold:  0.10E+00) used in thermo

          ...................................................
          :                      SETUP                      :
          :.................................................:
          :  # frequencies                           9      :
          :  # imaginary freq.                       0      :
          :  linear?                             false      :
          :  only rotor calc.                    false      :
          :  symmetry                               cs      :
          :  rotational number                       1      :
          :  scaling factor                  1.0000000      :
          :  rotor cutoff                   50.0000000 cm⁻¹ :
          :  imag. cutoff                  -20.0000000 cm⁻¹ :
          :.................................................:

    mode    ω/cm⁻¹     T·S(HO)/kcal·mol⁻¹    T·S(FR)/kcal·mol⁻¹   T·S(vib)
   ------------------------------------------------------------------------
       1    145.17    -0.00000 ( 98.61%)     0.00890 (  1.39%)     0.00012
       2    151.38    -0.00000 ( 98.82%)     0.00931 (  1.18%)     0.00011
   ------------------------------------------------------------------------

   temp. (K)  partition function   enthalpy   heat capacity  entropy
                                   cal/mol     cal/K/mol   cal/K/mol   J/K/mol
 298.15  VIB   6.36                 1440.350      8.911      8.503
         ROT  0.342E+05              888.752      2.981     23.728
         INT  0.218E+06             2329.102     11.892     32.231
         TR   0.473E+27             1481.254      4.968     38.278
         TOT                        3810.3562    16.8597    70.5088   295.0088

   temp. (K)  partition function   enthalpy   heat capacity  entropy
                                   cal/mol     cal/K/mol   cal/K/mol   J/K/mol
 120.00  VIB   1.50                  206.073      4.291      2.533
         ROT  0.873E+04              357.707      2.981     21.015
         INT  0.131E+05              563.780      7.272     23.548
         TR   0.121E+27              596.178      4.968     33.759
         TOT                        1159.9583    12.2397    57.3071   239.7727

   temp. (K)  partition function   enthalpy   heat capacity  entropy
                                   cal/mol     cal/K/mol   cal/K/mol   J/K/mol
 100.00  VIB   1.31                  128.270      3.477      1.828
         ROT  0.664E+04              298.089      2.981     20.472
         INT  0.868E+04              426.359      6.458     22.300
         TR   0.919E+26              496.815      4.968     32.853
         TOT                         923.1736    11.4263    55.1533   230.7614

   temp. (K)  partition function   enthalpy   heat capacity  entropy
                                   cal/mol     cal/K/mol   cal/K/mol   J/K/mol
  80.00  VIB   1.16                   67.507      2.585      1.155
         ROT  0.475E+04              238.471      2.981     19.807
         INT  0.552E+04              305.978      5.566     20.962
         TR   0.657E+26              397.452      4.968     31.745
         TOT                         703.4302    10.5337    52.7072   220.5269

   temp. (K)  partition function   enthalpy   heat capacity  entropy
                                   cal/mol     cal/K/mol   cal/K/mol   J/K/mol
  60.00  VIB   1.06                   25.529      1.595      0.558
         ROT  0.309E+04              178.853      2.981     18.949
         INT  0.327E+04              204.382      4.576     19.507
         TR   0.427E+26              298.089      4.968     30.317
         TOT                         502.4714     9.5445    49.8236   208.4618

   temp. (K)  partition function   enthalpy   heat capacity  entropy
                                   cal/mol     cal/K/mol   cal/K/mol   J/K/mol
  40.00  VIB   1.01                    4.141      0.556      0.133
         ROT  0.168E+04              119.236      2.981     17.740
         INT  0.170E+04              123.377      3.536     17.873
         TR   0.232E+26              198.726      4.968     28.303
         TOT                         322.1030     8.5046    46.1767   193.2035

   temp. (K)  partition function   enthalpy   heat capacity  entropy
                                   cal/mol     cal/K/mol   cal/K/mol   J/K/mol
  20.00  VIB   1.00                    0.020      0.011     -0.006
         ROT   594.                   59.618      2.981     15.674
         INT   594.                   59.638      2.992     15.669
         TR   0.822E+25               99.363      4.968     24.861
         TOT                         159.0010     7.9598    40.5300   169.5775

   temp. (K)  partition function   enthalpy   heat capacity  entropy
                                   cal/mol     cal/K/mol   cal/K/mol   J/K/mol
  10.00  VIB   1.00                    0.000      0.000     -0.025
         ROT   210.                   29.809      2.981     13.608
         INT   210.                   29.809      2.981     13.583
         TR   0.290E+25               49.681      4.968     21.419
         TOT                          79.4904     7.9490    35.0024   146.4500

       T/K    H(0)-H(T)+PV         H(T)/Eh          T*S/Eh         G(T)/Eh
   ------------------------------------------------------------------------
    298.15    0.607219E-02    0.230844E-01    0.335010E-01   -0.104166E-01
    120.00    0.184851E-02    0.188607E-01    0.109590E-01    0.790179E-02
    100.00    0.147117E-02    0.184834E-01    0.878924E-02    0.969416E-02
     80.00    0.112099E-02    0.181332E-01    0.671954E-02    0.114137E-01
     60.00    0.800739E-03    0.178130E-01    0.476393E-02    0.130490E-01
     40.00    0.513304E-03    0.175255E-01    0.294349E-02    0.145820E-01
     20.00    0.253384E-03    0.172656E-01    0.129177E-02    0.159738E-01
     10.00    0.126676E-03    0.171389E-01    0.557799E-03    0.165811E-01 (used)
   ------------------------------------------------------------------------

         :::::::::::::::::::::::::::::::::::::::::::::::::::::
         ::                  THERMODYNAMIC                  ::
         :::::::::::::::::::::::::::::::::::::::::::::::::::::
         :: total free energy         -11.027963568410 Eh   ::
         ::.................................................::
         :: total energy              -11.044544676038 Eh   ::
         :: zero point energy           0.017012230340 Eh   ::
         :: G(RRHO) w/o ZPVE           -0.000431122713 Eh   ::
         :: G(RRHO) contrib.            0.016581107628 Eh   ::
         :::::::::::::::::::::::::::::::::::::::::::::::::::::

optimized geometry written to: xtbopt.xyz


           -------------------------------------------------
          | TOTAL ENERGY              -11.044544676038 Eh   |
          | TOTAL ENTHALPY            -11.027405769681 Eh   |
          | TOTAL FREE ENERGY         -11.027963568410 Eh   |
          | GRADIENT NORM               0.000375574481 Eh/α |
          | HOMO-LUMO GAP               2.155612491650 eV   |
           -------------------------------------------------

------------------------------------------------------------------------
 * finished run on 2020/05/12 at 11:44:07.471     
------------------------------------------------------------------------
 total:
 * wall-time:     0 d,  0 h,  0 min,  0.175 sec
 *  cpu-time:     0 d,  0 h,  0 min,  0.175 sec
 * ratio c/w:     0.999 speedup
 SCF:
 * wall-time:     0 d,  0 h,  0 min,  0.005 sec
 *  cpu-time:     0 d,  0 h,  0 min,  0.005 sec
 * ratio c/w:     1.000 speedup
 ANC optimizer:
 * wall-time:     0 d,  0 h,  0 min,  0.054 sec
 *  cpu-time:     0 d,  0 h,  0 min,  0.054 sec
 * ratio c/w:     0.999 speedup
 numerical hessian:
 * wall-time:     0 d,  0 h,  0 min,  0.100 sec
 *  cpu-time:     0 d,  0 h,  0 min,  0.100 sec
 * ratio c/w:     1.000 speedup

