$hessian                                                                        
        0.1459550814  -0.0430444442  -0.0085003904  -0.1724518710   0.0375463589
        0.0026319261  -0.0126886818   0.0115866477   0.0028119169   0.0510899011
       -0.0077688738   0.0015478021  -0.0119044297   0.0016803114   0.0015087453
       -0.0430444442   0.6785597396   0.0973082605   0.1560250031  -0.0349683296
        0.0000255527  -0.0116334664   0.0019577636   0.0020056615  -0.1036301715
       -0.6449430751  -0.0987609103   0.0022830791  -0.0006060985  -0.0005785644
       -0.0085003904   0.0973082605   0.0164676826   0.0134225982   0.0023583367
        0.0010690944   0.0125001208  -0.0058882108  -0.0052254660  -0.0124451154
       -0.0943907154  -0.0148224243  -0.0049772132   0.0006123290   0.0025111133
       -0.1724518710   0.1560250031   0.0134225982   0.9362223838  -0.0473127618
       -0.1475725418  -0.4495637480   0.0132971761   0.1344943407  -0.1987124866
       -0.1271872498  -0.0299301603  -0.1154942782   0.0051778323   0.0295857632
        0.0375463589  -0.0349683296   0.0023583367  -0.0473127618   0.0632749170
        0.0130577541   0.0198218349  -0.0283853837  -0.0082746796  -0.0108587831
       -0.0057377675  -0.0068129021   0.0008033510   0.0058165640  -0.0003285091
        0.0026319261   0.0000255527   0.0010690944  -0.1475725418   0.0130577541
        0.0525976556   0.0912799864  -0.0047983415  -0.0441549837  -0.0053779449
       -0.0056035099  -0.0018202673   0.0590385742  -0.0026814554  -0.0076914991
       -0.0126886818  -0.0116334664   0.0125001208  -0.4495637480   0.0198218349
        0.0912799864   1.0989602616  -0.0491190505  -0.2340828665  -0.0127191027
        0.0094450149   0.0165103141  -0.6239887292   0.0314856670   0.1137924451
        0.0115866477   0.0019577636  -0.0058882108   0.0132971761  -0.0283853837
       -0.0047983415  -0.0491190505   0.0383795916   0.0104492020  -0.0097641331
        0.0006318080   0.0053406194   0.0339993598  -0.0125837795  -0.0051032690
        0.0028119169   0.0020056615  -0.0052254660   0.1344943407  -0.0082746796
       -0.0441549837  -0.2340828665   0.0104492020   0.0900133141  -0.0005550032
       -0.0004015376  -0.0038601542   0.0973316121  -0.0037786463  -0.0367727102
        0.0510899011  -0.1036301715  -0.0124451154  -0.1987124866  -0.0108587831
       -0.0053779449  -0.0127191027  -0.0097641331  -0.0005550032   0.1724763702
        0.1244435061   0.0171486087  -0.0121346821  -0.0001904184   0.0012294548
       -0.0077688738  -0.6449430751  -0.0943907154  -0.1271872498  -0.0057377675
       -0.0056035099   0.0094450149   0.0006318080  -0.0004015376   0.1244435061
        0.6502140719   0.1008493664   0.0010676025  -0.0001650372  -0.0004536035
        0.0015478021  -0.0987609103  -0.0148224243  -0.0299301603  -0.0068129021
       -0.0018202673   0.0165103141   0.0053406194  -0.0038601542   0.0171486087
        0.1008493664   0.0181627174  -0.0052765646  -0.0006161735   0.0023401284
       -0.0119044297   0.0022830791  -0.0049772132  -0.1154942782   0.0008033510
        0.0590385742  -0.6239887292   0.0339993598   0.0973316121  -0.0121346821
        0.0010676025  -0.0052765646   0.7635221192  -0.0381533924  -0.1461164084
        0.0016803114  -0.0006060985   0.0006123290   0.0051778323   0.0058165640
       -0.0026814554   0.0314856670  -0.0125837795  -0.0037786463  -0.0001904184
       -0.0001650372  -0.0006161735  -0.0381533924   0.0075383513   0.0064639461
        0.0015087453  -0.0005785644   0.0025111133   0.0295857632  -0.0003285091
       -0.0076914991   0.1137924451  -0.0051032690  -0.0367727102   0.0012294548
       -0.0004536035   0.0023401284  -0.1461164084   0.0064639461   0.0396129676
