 Entering Gaussian System
 *********************************************
 Gaussian 98:
 frequency output generated by the xtb code
 *********************************************
                         Standard orientation:
 --------------------------------------------------------------------
  Center     Atomic     Atomic              Coordinates (Angstroms)
  Number     Number      Type              X           Y           Z
 --------------------------------------------------------------------
    1          6             0        1.286395   -0.115121    0.045309
    2          6             0        0.082006   -0.051917    0.013518
    3          6             0       -2.418897    0.388781   -0.142385
    4          6             0       -1.279059   -0.003758   -0.008194
    5          1             0        2.329555   -0.217986    0.091751
 --------------------------------------------------------------------
     1 basis functions        1 primitive gaussians
     1 alpha electrons        1 beta electrons

 Harmonic frequencies (cm**-1), IR intensities (KM/Mole),
 Raman scattering activities (A**4/amu), Raman depolarization ratios,
 reduced masses (AMU), force constants (mDyne/A) and normal coordinates:
                      1                      2                      3
                        a                      a                      a 
 Frequencies --   181.8911               287.0278               361.4895
 Red. masses --    11.4604                11.9106                11.9683
 Frc consts  --     0.0000                 0.0000                 0.0000
 IR Inten    --     0.3981                 0.0726                 0.6305
 Raman Activ --     0.0000                 0.0000                 0.0000
 Depolar     --     0.0000                 0.0000                 0.0000
 Atom AN      X      Y      Z        X      Y      Z        X      Y      Z
   1   6     0.04  -0.39   0.12     0.01  -0.13  -0.39     0.08   0.29  -0.09
   2   6     0.10   0.42  -0.14    -0.00   0.26   0.79     0.02  -0.68   0.22
   3   6    -0.24  -0.47   0.15    -0.00  -0.01  -0.03    -0.15  -0.15   0.05
   4   6     0.09   0.50  -0.15     0.00  -0.11  -0.34     0.05   0.55  -0.19
   5   1     0.00  -0.21   0.07     0.00  -0.03  -0.09     0.01  -0.06   0.02
                      4                      5                      6
                        a                      a                      a 
 Frequencies --   588.4870               615.7302               948.5187
 Red. masses --     2.3637                 2.6970                11.6798
 Frc consts  --     0.0000                 0.0000                 0.0000
 IR Inten    --     0.2416                 0.4042                 0.2996
 Raman Activ --     0.0000                 0.0000                 0.0000
 Depolar     --     0.0000                 0.0000                 0.0000
 Atom AN      X      Y      Z        X      Y      Z        X      Y      Z
   1   6     0.00  -0.09  -0.33     0.02   0.33  -0.09    -0.55   0.03  -0.01
   2   6    -0.00  -0.01  -0.04    -0.02   0.08  -0.02    -0.37   0.01  -0.00
   3   6     0.00   0.02   0.05     0.03   0.01  -0.01     0.53  -0.17   0.06
   4   6     0.00   0.01   0.06     0.00  -0.16   0.06     0.44   0.13  -0.04
   5   1    -0.02   0.25   0.90    -0.10  -0.88   0.24    -0.17   0.02  -0.01
                      7                      8                      9
                        a                      a                      a 
 Frequencies --  2054.2076              2176.8781              3389.4000
 Red. masses --    12.0076                11.1530                 2.4300
 Frc consts  --     0.0000                 0.0000                 0.0000
 IR Inten    --     2.2433                 0.8060                 0.0793
 Raman Activ --     0.0000                 0.0000                 0.0000
 Depolar     --     0.0000                 0.0000                 0.0000
 Atom AN      X      Y      Z        X      Y      Z        X      Y      Z
   1   6     0.02   0.00  -0.00     0.56  -0.03   0.02    -0.35   0.03  -0.01
   2   6     0.12   0.02  -0.01    -0.77   0.04  -0.02     0.08  -0.00   0.00
   3   6     0.60  -0.19   0.06     0.11  -0.04   0.01    -0.01   0.00  -0.00
   4   6    -0.74   0.17  -0.06     0.01   0.04  -0.01     0.01  -0.00   0.00
   5   1     0.01  -0.02   0.01     0.28  -0.02   0.01     0.93  -0.09   0.04
