[Molden Format]
[Title]
[Atoms] AU
C      1     6  0.24309345048116E+01 -0.21754686518431E+00  0.85622036668757E-01
C      2     6  0.15496905450254E+00 -0.98108026506496E-01  0.25544853640847E-01
C      3     6 -0.45710525098816E+01  0.73469009251203E+00 -0.26906774409184E+00
C      4     6 -0.24170707355188E+01 -0.71021091254358E-02 -0.15484109065804E-01
H      5     1  0.44022196860863E+01 -0.41193309169587E+00  0.17338496284788E+00
[GTO]
           1 0
 s           4   1.0000000000000000     
   51.049363095579913      -0.16312063210127389     
   8.7911227406887544      -0.19911024581000730     
  0.70640422258929825       0.31882047753655751     
  0.26922813413411617       0.12706504184240380     
 p           4   1.0000000000000000     
   5.8263656140800002       0.73716451545209605     
   1.5106896018720002       0.68216371614850257     
  0.53256483288000001       0.35783053929253711     
  0.21202323690600003        5.3983030275847881E-002

           2 0
 s           4   1.0000000000000000     
   51.049363095579913      -0.16312063210127389     
   8.7911227406887544      -0.19911024581000730     
  0.70640422258929825       0.31882047753655751     
  0.26922813413411617       0.12706504184240380     
 p           4   1.0000000000000000     
   5.8263656140800002       0.73716451545209605     
   1.5106896018720002       0.68216371614850257     
  0.53256483288000001       0.35783053929253711     
  0.21202323690600003        5.3983030275847881E-002

           3 0
 s           4   1.0000000000000000     
   51.049363095579913      -0.16312063210127389     
   8.7911227406887544      -0.19911024581000730     
  0.70640422258929825       0.31882047753655751     
  0.26922813413411617       0.12706504184240380     
 p           4   1.0000000000000000     
   5.8263656140800002       0.73716451545209605     
   1.5106896018720002       0.68216371614850257     
  0.53256483288000001       0.35783053929253711     
  0.21202323690600003        5.3983030275847881E-002

           4 0
 s           4   1.0000000000000000     
   51.049363095579913      -0.16312063210127389     
   8.7911227406887544      -0.19911024581000730     
  0.70640422258929825       0.31882047753655751     
  0.26922813413411617       0.12706504184240380     
 p           4   1.0000000000000000     
   5.8263656140800002       0.73716451545209605     
   1.5106896018720002       0.68216371614850257     
  0.53256483288000001       0.35783053929253711     
  0.21202323690600003        5.3983030275847881E-002

           5 0
 s           3   1.0000000000000000     
   3.3702276975336001       0.27359110588908298     
  0.61389118221497996       0.26460540653860526     
  0.16614291148415999        8.2465947534082318E-002

[MO]
Sym=     1a
Ene=  -0.64076337223208080     
Spin= Alpha
Occup=     2.00000000
           1  0.32524882955764028     
           2 -0.16317700896380938     
           3   6.8992056997274811E-003
           4  -3.5893349846724764E-003
           5  0.49336683800792525     
           6   1.5424216455592691E-002
           7  -1.2545285450459365E-003
           8   1.2205486707131193E-003
           9  0.20971375457088434     
          10  0.11610834570336896     
          11  -2.9380952887692203E-002
          12   1.0176545914993855E-002
          13  0.38975830998166200     
          14   5.6541668951571630E-002
          15   2.5211874899332881E-002
          16  -7.9546480400780380E-003
          17   5.4021588502775636E-002
Sym=     2a
Ene=  -0.62943189063087257     
Spin= Alpha
Occup=     2.00000000
           1 -0.33457674125951936     
           2  0.10194754384179715     
           3  -1.2940290427266737E-003
           4   1.3788593476832297E-003
           5 -0.20175148389486094     
           6 -0.22568825888888638     
           7   2.1820266488023383E-002
           8  -8.8542198465427387E-003
           9  0.39451314401559145     
          10  0.15167812237633049     
          11  -4.8091470302137264E-002
          12   1.6426305185394480E-002
          13  0.37575460638973818     
          14 -0.17272096544063265     
          15   5.6980651466840393E-002
          16  -1.9661760910243652E-002
          17  -7.5234324318397300E-002
Sym=     3a
Ene=  -0.57699877215909190     
Spin= Alpha
Occup=     2.00000000
           1  0.35330820890455256     
           2  0.10597332781700181     
           3  -4.8668015798632473E-003
           4   2.4998856185330653E-003
           5 -0.23203729950318444     
           6  0.32130660845853176     
           7  -1.3598380028829436E-003
           8   2.6167685427069699E-003
           9  0.35050213061100066     
          10   1.5359356143252335E-002
          11  -2.1978340236353571E-002
          12   7.3112228329196508E-003
          13 -0.12649765203385507     
          14 -0.36632981624229805     
          15   6.5964242243144025E-002
          16  -2.3170129116685662E-002
          17  0.20549240245216921     
Sym=     4a
Ene=  -0.51740596936723549     
Spin= Alpha
Occup=     2.00000000
           1 -0.18318239911616213     
           2 -0.45727398569181443     
           3   5.5863677264739071E-002
           4  -2.4570109531071239E-002
           5   8.5873765409906322E-002
           6  0.27115007373567784     
           7   2.3853111697226401E-002
           8  -7.7034936716185842E-003
           9  0.20231287568025277     
          10  -5.7636382488146114E-002
          11   1.7435962834970689E-002
          12  -6.2204843752344053E-003
          13 -0.17609431323558988     
          14 -0.17962203585185896     
          15   5.8830949464273967E-002
          16  -2.0602672076488329E-002
          17 -0.45918796922358723     
Sym=     5a
Ene=  -0.48079799019604730     
Spin= Alpha
Occup=     2.00000000
           1  -7.0668207519962976E-004
           2  -3.4069596222524251E-003
           3  0.12358392664934194     
           4  0.35144211343361248     
           5  -7.8326588506089632E-004
           6  -2.8126092933064440E-003
           7  0.17210823808349668     
           8  0.48998358656008012     
           9   4.0860276220913157E-004
          10   9.4172480592930773E-005
          11   9.8258001700851916E-002
          12  0.28010444503947801     
          13  -1.8616074106681663E-003
          14  -2.4118505141447665E-005
          15  0.15410277039616813     
          16  0.43956105476088841     
          17  -5.9332278842382066E-004
Sym=     6a
Ene=  -0.48061799046835996     
Spin= Alpha
Occup=     2.00000000
           1   9.5784348036462817E-003
           2   6.7603766507154606E-002
           3  0.34529197110693394     
           4 -0.12067211611440065     
           5   7.9836291886322720E-003
           6  -8.6376568976565832E-003
           7  0.48569976435612761     
           8 -0.17071067668831033     
           9   2.3453482739457642E-003
          10   8.0827151104667136E-002
          11  0.27345965107431935     
          12  -9.5891755120203467E-002
          13  -7.0772048151885189E-002
          14  0.11561244518100826     
          15  0.42452136960443632     
          16 -0.14898029287541414     
          17   3.5924675714547022E-002
Sym=     7a
Ene=  -0.42103708488620201     
Spin= Alpha
Occup=     1.99999804
           1   3.3606181056403554E-002
           2   2.9047968613056846E-003
           3  0.44828364360015399     
           4 -0.14992126262693212     
           5  -5.1304900064162891E-002
           6   8.2867250917712063E-002
           7  0.29613736816414282     
           8  -9.8168978137416596E-002
           9 -0.29769889442462072     
          10  0.11333357576480248     
          11 -0.50247464642034856     
          12  0.16790090873696431     
          13  0.13254690965713822     
          14 -0.15153082203593210     
          15 -0.32683889031480923     
          16  0.10853000919168457     
          17  -3.3759000179275758E-002
Sym=     8a
Ene=  -0.41684825691167188     
Spin= Alpha
Occup=     1.99983925
           1  -3.8089148758596651E-004
           2  -5.6435964731978332E-003
           3  0.16504543609747713     
           4  0.49361233673176808     
           5  -4.3362946227193627E-004
           6  -1.7069058815098474E-003
           7  0.10471695658776151     
           8  0.31362760670210454     
           9   3.5070967148650848E-004
          10   9.6092942749306733E-004
          11 -0.17194833595854161     
          12 -0.51550520836539171     
          13  -3.0338116007193013E-004
          14   1.0706119676270397E-003
          15 -0.13287319420257282     
          16 -0.39793317609610174     
          17  -5.1185939297614461E-004
Sym=     9a
Ene=  -0.40026161488930478     
Spin= Alpha
Occup=     1.00016271
           1  -3.5080591117845367E-002
           2   8.3994551629500439E-002
           3  0.21303249943072072     
           4  -7.0211289951251504E-002
           5  0.13992983152486504     
           6 -0.15757235933138247     
           7  0.11355191244212653     
           8  -3.9537571139316371E-002
           9  0.54499592480170866     
          10 -0.68239250978599364     
          11  -5.1660878718625354E-002
          12   1.5613384746732779E-002
          13 -0.10126393894250706     
          14  0.14400193695203739     
          15 -0.21571004990424777     
          16   7.2578583035920824E-002
          17   7.1760967459333122E-002
Sym=    10a
Ene=  -0.24271706899588172     
Spin= Alpha
Occup=     0.00000000
           1  -5.2709695040362797E-002
           2  -3.7337240096379051E-002
           3 -0.58878285002571551     
           4  0.20931778432437406     
           5   7.8767872887230930E-002
           6  -2.6066341125059379E-002
           7  0.42243219476621297     
           8 -0.15069069502009130     
           9  -2.6817903814656617E-002
          10 -0.19208416537322937     
          11 -0.60110997252126119     
          12  0.21246497155074570     
          13 -0.10056951146163629     
          14   5.4381159848409369E-002
          15  0.40682919585100358     
          16 -0.14355614245967044     
          17   4.4112103652481249E-002
Sym=    11a
Ene=  -0.23984077120794739     
Spin= Alpha
Occup=     0.00000000
           1  -2.5847503736006408E-004
           2  -5.7006381448467891E-003
           3  0.21668282632473349     
           4  0.61120145629856371     
           5   2.5691573186294223E-005
           6   3.6196201692075183E-003
           7 -0.15634932428506021     
           8 -0.44107896912719463     
           9   4.1453319794253424E-004
          10   2.6160352720813471E-003
          11  0.21759575487634744     
          12  0.61546425567831986     
          13   1.0876309427096421E-003
          14  -6.9543557862539781E-004
          15 -0.14310075496005509     
          16 -0.40380140164924710     
          17   2.9357540701024747E-004
Sym=    12a
Ene=   -9.5701525510708790E-002
Spin= Alpha
Occup=     0.00000000
           1  -3.9620103603268807E-002
           2   6.4298113464226939E-002
           3  0.49676139631314825     
           4 -0.15935304910591605     
           5   9.8583508851356277E-002
           6  -9.9185265591387725E-002
           7 -0.69812216462389465     
           8  0.22368751472986634     
           9   1.2766310431303862E-002
          10  -4.7861963696314382E-002
          11 -0.47008671030379762     
          12  0.14987759738039130     
          13 -0.20044024093975488     
          14   9.3840845948323967E-002
          15  0.64672298755707147     
          16 -0.20605467772094146     
          17   2.9491445678835524E-002
Sym=    13a
Ene=   -8.4161779575432263E-002
Spin= Alpha
Occup=     0.00000000
           1  -4.5487957672292016E-003
           2  -5.5456463114246330E-003
           3  0.15339679948277621     
           4  0.47742324142834575     
           5   4.1223005519677594E-003
           6   5.3891148237930151E-003
           7 -0.22260719336630547     
           8 -0.69449003738206860     
           9   5.4857319457054715E-005
          10   4.3040528797873168E-003
          11 -0.15831563114408378     
          12 -0.49496444413965041     
          13  -1.0467785771628223E-003
          14  -6.1504382481350128E-003
          15  0.22617001892508143     
          16  0.70723465468043134     
          17   4.0544437384890785E-003
Sym=    14a
Ene=    7.3184211172604305E-002
Spin= Alpha
Occup=     0.00000000
           1 -0.86823711365022949     
           2 -0.18368633786432945     
           3   2.4071191956566294E-002
           4  -1.5476273548341165E-002
           5  0.68768484134246344     
           6  -3.3919361266150978E-002
           7   4.0062709453259480E-002
           8  -6.1872707531578797E-003
           9   7.2168112911492624E-002
          10  0.26776112027387111     
          11   3.5574696841261244E-002
          12  -8.6420916973781146E-003
          13 -0.51299839838534589     
          14 -0.34299320750850709     
          15 -0.13340155481239893     
          16   3.8669666376127634E-002
          17  0.81389131542478987     
Sym=    15a
Ene=   0.34425011681130574     
Spin= Alpha
Occup=     0.00000000
           1  0.52158422619923439     
           2  0.62456279352877142     
           3  -7.9408618343762241E-002
           4   3.2397162537136252E-002
           5  0.60950281157067576     
           6 -0.54160147620411003     
           7   8.2699057836667034E-002
           8  -2.9379244618744142E-002
           9  0.21605423866583234     
          10  0.39902532165816901     
          11  -4.0831933603308911E-002
          12   1.5167904911838634E-002
          13 -0.82292309168115318     
          14 -0.29673667084658961     
          15 -0.15556128534945393     
          16   4.9954222167940078E-002
          17 -0.76008951618277698     
Sym=    16a
Ene=    1.0753609499160954     
Spin= Alpha
Occup=     0.00000000
           1  0.25197034965724485     
           2 -0.69946898444350336     
           3   2.8127314575250147E-002
           4  -1.5958946107473348E-002
           5 -0.76818219181754221     
           6 -0.27107092893442586     
           7   7.5802645252313117E-002
           8  -2.8553982446223172E-002
           9  0.84090340380597595     
          10  0.82257521879381301     
          11 -0.29705324204109163     
          12  0.10122252863292620     
          13 -0.72732788267883042     
          14  0.98962539427548657     
          15 -0.30053921274692408     
          16  0.10378799445741120     
          17  0.33778144080092443     
Sym=    17a
Ene=    1.5190538331307575     
Spin= Alpha
Occup=     0.00000000
           1  0.68615929920897378     
           2  -1.1016638412135118     
           3   7.8664590752060545E-002
           4  -3.7310958472247947E-002
           5 -0.39609855632240282     
           6  -1.3773546879624878     
           7   3.4686365525536229E-002
           8  -2.1340223961126607E-002
           9 -0.49066698927742058     
          10 -0.40082397168317213     
          11  0.17859134725551465     
          12  -6.0761031745774373E-002
          13 -0.10954236045297348     
          14 -0.94667992946166335     
          15  0.15585603334716289     
          16  -5.4584674766945070E-002
          17  0.42167863799703986     
