$hessian                                                                        
        1.4426203854  -0.0978326109   0.0462182029  -0.9870886619   0.0499083054
       -0.0254440747   0.0502630196  -0.0240003300   0.0081374458  -0.1257262952
        0.0320938340  -0.0112755017  -0.3800684479   0.0398308014  -0.0176360723
       -0.0978326109   0.0351511118  -0.0044596737   0.0595033400  -0.0139254769
        0.0015629773   0.0014005451   0.0006464002  -0.0010364171   0.0017193105
       -0.0026258532   0.0018489151   0.0352094152  -0.0192461820   0.0020841984
        0.0462182029  -0.0044596737   0.0267311307  -0.0287427283   0.0013631047
       -0.0117394170  -0.0000635944  -0.0010736607  -0.0016593578  -0.0014738865
        0.0019564633   0.0016945812  -0.0159379937   0.0022137664  -0.0150269371
       -0.9870886619   0.0595033400  -0.0287427283   1.3785013516  -0.0619420839
        0.0309407270  -0.1333380010   0.0519782473  -0.0177349847  -0.2463378265
       -0.0452756296   0.0140827822  -0.0117368621  -0.0042638738   0.0014542038
        0.0499083054  -0.0139254769   0.0013631047  -0.0619420839   0.0373119825
       -0.0041143086   0.0368971608  -0.0074856584   0.0018753033  -0.0254121348
       -0.0126308499   0.0006904064   0.0005487524  -0.0032699973   0.0001854943
       -0.0254440747   0.0015629773  -0.0117394170   0.0309407270  -0.0041143086
        0.0276770898  -0.0130759436   0.0023309600  -0.0020483525   0.0078380612
        0.0000781869  -0.0114371517  -0.0002587698   0.0001421844  -0.0024521686
        0.0502630196   0.0014005451  -0.0000635944  -0.1333380010   0.0368971608
       -0.0130759436   0.8442122463  -0.2597465553   0.0890630942  -0.7615373406
        0.2263694649  -0.0775936371   0.0004000756  -0.0049206154   0.0016700810
       -0.0240003300   0.0006464002  -0.0010736607   0.0519782473  -0.0074856584
        0.0023309600  -0.2597465553   0.0868300876  -0.0295306751   0.2323594113
       -0.0816085484   0.0281174674  -0.0005907733   0.0016177190   0.0001559084
        0.0081374458  -0.0010364171  -0.0016593578  -0.0177349847   0.0018753033
       -0.0020483525   0.0890630942  -0.0295306751   0.0105081508  -0.0796550759
        0.0283275640  -0.0087791411   0.0001895206   0.0003642249   0.0019787006
       -0.1257262952   0.0017193105  -0.0014738865  -0.2463378265  -0.0254121348
        0.0078380612  -0.7615373406   0.2323594113  -0.0796550759   1.1345807511
       -0.2148100939   0.0754143207  -0.0009792887   0.0061435069  -0.0021234195
        0.0320938340  -0.0026258532   0.0019564633  -0.0452756296  -0.0126308499
        0.0000781869   0.2263694649  -0.0816085484   0.0283275640  -0.2148100939
        0.0918702245  -0.0297200826   0.0016224247   0.0049950270  -0.0006421316
       -0.0112755017   0.0018489151   0.0016945812   0.0140827822   0.0006904064
       -0.0114371517  -0.0775936371   0.0281174674  -0.0087791411   0.0754143207
       -0.0297200826   0.0154001238  -0.0006279641  -0.0009367063   0.0031215878
       -0.3800684479   0.0352094152  -0.0159379937  -0.0117368621   0.0005487524
       -0.0002587698   0.0004000756  -0.0005907733   0.0001895206  -0.0009792887
        0.0016224247  -0.0006279641   0.3923845231  -0.0367898191   0.0166352070
        0.0398308014  -0.0192461820   0.0022137664  -0.0042638738  -0.0032699973
        0.0001421844  -0.0049206154   0.0016177190   0.0003642249   0.0061435069
        0.0049950270  -0.0009367063  -0.0367898191   0.0159034333  -0.0017834694
       -0.0176360723   0.0020841984  -0.0150269371   0.0014542038   0.0001854943
       -0.0024521686   0.0016700810   0.0001559084   0.0019787006  -0.0021234195
       -0.0006421316   0.0031215878   0.0166352070  -0.0017834694   0.0123788173
