      -----------------------------------------------------------      
     |                   =====================                   |     
     |                           x T B                           |     
     |                   =====================                   |     
     |                         S. Grimme                         |     
     |          Mulliken Center for Theoretical Chemistry        |     
     |                    University of Bonn                     |     
      -----------------------------------------------------------      

   * xtb version 6.2.2 (9d81278992624c895f80dd42a50cac0aa55982e2) compiled by '@Darwin' on 04/03/2020

   xtb is free software: you can redistribute it and/or modify it under
   the terms of the GNU Lesser General Public License as published by
   the Free Software Foundation, either version 3 of the License, or
   (at your option) any later version.
   
   xtb is distributed in the hope that it will be useful,
   but WITHOUT ANY WARRANTY; without even the implied warranty of
   MERCHANTABILITY or FITNESS FOR A PARTICULAR PURPOSE.  See the
   GNU Lesser General Public License for more details.
   
   Cite this work as:
   * S. Grimme, C. Bannwarth, P. Shushkov, J. Chem. Theory Comput., 2017,
     13, 1989-2009. DOI: 10.1021/acs.jctc.7b00118
   * C. Bannwarth, S. Ehlert and S. Grimme., J. Chem. Theory Comput., 2019,
     15, 1652-1671. DOI: 10.1021/acs.jctc.8b01176
   * P. Pracht, E. Caldeweyher, S. Ehlert, S. Grimme, ChemRxiv, 2019, preprint.
     DOI: 10.26434/chemrxiv.8326202.v1
   
   for DFT-D4:
   * E. Caldeweyher, C. Bannwarth and S. Grimme, J. Chem. Phys., 2017,
     147, 034112. DOI: 10.1063/1.4993215
   * E. Caldeweyher, S. Ehlert, A. Hansen, H. Neugebauer, S. Spicher,
     C. Bannwarth and S. Grimme, J. Chem. Phys., 2019, 150, 154122.
     DOI: 10.1063/1.5090222
   
   for sTDA-xTB:
   * S. Grimme and C. Bannwarth, J. Chem. Phys., 2016, 145, 054103.
     DOI: 10.1063/1.4959605
   
   in the mass-spec context:
   * V. Asgeirsson, C. Bauer and S. Grimme, Chem. Sci., 2017, 8, 4879.
     DOI: 10.1039/c7sc00601b
   
   for metadynamics refer to:
   * S. Grimme, J. Chem. Theory Comput., 2019, 155, 2847-2862
     DOI: 10.1021/acs.jctc.9b00143
   
   with help from (in alphabetical order)
   C. Bannwarth, F. Bohle, G. Brandenburg, E. Caldeweyher, M. Checinski,
   S. Dohm, S. Ehlert, S. Ehrlich, F. März, H. Neugebauer, J. Pisarek,
   P. Pracht, P. Shushkov, and S. Spicher.
   
 * started run on 2020/05/12 at 11:44:51.364     

           -------------------------------------------------
          |                Calculation Setup                |
           -------------------------------------------------

          program call               : xtb --input H1C3N1_3_S_2.input H1C3N1_3_S_2.xyz --ohess --molden --namespace H1C3N1_3_S_2 output.out
          calculation namespace      : H1C3N1_3_S_2
          coordinate file            : H1C3N1_3_S_2.xyz
          number of atoms            :                     5
          number of electrons        :                    18
          charge                     :                     0
          spin                       :                   1.0
          first test random number   :      0.28201386546166

   ID    Z sym.   atoms
    1    6 C      1, 3, 4
    2    7 N      2
    3    1 H      5

           -------------------------------------------------
          |                 G F N 2 - x T B                 |
           -------------------------------------------------

        Reference                      10.1021/acs.jctc.8b01176
      * Hamiltonian:
        H0-scaling (s, p, d)           1.850000    2.230000    2.230000
        zeta-weighting                 0.500000
      * Dispersion:
        s8                             2.700000
        a1                             0.520000
        a2                             5.000000
        s9                             5.000000
      * Repulsion:
        kExp                           1.500000    1.000000
        rExp                           1.000000
      * Coulomb:
        alpha                          2.000000
        third order                    shell-resolved
        anisotropic                    true
        a3                             3.000000
        a5                             4.000000
        cn-shift                       1.200000
        cn-exp                         4.000000
        max-rad                        5.000000


          ...................................................
          :                      SETUP                      :
          :.................................................:
          :  # basis functions                  17          :
          :  # atomic orbitals                  17          :
          :  # shells                            9          :
          :  # electrons                        18          :
          :  max. iterations                   250          :
          :  Hamiltonian                  GFN2-xTB          :
          :  restarted?                      false          :
          :  GBSA solvation                  false          :
          :  PC potential                    false          :
          :  electronic temp.          300.0000000     K    :
          :  accuracy                    1.0000000          :
          :  -> integral cutoff          0.2500000E+02      :
          :  -> integral neglect         0.1000000E-07      :
          :  -> SCF convergence          0.1000000E-05 Eh   :
          :  -> wf. convergence          0.1000000E-03 e    :
          :  Broyden damping             0.4000000          :
          ...................................................

 iter      E             dE          RMSdq      gap      omega  full diag
   1     -9.3107838 -0.931078E+01  0.101E+01    0.54       0.0  T
   2     -8.4611650  0.849619E+00  0.114E+01    0.46       1.0  T
   3     -8.2401997  0.220965E+00  0.108E+01    1.13       1.0  T
   4     -9.2790478 -0.103885E+01  0.448E+00    0.21       1.0  T
   5     -8.8385607  0.440487E+00  0.824E+00    0.91       1.0  T
   6     -9.3309677 -0.492407E+00  0.299E+00    0.69       1.0  T
   7     -9.3555291 -0.245614E-01  0.206E+00    0.70       1.0  T
   8     -9.3667028 -0.111737E-01  0.149E+00    0.67       1.0  T
   9     -9.3772036 -0.105008E-01  0.304E-01    0.60       1.0  T
  10     -9.3771691  0.345116E-04  0.206E-01    0.61       1.0  T
  11     -9.3772811 -0.112071E-03  0.858E-02    0.61       1.0  T
  12     -9.3773076 -0.265097E-04  0.315E-02    0.60       1.4  T
  13     -9.3773075  0.111449E-06  0.242E-02    0.60       1.9  T
  14     -9.3773106 -0.307195E-05  0.660E-03    0.60       6.8  T
  15     -9.3773107 -0.926942E-07  0.349E-03    0.60      12.8  T
  16     -9.3773108 -0.681248E-07  0.504E-04    0.60      88.7  T
  17     -9.3773108 -0.431662E-09  0.374E-04    0.60     119.6  T

   *** convergence criteria satisfied after 17 iterations ***

         #    Occupation            Energy/Eh            Energy/eV
      -------------------------------------------------------------
         1        2.0000           -0.7315335             -19.9060
       ...           ...                  ...                  ...
         4        2.0000           -0.5831605             -15.8686
         5        2.0000           -0.5622652             -15.3000
         6        2.0000           -0.5216870             -14.1958
         7        2.0000           -0.5107657             -13.8986
         8        1.9999           -0.4347402             -11.8299
         9        1.0001           -0.4164135             -11.3312
        10        1.0000           -0.3942467             -10.7280 (HOMO)
        11        0.0000           -0.3720885             -10.1250 (LUMO)
        12                         -0.3657805              -9.9534
        13                         -0.3475207              -9.4565
        14                         -0.0105569              -0.2873
        15                          0.0402956               1.0965
       ...                                ...                  ...
        17                          0.1253719               3.4115
      -------------------------------------------------------------
                  HL-Gap            0.0221582 Eh            0.6030 eV
             Fermi-level           -0.4043725 Eh          -11.0035 eV

 transition dipole moment (au) for excitation:           9          10
     X       Y       Z   
  -0.2603   0.3297  -0.1186  total (au/Debye):    0.436   1.109
 dE (eV)             :    0.603
 oscillator strength :  0.39819E-02

 SCC (total)                   0 d,  0 h,  0 min,  0.006 sec
 SCC setup                      ...        0 min,  0.000 sec (  2.148%)
 Dispersion                     ...        0 min,  0.000 sec (  0.437%)
 integral evaluation            ...        0 min,  0.001 sec ( 24.487%)
 zeroth order Hamiltonian       ...        0 min,  0.000 sec (  1.022%)
 iterations                     ...        0 min,  0.002 sec ( 36.520%)
 molecular gradient             ...        0 min,  0.001 sec ( 19.934%)
 printout                       ...        0 min,  0.001 sec ( 15.174%)

         :::::::::::::::::::::::::::::::::::::::::::::::::::::
         ::                     SUMMARY                     ::
         :::::::::::::::::::::::::::::::::::::::::::::::::::::
         :: total energy              -9.329544370433 Eh    ::
         :: gradient norm              0.171364854890 Eh/a0 ::
         :: HOMO-LUMO gap              0.602955724056 eV    ::
         ::.................................................::
         :: SCC energy                -9.377310757797 Eh    ::
         :: -> isotropic ES           -0.037437887798 Eh    ::
         :: -> anisotropic ES         -0.000598473349 Eh    ::
         :: -> anisotropic XC          0.007909133961 Eh    ::
         :: -> dispersion             -0.002347443524 Eh    ::
         :: repulsion energy           0.047766275152 Eh    ::
         :: add. restraining           0.000000000000 Eh    ::
         :::::::::::::::::::::::::::::::::::::::::::::::::::::

      ----------------------------------------------------------- 
     |                   =====================                   |
     |                        A N C O P T                        |
     |                   =====================                   |
     |               Approximate Normal Coordinate               |
     |                Rational Function Optimizer                |
      ----------------------------------------------------------- 

          ...................................................
          :                      SETUP                      :
          :.................................................:
          :   optimization level            normal          :
          :   max. optcycles                   200          :
          :   ANC micro-cycles                  20          :
          :   degrees of freedom                 9          :
          :.................................................:
          :   RF solver                   davidson          :
          :   write xtbopt.log                true          :
          :   linear?                        false          :
          :   energy convergence         0.5000000E-05 Eh   :
          :   grad. convergence          0.1000000E-02 Eh/α :
          :   maximium RF displ.         1.0000000          :
          :   Hlow (freq-cutoff)         0.1000000E-01      :
          :   Hmax (freq-cutoff)         5.0000000          :
          :   S6 in model hess.         20.0000000          :
          ...................................................

generating ANC from model Hessian ...
Using Lindh-Hessian (1995)
 Shifting diagonal of input Hessian by    0.0000000000000000     
 Lowest  eigenvalues of input Hessian
   -0.000000   -0.000000    0.000000    0.000000    0.000000    0.000000
    0.015630    0.060496    0.092981    0.116906    0.139114    0.731551
    0.854785    1.169063    1.202189
 Highest eigenvalues
    0.116906    0.139114    0.731551    0.854785    1.169063    1.202189


........................................................................
.............................. CYCLE    1 ..............................
........................................................................
   1     -9.3773108 -0.937731E+01  0.102E-04    0.60       0.0  T
   2     -9.3773108  0.274622E-08  0.548E-04    0.60      81.6  T
   3     -9.3773108 -0.271088E-08  0.114E-04    0.60     391.0  T
     SCC iter.                  ...        0 min,  0.000 sec
     gradient                   ...        0 min,  0.001 sec
 * total energy  :    -9.3295444 Eh     change       -0.2511076E-09 Eh
   gradient norm :     0.1713661 Eh/α   predicted     0.0000000E+00 (-100.00%)
   displ. norm   :     0.3131772 α      lambda       -0.4144229E-01
   maximum displ.:     0.1776461 α      in ANC's #6, #3, #2, ...

........................................................................
.............................. CYCLE    2 ..............................
........................................................................
   1     -9.4305188 -0.943052E+01  0.176E+00    0.85       0.0  T
   2     -9.4253934  0.512532E-02  0.150E+00    0.69       1.0  T
   3     -9.3879465  0.374469E-01  0.260E+00    0.90       1.0  T
   4     -9.4198563 -0.319098E-01  0.139E+00    0.91       1.0  T
   5     -9.4249430 -0.508673E-02  0.112E+00    0.67       1.0  T
   6     -9.4346997 -0.975664E-02  0.199E-01    0.79       1.0  T
   7     -9.4348534 -0.153728E-03  0.667E-02    0.81       1.0  T
   8     -9.4348542 -0.830374E-06  0.201E-02    0.81       2.2  T
   9     -9.4348562 -0.193872E-05  0.562E-03    0.81       8.0  T
  10     -9.4348562 -0.237505E-07  0.104E-03    0.81      43.2  T
  11     -9.4348562 -0.305167E-08  0.436E-04    0.81     102.5  T
  12     -9.4348562 -0.441368E-09  0.241E-04    0.81     185.5  T
     SCC iter.                  ...        0 min,  0.001 sec
     gradient                   ...        0 min,  0.001 sec
 * total energy  :    -9.3632585 Eh     change       -0.3371409E-01 Eh
   gradient norm :     0.0998451 Eh/α   predicted    -0.2275347E-01 ( -32.51%)
   displ. norm   :     0.5357088 α      lambda       -0.3840292E-01
   maximum displ.:     0.3167474 α      in ANC's #3, #6, #1, ...

........................................................................
.............................. CYCLE    3 ..............................
........................................................................
   1     -9.4744723 -0.947447E+01  0.317E+00    1.07       0.0  T
   2     -9.3340671  0.140405E+00  0.502E+00    0.52       1.0  T
   3     -9.4889052 -0.154838E+00  0.166E+00    0.99       1.0  T
   4     -9.4663494  0.225558E-01  0.205E+00    0.98       1.0  T
   5     -9.4953782 -0.290289E-01  0.729E-01    0.84       1.0  T
   6     -9.4977802 -0.240196E-02  0.280E-01    0.88       1.0  T
   7     -9.4980680 -0.287867E-03  0.409E-02    0.89       1.1  T
   8     -9.4980705 -0.241426E-05  0.682E-03    0.89       6.6  T
   9     -9.4980705 -0.417357E-07  0.369E-03    0.89      12.1  T
  10     -9.4980705 -0.184869E-07  0.964E-04    0.89      46.4  T
  11     -9.4980705 -0.192284E-08  0.157E-04    0.89     285.0  T
     SCC iter.                  ...        0 min,  0.001 sec
     gradient                   ...        0 min,  0.001 sec
 * total energy  :    -9.3889576 Eh     change       -0.2569918E-01 Eh
   gradient norm :     0.0966187 Eh/α   predicted    -0.2471197E-01 (  -3.84%)
   displ. norm   :     0.5702639 α      lambda       -0.2154002E-01
   maximum displ.:     0.3984779 α      in ANC's #1, #2, #3, ...

........................................................................
.............................. CYCLE    4 ..............................
........................................................................
   1     -9.4869838 -0.948698E+01  0.230E+00    0.97       0.0  T
   2     -9.3587915  0.128192E+00  0.457E+00    0.68       1.0  T
   3     -9.4937267 -0.134935E+00  0.136E+00    0.92       1.0  T
   4     -9.4863112  0.741544E-02  0.137E+00    0.86       1.0  T
   5     -9.4995548 -0.132436E-01  0.373E-01    0.86       1.0  T
   6     -9.5001687 -0.613838E-03  0.132E-01    0.85       1.0  T
   7     -9.5002273 -0.585799E-04  0.274E-02    0.84       1.6  T
   8     -9.5002298 -0.252852E-05  0.863E-03    0.84       5.2  T
   9     -9.5002300 -0.252524E-06  0.209E-03    0.84      21.4  T
  10     -9.5002300 -0.100714E-07  0.349E-04    0.84     128.3  T
  11     -9.5002300 -0.348559E-09  0.168E-04    0.84     266.3  T
     SCC iter.                  ...        0 min,  0.001 sec
     gradient                   ...        0 min,  0.001 sec
 * total energy  :    -9.4024076 Eh     change       -0.1344996E-01 Eh
   gradient norm :     0.0661056 Eh/α   predicted    -0.1427243E-01 (   6.12%)
   displ. norm   :     0.3591278 α      lambda       -0.1563539E-01
   maximum displ.:     0.1876454 α      in ANC's #2, #4, #6, ...

........................................................................
.............................. CYCLE    5 ..............................
........................................................................
   1     -9.5234736 -0.952347E+01  0.283E+00    0.74       0.0  T
   2     -9.3661527  0.157321E+00  0.532E+00    0.49       1.0  T
   3     -9.5168510 -0.150698E+00  0.205E+00    0.87       1.0  T
   4     -9.5275733 -0.107223E-01  0.112E+00    0.55       1.0  T
   5     -9.5339665 -0.639311E-02  0.550E-01    0.65       1.0  T
   6     -9.5341229 -0.156490E-03  0.476E-01    0.64       1.0  T
   7     -9.5350406 -0.917634E-03  0.812E-02    0.60       1.0  T
   8     -9.5350542 -0.135975E-04  0.428E-02    0.59       1.0  T
   9     -9.5350574 -0.324500E-05  0.602E-03    0.59       7.4  T
  10     -9.5350574 -0.168086E-07  0.284E-03    0.59      15.7  T
  11     -9.5350574 -0.120775E-07  0.773E-04    0.59      57.8  T
  12     -9.5350574 -0.216897E-08  0.679E-05    0.59     659.1  T
     SCC iter.                  ...        0 min,  0.001 sec
     gradient                   ...        0 min,  0.001 sec
 * total energy  :    -9.4107251 Eh     change       -0.8317453E-02 Eh
   gradient norm :     0.0462554 Eh/α   predicted    -0.8825963E-02 (   6.11%)
   displ. norm   :     0.3113948 α      lambda       -0.4842790E-02
   maximum displ.:     0.2665612 α      in ANC's #1, #4, #2, ...

........................................................................
.............................. CYCLE    6 ..............................
........................................................................
   1     -9.5377895 -0.953779E+01  0.155E+00    0.53       0.0  T
   2     -9.5260456  0.117439E-01  0.179E+00    0.44       1.0  T
   3     -9.5302396 -0.419405E-02  0.133E+00    0.68       1.0  T
   4     -9.5350357 -0.479612E-02  0.819E-01    0.44       1.0  T
   5     -9.5393740 -0.433827E-02  0.251E-01    0.55       1.0  T
   6     -9.5395053 -0.131280E-03  0.174E-01    0.54       1.0  T
   7     -9.5396367 -0.131400E-03  0.115E-02    0.52       3.9  T
   8     -9.5396370 -0.344171E-06  0.386E-03    0.52      11.6  T
   9     -9.5396370 -0.267630E-08  0.927E-04    0.52      48.2  T
  10     -9.5396370 -0.343526E-09  0.472E-04    0.52      94.7  T
     SCC iter.                  ...        0 min,  0.001 sec
     gradient                   ...        0 min,  0.001 sec
 * total energy  :    -9.4161860 Eh     change       -0.5460940E-02 Eh
   gradient norm :     0.0482904 Eh/α   predicted    -0.2656192E-02 ( -51.36%)
   displ. norm   :     0.4312561 α      lambda       -0.1174792E-01
   maximum displ.:     0.3344518 α      in ANC's #1, #4, #5, ...

........................................................................
.............................. CYCLE    7 ..............................
........................................................................
   1     -9.5508323 -0.955083E+01  0.274E+00    0.26       0.0  T
   2     -9.5512048 -0.372467E-03  0.154E+00    0.25       1.0  T
   3     -9.5173397  0.338650E-01  0.225E+00    0.62       1.0  T
   4     -9.5492592 -0.319194E-01  0.691E-01    0.21       1.0  T
   5     -9.5514184 -0.215928E-02  0.420E-01    0.30       1.0  T
   6     -9.5519194 -0.500927E-03  0.258E-01    0.28       1.0  T
   7     -9.5520532 -0.133813E-03  0.178E-01    0.27       1.0  T
   8     -9.5521900 -0.136791E-03  0.171E-02    0.26       2.6  T
   9     -9.5521907 -0.724878E-06  0.552E-03    0.26       8.1  T
  10     -9.5521905  0.160945E-06  0.706E-03    0.26       6.3  T
  11     -9.5521907 -0.218068E-06  0.231E-03    0.26      19.3  T
  12     -9.5521908 -0.220207E-07  0.776E-04    0.26      57.6  T
  13     -9.5521908 -0.283772E-08  0.305E-05    0.26    1465.4  T
     SCC iter.                  ...        0 min,  0.001 sec
     gradient                   ...        0 min,  0.001 sec
 * total energy  :    -9.4305064 Eh     change       -0.1432045E-01 Eh
   gradient norm :     0.0569825 Eh/α   predicted    -0.6966415E-02 ( -51.35%)
   displ. norm   :     0.4795457 α      lambda       -0.1698831E-01
   maximum displ.:     0.2921187 α      in ANC's #1, #4, #5, ...

........................................................................
.............................. CYCLE    8 ..............................
........................................................................
   1     -9.3806329 -0.938063E+01  0.624E+00    0.57       0.0  T
   2     -8.3618818  0.101875E+01  0.109E+01    3.57       1.0  T
   3     -9.4667093 -0.110483E+01  0.386E+00    0.16       1.0  T
   4     -9.5063847 -0.396754E-01  0.418E+00    0.40       1.0  T
   5     -9.5070554 -0.670721E-03  0.360E+00    0.41       1.0  T
   6     -9.5149321 -0.787671E-02  0.340E+00    0.35       1.0  T
   7     -9.4159610  0.989711E-01  0.569E+00    0.34       1.0  T
   8     -9.4825730 -0.666120E-01  0.413E+00    0.12       1.0  T
   9     -9.5555520 -0.729790E-01  0.109E+00    0.04       1.0  T
  10     -9.5524885  0.306353E-02  0.135E+00    0.04       1.0  T
  11     -9.5594886 -0.700006E-02  0.516E-01    0.07       1.0  T
  12     -9.5525179  0.697070E-02  0.132E+00    0.10       1.0  T
  13     -9.5524797  0.381247E-04  0.132E+00    0.10       1.0  T
  14     -9.5565241 -0.404441E-02  0.945E-01    0.05       1.0  T
  15     -9.5603253 -0.380119E-02  0.288E-01    0.05       1.0  T
  16     -9.5606873 -0.361930E-03  0.871E-02    0.06       1.0  T
  17     -9.5607192 -0.319292E-04  0.311E-02    0.06       1.4  T
  18     -9.5607238 -0.465838E-05  0.376E-04    0.06     119.0  T
  19     -9.5607238  0.319437E-07  0.262E-03    0.06      17.1  T
  20     -9.5607239 -0.320283E-07  0.355E-04    0.06     125.9  T
  21     -9.5607239 -0.491577E-09  0.149E-04    0.06     300.9  T
     SCC iter.                  ...        0 min,  0.002 sec
     gradient                   ...        0 min,  0.001 sec
 * total energy  :    -9.4354054 Eh     change       -0.4898947E-02 Eh
   gradient norm :     0.0838684 Eh/α   predicted    -0.1044750E-01 ( 113.26%)
   displ. norm   :     0.2665230 α      lambda       -0.1605174E-01
   maximum displ.:     0.1375298 α      in ANC's #4, #3, #5, ...

........................................................................
.............................. CYCLE    9 ..............................
........................................................................
   1     -9.5234438 -0.952344E+01  0.367E+00    0.28       0.0  T
   2     -8.6977906  0.825653E+00  0.910E+00    2.05       1.0  T
   3     -9.4894033 -0.791613E+00  0.346E+00    0.36       1.0  T
   4     -9.5358326 -0.464292E-01  0.321E+00    0.25       1.0  T
   5     -9.5545100 -0.186774E-01  0.262E+00    0.21       1.0  T
   6     -9.5523020  0.220796E-02  0.275E+00    0.21       1.0  T
   7     -9.5663790 -0.140770E-01  0.196E+00    0.17       1.0  T
   8     -9.5744947 -0.811570E-02  0.121E+00    0.15       1.0  T
   9     -9.5787627 -0.426792E-02  0.367E-01    0.13       1.0  T
  10     -9.5779332  0.829475E-03  0.545E-01    0.13       1.0  T
  11     -9.5791918 -0.125864E-02  0.288E-01    0.13       1.0  T
  12     -9.5795085 -0.316701E-03  0.344E-02    0.13       1.3  T
  13     -9.5795074  0.115799E-05  0.274E-02    0.13       1.6  T
  14     -9.5795114 -0.403518E-05  0.511E-03    0.13       8.8  T
  15     -9.5795113  0.850729E-07  0.493E-03    0.13       9.1  T
  16     -9.5795114 -0.109730E-06  0.900E-04    0.13      49.7  T
  17     -9.5795114 -0.368885E-08  0.283E-04    0.13     158.1  T
     SCC iter.                  ...        0 min,  0.001 sec
     gradient                   ...        0 min,  0.001 sec
 * total energy  :    -9.4493404 Eh     change       -0.1393502E-01 Eh
   gradient norm :     0.0617675 Eh/α   predicted    -0.8595985E-02 ( -38.31%)
   displ. norm   :     0.7956772 α      lambda       -0.3996317E-01
   maximum displ.:     0.5497690 α      in ANC's #5, #4, #3, ...

........................................................................
.............................. CYCLE   10 ..............................
........................................................................
   1     -9.5372877 -0.953729E+01  0.389E+00    0.88       0.0  T
   2     -9.1813841  0.355904E+00  0.631E+00    0.54       1.0  T
   3     -9.4472038 -0.265820E+00  0.376E+00    1.30       1.0  T
   4     -9.5571873 -0.109983E+00  0.212E+00    0.69       1.0  T
   5     -9.5536313  0.355602E-02  0.160E+00    0.71       1.0  T
   6     -9.5589022 -0.527090E-02  0.134E+00    0.71       1.0  T
   7     -9.5629309 -0.402868E-02  0.602E-01    0.62       1.0  T
   8     -9.5641962 -0.126536E-02  0.312E-01    0.57       1.0  T
   9     -9.5643515 -0.155226E-03  0.254E-01    0.56       1.0  T
  10     -9.5645501 -0.198597E-03  0.502E-02    0.52       1.0  T
  11     -9.5645565 -0.645603E-05  0.409E-03    0.53      10.9  T
  12     -9.5645564  0.749222E-07  0.650E-03    0.53       6.9  T
  13     -9.5645566 -0.107652E-06  0.480E-04    0.53      93.2  T
  14     -9.5645566 -0.460515E-09  0.574E-05    0.53     778.5  T
     SCC iter.                  ...        0 min,  0.001 sec
     gradient                   ...        0 min,  0.001 sec
 * total energy  :    -9.4604262 Eh     change       -0.1108579E-01 Eh
   gradient norm :     0.1174416 Eh/α   predicted    -0.3263195E-01 ( 194.36%)
   displ. norm   :     0.2861870 α      lambda       -0.2197505E-01
   maximum displ.:     0.2428217 α      in ANC's #2, #3, #4, ...

........................................................................
.............................. CYCLE   11 ..............................
........................................................................
   1     -9.6036563 -0.960366E+01  0.139E+00    0.73       0.0  T
   2     -9.5956682  0.798807E-02  0.137E+00    0.48       1.0  T
   3     -9.5973359 -0.166772E-02  0.113E+00    0.84       1.0  T
   4     -9.6048924 -0.755644E-02  0.695E-01    0.61       1.0  T
   5     -9.6075330 -0.264065E-02  0.236E-01    0.65       1.0  T
   6     -9.6077127 -0.179693E-03  0.917E-02    0.66       1.0  T
   7     -9.6077185 -0.582600E-05  0.365E-02    0.66       1.2  T
   8     -9.6077289 -0.103889E-04  0.485E-03    0.66       9.2  T
   9     -9.6077289 -0.724858E-09  0.194E-03    0.66      23.0  T
  10     -9.6077289 -0.719102E-08  0.381E-04    0.66     117.3  T
  11     -9.6077289 -0.978098E-10  0.135E-04    0.66     331.6  T
     SCC iter.                  ...        0 min,  0.001 sec
     gradient                   ...        0 min,  0.001 sec
 * total energy  :    -9.4732700 Eh     change       -0.1284378E-01 Eh
   gradient norm :     0.0472447 Eh/α   predicted    -0.1188744E-01 (  -7.45%)
   displ. norm   :     0.3129093 α      lambda       -0.6705284E-02
   maximum displ.:     0.2057621 α      in ANC's #2, #3, #1, ...

........................................................................
.............................. CYCLE   12 ..............................
........................................................................
   1     -9.5955893 -0.959559E+01  0.158E+00    0.58       0.0  T
   2     -9.5958964 -0.307096E-03  0.918E-01    0.58       1.0  T
   3     -9.5931402  0.275623E-02  0.710E-01    0.51       1.0  T
   4     -9.5948017 -0.166156E-02  0.423E-01    0.65       1.0  T
   5     -9.5961716 -0.136982E-02  0.133E-01    0.54       1.0  T
   6     -9.5962966 -0.125082E-03  0.471E-02    0.57       1.0  T
   7     -9.5962990 -0.238410E-05  0.127E-02    0.57       3.5  T
   8     -9.5962992 -0.205773E-06  0.459E-03    0.57       9.7  T
   9     -9.5962993 -0.151216E-07  0.720E-04    0.57      62.1  T
  10     -9.5962993 -0.820213E-09  0.247E-04    0.57     180.9  T
     SCC iter.                  ...        0 min,  0.001 sec
     gradient                   ...        0 min,  0.001 sec
 * total energy  :    -9.4754323 Eh     change       -0.2162330E-02 Eh
   gradient norm :     0.0607995 Eh/α   predicted    -0.3680908E-02 (  70.23%)
   displ. norm   :     0.2211725 α      lambda       -0.7338828E-02
   maximum displ.:     0.1217179 α      in ANC's #1, #3, #6, ...

........................................................................
.............................. CYCLE   13 ..............................
........................................................................
   1     -9.6255712 -0.962557E+01  0.116E+00    0.92       0.0  T
   2     -9.6194180  0.615322E-02  0.109E+00    1.05       1.0  T
   3     -9.6206376 -0.121954E-02  0.971E-01    0.84       1.0  T
   4     -9.6255240 -0.488649E-02  0.425E-01    1.01       1.0  T
   5     -9.6270671 -0.154309E-02  0.937E-02    0.95       1.0  T
   6     -9.6270665  0.641630E-06  0.745E-02    0.95       1.0  T
   7     -9.6270781 -0.116363E-04  0.143E-02    0.95       3.1  T
   8     -9.6270785 -0.367378E-06  0.707E-03    0.95       6.3  T
   9     -9.6270785 -0.661497E-08  0.665E-04    0.95      67.2  T
  10     -9.6270785 -0.543833E-09  0.390E-04    0.95     114.5  T
     SCC iter.                  ...        0 min,  0.001 sec
     gradient                   ...        0 min,  0.001 sec
 * total energy  :    -9.4766492 Eh     change       -0.1216855E-02 Eh
   gradient norm :     0.0749298 Eh/α   predicted    -0.3848913E-02 ( 216.30%)
   displ. norm   :     0.2084917 α      lambda       -0.7046577E-02
   maximum displ.:     0.1402328 α      in ANC's #1, #3, #6, ...

........................................................................
.............................. CYCLE   14 ..............................
........................................................................
   1     -9.6166258 -0.961663E+01  0.100E+00    0.85       0.0  T
   2     -9.6134847  0.314118E-02  0.796E-01    0.66       1.0  T
   3     -9.6124562  0.102849E-02  0.821E-01    0.95       1.0  T
   4     -9.6175241 -0.506788E-02  0.108E-01    0.78       1.0  T
   5     -9.6175463 -0.222729E-04  0.650E-02    0.80       1.0  T
   6     -9.6175512 -0.490261E-05  0.493E-02    0.79       1.0  T
   7     -9.6175525 -0.125672E-05  0.406E-03    0.79      11.0  T
   8     -9.6175525 -0.938863E-08  0.195E-03    0.79      22.9  T
   9     -9.6175525 -0.326809E-08  0.639E-04    0.79      70.0  T
  10     -9.6175525 -0.518202E-09  0.221E-04    0.79     202.4  T
     SCC iter.                  ...        0 min,  0.001 sec
     gradient                   ...        0 min,  0.001 sec
 * total energy  :    -9.4803722 Eh     change       -0.3723034E-02 Eh
   gradient norm :     0.0395899 Eh/α   predicted    -0.3676441E-02 (  -1.25%)
   displ. norm   :     0.1520970 α      lambda       -0.3484317E-02
   maximum displ.:     0.0897839 α      in ANC's #2, #5, #1, ...

........................................................................
.............................. CYCLE   15 ..............................
........................................................................
   1     -9.6100514 -0.961005E+01  0.936E-01    0.64       0.0  T
   2     -9.6092547  0.796735E-03  0.621E-01    0.45       1.0  T
   3     -9.6082074  0.104728E-02  0.624E-01    0.72       1.0  T
   4     -9.6107138 -0.250637E-02  0.100E-01    0.54       1.0  T
   5     -9.6107501 -0.363362E-04  0.297E-02    0.56       1.5  T
   6     -9.6107490  0.111126E-05  0.188E-02    0.56       2.4  T
   7     -9.6107508 -0.177037E-05  0.460E-03    0.55       9.7  T
   8     -9.6107508 -0.616438E-07  0.202E-03    0.56      22.2  T
   9     -9.6107508 -0.375342E-08  0.409E-04    0.56     109.3  T
  10     -9.6107508 -0.664713E-10  0.597E-05    0.56     748.6  T
     SCC iter.                  ...        0 min,  0.001 sec
     gradient                   ...        0 min,  0.001 sec
 * total energy  :    -9.4821518 Eh     change       -0.1779626E-02 Eh
   gradient norm :     0.0372176 Eh/α   predicted    -0.1782460E-02 (   0.16%)
   displ. norm   :     0.2018732 α      lambda       -0.2585401E-02
   maximum displ.:     0.1326721 α      in ANC's #2, #6, #7, ...

........................................................................
.............................. CYCLE   16 ..............................
........................................................................
   1     -9.6016976 -0.960170E+01  0.673E-01    0.66       0.0  T
   2     -9.6017302 -0.326531E-04  0.406E-01    0.63       1.0  T
   3     -9.6011617  0.568588E-03  0.332E-01    0.70       1.0  T
   4     -9.6017876 -0.625917E-03  0.104E-01    0.61       1.0  T
   5     -9.6018495 -0.619059E-04  0.282E-02    0.65       1.6  T
   6     -9.6018527 -0.319453E-05  0.170E-02    0.64       2.6  T
   7     -9.6018535 -0.814007E-06  0.205E-03    0.64      21.8  T
   8     -9.6018535 -0.814586E-08  0.847E-04    0.64      52.8  T
   9     -9.6018535 -0.286047E-09  0.184E-04    0.64     243.3  T
     SCC iter.                  ...        0 min,  0.001 sec
     gradient                   ...        0 min,  0.001 sec
 * total energy  :    -9.4833872 Eh     change       -0.1235332E-02 Eh
   gradient norm :     0.0400706 Eh/α   predicted    -0.1345381E-02 (   8.91%)
   displ. norm   :     0.1121787 α      lambda       -0.2841436E-02
   maximum displ.:     0.0825713 α      in ANC's #6, #1, #7, ...

........................................................................
.............................. CYCLE   17 ..............................
........................................................................
   1     -9.6122001 -0.961220E+01  0.447E-01    0.74       0.0  T
   2     -9.6122168 -0.167161E-04  0.285E-01    0.71       1.0  T
   3     -9.6120756  0.141249E-03  0.191E-01    0.74       1.0  T
   4     -9.6122663 -0.190717E-03  0.281E-02    0.72       1.6  T
   5     -9.6122671 -0.773434E-06  0.180E-02    0.72       2.5  T
   6     -9.6122661  0.991406E-06  0.122E-02    0.72       3.7  T
   7     -9.6122674 -0.133336E-05  0.318E-03    0.72      14.1  T
   8     -9.6122674 -0.172801E-07  0.576E-04    0.72      77.7  T
   9     -9.6122675 -0.513889E-09  0.154E-04    0.72     289.7  T
     SCC iter.                  ...        0 min,  0.001 sec
     gradient                   ...        0 min,  0.001 sec
 * total energy  :    -9.4849401 Eh     change       -0.1552972E-02 Eh
   gradient norm :     0.0247551 Eh/α   predicted    -0.1438599E-02 (  -7.36%)
   displ. norm   :     0.1099668 α      lambda       -0.1048600E-02
   maximum displ.:     0.0823742 α      in ANC's #2, #6, #8, ...

........................................................................
.............................. CYCLE   18 ..............................
........................................................................
   1     -9.6129696 -0.961297E+01  0.510E-01    0.73       0.0  T
   2     -9.6129728 -0.320998E-05  0.325E-01    0.62       1.0  T
   3     -9.6128458  0.127040E-03  0.251E-01    0.76       1.0  T
   4     -9.6131375 -0.291696E-03  0.870E-02    0.65       1.0  T
   5     -9.6131839 -0.464526E-04  0.126E-02    0.68       3.6  T
   6     -9.6131841 -0.202137E-06  0.979E-03    0.68       4.6  T
   7     -9.6131844 -0.223784E-06  0.148E-03    0.68      30.2  T
   8     -9.6131844 -0.279228E-08  0.875E-04    0.68      51.1  T
   9     -9.6131844 -0.992506E-09  0.794E-05    0.68     562.9  T
     SCC iter.                  ...        0 min,  0.001 sec
     gradient                   ...        0 min,  0.001 sec
 * total energy  :    -9.4856401 Eh     change       -0.6999682E-03 Eh
   gradient norm :     0.0213655 Eh/α   predicted    -0.5306403E-03 ( -24.19%)
   displ. norm   :     0.0881053 α      lambda       -0.1140578E-02
   maximum displ.:     0.0478201 α      in ANC's #2, #9, #8, ...

........................................................................
.............................. CYCLE   19 ..............................
........................................................................
   1     -9.6151432 -0.961514E+01  0.535E-01    0.72       0.0  T
   2     -9.6152091 -0.658806E-04  0.310E-01    0.67       1.0  T
   3     -9.6150512  0.157870E-03  0.208E-01    0.76       1.0  T
   4     -9.6152030 -0.151832E-03  0.947E-02    0.66       1.0  T
   5     -9.6152672 -0.641512E-04  0.124E-02    0.69       3.6  T
   6     -9.6152670  0.187918E-06  0.680E-03    0.69       6.6  T
   7     -9.6152673 -0.284123E-06  0.200E-03    0.69      22.4  T
   8     -9.6152673 -0.676778E-08  0.923E-04    0.69      48.4  T
   9     -9.6152673 -0.923601E-09  0.100E-04    0.69     447.2  T
     SCC iter.                  ...        0 min,  0.001 sec
     gradient                   ...        0 min,  0.001 sec
 * total energy  :    -9.4864550 Eh     change       -0.8148938E-03 Eh
   gradient norm :     0.0168185 Eh/α   predicted    -0.5747156E-03 ( -29.47%)
   displ. norm   :     0.0830454 α      lambda       -0.1033938E-02
   maximum displ.:     0.0456337 α      in ANC's #9, #7, #4, ...

........................................................................
.............................. CYCLE   20 ..............................
........................................................................
   1     -9.6164715 -0.961647E+01  0.450E-01    0.73       0.0  T
   2     -9.6164954 -0.239173E-04  0.260E-01    0.69       1.0  T
   3     -9.6163727  0.122713E-03  0.166E-01    0.77       1.0  T
   4     -9.6165040 -0.131307E-03  0.506E-02    0.69       1.0  T
   5     -9.6165212 -0.172702E-04  0.989E-03    0.71       4.5  T
   6     -9.6165211  0.157285E-06  0.519E-03    0.71       8.6  T
   7     -9.6165213 -0.180354E-06  0.149E-03    0.71      30.1  T
   8     -9.6165213 -0.359967E-08  0.524E-04    0.71      85.3  T
   9     -9.6165213 -0.269239E-09  0.109E-04    0.71     409.3  T
     SCC iter.                  ...        0 min,  0.001 sec
     gradient                   ...        0 min,  0.001 sec
 * total energy  :    -9.4871063 Eh     change       -0.6513337E-03 Eh
   gradient norm :     0.0080014 Eh/α   predicted    -0.5205328E-03 ( -20.08%)
   displ. norm   :     0.0707735 α      lambda       -0.3424586E-03
   maximum displ.:     0.0402423 α      in ANC's #1, #2, #7, ...
 * RMSD in coord.:     0.8815406 α      energy gain  -0.1575620E+00 Eh

generating ANC from model Hessian ...
Using Lindh-Hessian (1995)
 Shifting diagonal of input Hessian by    0.0000000000000000     
 Lowest  eigenvalues of input Hessian
   -0.000000   -0.000000   -0.000000   -0.000000    0.000000    0.000000
    0.030845    0.054489    0.131819    0.418058    0.516664    0.748399
    1.262814    1.802536    2.474979
 Highest eigenvalues
    0.418058    0.516664    0.748399    1.262814    1.802536    2.474979


........................................................................
.............................. CYCLE   21 ..............................
........................................................................
   1     -9.6153896 -0.961539E+01  0.249E-01    0.72       0.0  T
   2     -9.6153879  0.168181E-05  0.145E-01    0.68       1.0  T
   3     -9.6153039  0.840231E-04  0.125E-01    0.75       1.0  T
   4     -9.6154072 -0.103253E-03  0.110E-02    0.70       4.1  T
   5     -9.6154072 -0.760800E-07  0.650E-03    0.70       6.9  T
   6     -9.6154072  0.463477E-07  0.326E-03    0.70      13.7  T
   7     -9.6154073 -0.688470E-07  0.430E-04    0.70     104.0  T
   8     -9.6154073 -0.876810E-11  0.144E-04    0.70     309.7  T
     SCC iter.                  ...        0 min,  0.001 sec
     gradient                   ...        0 min,  0.001 sec
 * total energy  :    -9.4873290 Eh     change       -0.2226401E-03 Eh
   gradient norm :     0.0026675 Eh/α   predicted     0.0000000E+00 (-100.00%)
   displ. norm   :     0.0307870 α      lambda       -0.5370621E-04
   maximum displ.:     0.0254997 α      in ANC's #1, #3, #2, ...

........................................................................
.............................. CYCLE   22 ..............................
........................................................................
   1     -9.6153861 -0.961539E+01  0.114E-01    0.69       0.0  T
   2     -9.6153848  0.126588E-05  0.688E-02    0.66       1.0  T
   3     -9.6153712  0.135633E-04  0.619E-02    0.71       1.0  T
   4     -9.6153931 -0.218786E-04  0.614E-03    0.68       7.3  T
   5     -9.6153932 -0.873447E-07  0.385E-03    0.68      11.6  T
   6     -9.6153932 -0.322668E-07  0.268E-04    0.68     166.6  T
   7     -9.6153932 -0.157989E-10  0.132E-04    0.68     338.2  T
     SCC iter.                  ...        0 min,  0.001 sec
     gradient                   ...        0 min,  0.001 sec
 * total energy  :    -9.4873672 Eh     change       -0.3819645E-04 Eh
   gradient norm :     0.0022893 Eh/α   predicted    -0.2687841E-04 ( -29.63%)
   displ. norm   :     0.0308528 α      lambda       -0.3616574E-04
   maximum displ.:     0.0236911 α      in ANC's #1, #3, #6, ...

........................................................................
.............................. CYCLE   23 ..............................
........................................................................
   1     -9.6152314 -0.961523E+01  0.122E-01    0.68       0.0  T
   2     -9.6152305  0.926100E-06  0.731E-02    0.64       1.0  T
   3     -9.6152189  0.116093E-04  0.644E-02    0.69       1.0  T
   4     -9.6152413 -0.224619E-04  0.819E-03    0.66       5.5  T
   5     -9.6152415 -0.155678E-06  0.473E-03    0.66       9.5  T
   6     -9.6152415 -0.483123E-07  0.185E-03    0.66      24.2  T
   7     -9.6152415 -0.739276E-08  0.184E-04    0.66     242.9  T
   8     -9.6152415 -0.517453E-11  0.488E-05    0.66     915.7  T
     SCC iter.                  ...        0 min,  0.001 sec
     gradient                   ...        0 min,  0.001 sec
 * total energy  :    -9.4873920 Eh     change       -0.2485366E-04 Eh
   gradient norm :     0.0021381 Eh/α   predicted    -0.1809933E-04 ( -27.18%)
   displ. norm   :     0.0234532 α      lambda       -0.1854095E-04
   maximum displ.:     0.0152298 α      in ANC's #3, #1, #2, ...

........................................................................
.............................. CYCLE   24 ..............................
........................................................................
   1     -9.6151080 -0.961511E+01  0.968E-02    0.66       0.0  T
   2     -9.6151082 -0.192048E-06  0.575E-02    0.64       1.0  T
   3     -9.6150998  0.837916E-05  0.485E-02    0.67       1.0  T
   4     -9.6151134 -0.136139E-04  0.714E-03    0.65       6.3  T
   5     -9.6151135 -0.102606E-06  0.374E-03    0.65      11.9  T
   6     -9.6151135 -0.273000E-07  0.191E-03    0.65      23.4  T
   7     -9.6151135 -0.920132E-08  0.156E-04    0.65     286.1  T
   8     -9.6151135 -0.759215E-11  0.371E-05    0.65    1206.2  T
     SCC iter.                  ...        0 min,  0.001 sec
     gradient                   ...        0 min,  0.001 sec
 * total energy  :    -9.4874041 Eh     change       -0.1209162E-04 Eh
   gradient norm :     0.0014143 Eh/α   predicted    -0.9275106E-05 ( -23.29%)
   displ. norm   :     0.0150748 α      lambda       -0.4828525E-05
   maximum displ.:     0.0105952 α      in ANC's #2, #3, #1, ...

........................................................................
.............................. CYCLE   25 ..............................
........................................................................
   1     -9.6150626 -0.961506E+01  0.670E-02    0.66       0.0  T
   2     -9.6150628 -0.238699E-06  0.397E-02    0.64       1.1  T
   3     -9.6150581  0.477000E-05  0.312E-02    0.66       1.4  T
   4     -9.6150644 -0.633202E-05  0.463E-03    0.65       9.7  T
   5     -9.6150644 -0.447029E-07  0.229E-03    0.65      19.5  T
   6     -9.6150644 -0.714427E-08  0.135E-03    0.65      33.0  T
   7     -9.6150644 -0.560337E-08  0.155E-04    0.65     287.8  T
   8     -9.6150644 -0.163087E-10  0.237E-05    0.65    1886.0  T
     SCC iter.                  ...        0 min,  0.001 sec
     gradient                   ...        0 min,  0.001 sec
 * total energy  :    -9.4874071 Eh     change       -0.3010228E-05 Eh
   gradient norm :     0.0005833 Eh/α   predicted    -0.2415587E-05 ( -19.75%)
   displ. norm   :     0.0042191 α      lambda       -0.6684479E-06
   maximum displ.:     0.0034083 α      in ANC's #3, #2, #1, ...

   *** GEOMETRY OPTIMIZATION CONVERGED AFTER 25 ITERATIONS ***

------------------------------------------------------------------------
 total energy gain   :        -0.1578627 Eh      -99.0604 kcal/mol
 total RMSD          :         0.8913142 a0        0.4717 Å
 total power (kW/mol):       -16.5787436 (step)-5672.0609 (real)
------------------------------------------------------------------------

 ANCopt (total)                0 d,  0 h,  0 min,  0.073 sec
 optimizer setup                ...        0 min,  0.000 sec (  0.088%)
 model hessian                  ...        0 min,  0.000 sec (  0.178%)
 ANC generation                 ...        0 min,  0.000 sec (  0.131%)
 coordinate transformation      ...        0 min,  0.000 sec (  0.073%)
 single point calculation       ...        0 min,  0.071 sec ( 97.007%)
 optimization log               ...        0 min,  0.001 sec (  0.797%)
 hessian update                 ...        0 min,  0.000 sec (  0.068%)
 rational function              ...        0 min,  0.001 sec (  0.726%)

================
 final structure:
================
5
 xtb: 6.2.2 (9d81278992624c895f80dd42a50cac0aa55982e2)
C         0.66987510968869    0.29234063607131    0.00719833043629
N        -0.59197970150254   -0.20526805321553   -0.04930179067004
C        -1.39048528154493   -1.20821887615025   -0.00953702064931
C        -0.34360485615845    1.22977573318329    0.02794513791662
H         1.65619572951723   -0.10862943988883    0.02369534296645

 Bond Distances (Angstroems)
 ---------------------------
C1-N2=1.3576         C1-C4=1.3807         C1-H5=1.0648         N2-C1=1.3576         N2-C3=1.2826         N2-C4=1.4584         
C3-N2=1.2826         C4-C1=1.3807         C4-N2=1.4584         H5-C1=1.0648         
 C  H  Rav=1.0648 sigma=0.0000  Rmin=1.0648  Rmax=1.0648     1
 C  C  Rav=1.3807 sigma=0.0000  Rmin=1.3807  Rmax=1.3807     1
 N  C  Rav=1.3662 sigma=0.0720  Rmin=1.2826  Rmax=1.4584     3

 selected bond angles (degree)
 --------------------
C4-C1-N2= 64.36                H5-C1-N2=136.35                H5-C1-C4=159.28                C3-N2-C1=149.77                
C4-N2-C1= 58.59                C4-N2-C3=150.90                N2-C4-C1= 57.05                

 selected dihedral angles (degree)
 ---------------------------------
C3-N2-C1-C4=189.75            C3-N2-C1-H5=  8.86            C4-N2-C1-H5=179.11            N2-C4-C1-H5=181.73            
C1-C4-N2-C3=169.90            
           -------------------------------------------------
          |                Final Singlepoint                |
           -------------------------------------------------

          ...................................................
          :                      SETUP                      :
          :.................................................:
          :  # basis functions                  17          :
          :  # atomic orbitals                  17          :
          :  # shells                            9          :
          :  # electrons                        18          :
          :  max. iterations                   250          :
          :  Hamiltonian                  GFN2-xTB          :
          :  restarted?                      false          :
          :  GBSA solvation                  false          :
          :  PC potential                    false          :
          :  electronic temp.          300.0000000     K    :
          :  accuracy                    1.0000000          :
          :  -> integral cutoff          0.2500000E+02      :
          :  -> integral neglect         0.1000000E-07      :
          :  -> SCF convergence          0.1000000E-05 Eh   :
          :  -> wf. convergence          0.1000000E-03 e    :
          :  Broyden damping             0.4000000          :
          ...................................................

 iter      E             dE          RMSdq      gap      omega  full diag
   1     -9.6150644 -0.961506E+01  0.534E-06    0.65       0.0  T
   2     -9.6150644  0.888178E-14  0.346E-06    0.65   12939.0  T
   3     -9.6150644  0.710543E-14  0.331E-06    0.65   13497.8  T

   *** convergence criteria satisfied after 3 iterations ***

         #    Occupation            Energy/Eh            Energy/eV
      -------------------------------------------------------------
         1        2.0000           -0.7428569             -20.2142
       ...           ...                  ...                  ...
         4        2.0000           -0.5856598             -15.9366
         5        2.0000           -0.5811151             -15.8129
         6        2.0000           -0.5294823             -14.4079
         7        2.0000           -0.4550858             -12.3835
         8        2.0000           -0.4496786             -12.2364
         9        1.0000           -0.4201854             -11.4338
        10        1.0000           -0.3204001              -8.7185 (HOMO)
        11        0.0000           -0.2965464              -8.0694 (LUMO)
        12                         -0.2481378              -6.7522
        13                         -0.0857346              -2.3330
        14                          0.0172971               0.4707
        15                          0.0729787               1.9859
       ...                                ...                  ...
        17                          0.6418112              17.4646
      -------------------------------------------------------------
                  HL-Gap            0.0238538 Eh            0.6491 eV
             Fermi-level           -0.3717018 Eh          -10.1145 eV

 transition dipole moment (au) for excitation:           9          10
     X       Y       Z   
   0.0411  -0.0225  -0.0249  total (au/Debye):    0.053   0.135
 dE (eV)             :    2.715
 oscillator strength :  0.26495E-03

 SCC (total)                   0 d,  0 h,  0 min,  0.003 sec
 SCC setup                      ...        0 min,  0.000 sec (  1.420%)
 Dispersion                     ...        0 min,  0.000 sec (  0.361%)
 integral evaluation            ...        0 min,  0.001 sec ( 29.264%)
 zeroth order Hamiltonian       ...        0 min,  0.000 sec (  0.375%)
 iterations                     ...        0 min,  0.000 sec ( 14.687%)
 molecular gradient             ...        0 min,  0.001 sec ( 29.993%)
 printout                       ...        0 min,  0.001 sec ( 23.635%)

         :::::::::::::::::::::::::::::::::::::::::::::::::::::
         ::                     SUMMARY                     ::
         :::::::::::::::::::::::::::::::::::::::::::::::::::::
         :: total energy              -9.487407119496 Eh    ::
         :: gradient norm              0.000583351118 Eh/a0 ::
         :: HOMO-LUMO gap              0.649094033413 eV    ::
         ::.................................................::
         :: SCC energy                -9.615064444177 Eh    ::
         :: -> isotropic ES           -0.015652703772 Eh    ::
         :: -> anisotropic ES          0.000254671479 Eh    ::
         :: -> anisotropic XC          0.010595298081 Eh    ::
         :: -> dispersion             -0.002216554739 Eh    ::
         :: repulsion energy           0.127657248786 Eh    ::
         :: add. restraining           0.000000000000 Eh    ::
         :::::::::::::::::::::::::::::::::::::::::::::::::::::

           ------------------------------------------------- 
          |                Numerical Hessian                |
           ------------------------------------------------- 
step length          :   0.00500
SCC accuracy         :   0.30000
Hessian scale factor :   1.00000
frozen atoms in %    :   0.00000    0
RMS gradient         :   0.00058
estimated CPU  time      0.00 min
estimated wall time      0.00 min

writing file <hessian>.

 projected vibrational frequencies (cm-1)
eigval :       -0.00    -0.00     0.00     0.00     0.00     0.00
eigval :       86.32   376.23   575.00   667.91   840.43  1012.06
eigval :     1423.35  1569.62  3203.78
           -------------------------------------------------
          |                Property Printout                |
           -------------------------------------------------

    * Orbital Energies and Occupations

         #    Occupation            Energy/Eh            Energy/eV
      -------------------------------------------------------------
         1        2.0000           -0.7428570             -20.2142
         2        2.0000           -0.6807547             -18.5243
         3        2.0000           -0.6314068             -17.1815
         4        2.0000           -0.5856598             -15.9366
         5        2.0000           -0.5811152             -15.8129
         6        2.0000           -0.5294823             -14.4079
         7        2.0000           -0.4550858             -12.3835
         8        2.0000           -0.4496786             -12.2364
         9        1.0000           -0.4201855             -11.4338
        10        1.0000           -0.3204001              -8.7185 (HOMO)
        11        0.0000           -0.2965464              -8.0694 (LUMO)
        12                         -0.2481378              -6.7522
        13                         -0.0857346              -2.3330
        14                          0.0172971               0.4707
        15                          0.0729787               1.9859
        16                          0.4869261              13.2499
        17                          0.6418112              17.4646
      -------------------------------------------------------------
                  HL-Gap            0.0238537 Eh            0.6491 eV
             Fermi-level           -0.3717018 Eh          -10.1145 eV

     #   Z        covCN         q      C6AA      α(0)
     1   6 C      2.819     0.080    26.198     8.387
     2   7 N      2.727     0.156    18.608     6.407
     3   6 C      0.912    -0.204    42.254    10.879
     4   6 C      1.888    -0.120    34.462     9.481
     5   1 H      0.927     0.087     1.906     2.159

 Mol. C6AA /au·bohr⁶  :        536.370907
 Mol. C8AA /au·bohr⁸  :      14161.569501
 Mol. α(0) /au        :         37.312789


Wiberg/Mayer (AO) data.
largest (>0.10) Wiberg bond orders for each atom
          total WBO             WBO to atom ...
     1  C   3.493        C    4 1.362    N    2 1.146    H    5 0.954
     2  N   3.560        C    3 1.504    C    1 1.146    C    4 0.904
     3  C   1.590        N    2 1.504
     4  C   2.347        C    1 1.362    N    2 0.904
     5  H   0.989        C    1 0.954

MOs/occ written to file <molden.input>


molecular dipole:
                 x           y           z       tot (Debye)
 q only:        0.814       0.154      -0.012
   full:        1.399      -0.042      -0.045       3.559
molecular quadrupole (traceless):
                xx          xy          yy          xz          yz          zz
 q only:        0.546      -1.467      -1.519       0.037      -0.026       0.972
  q+dip:        1.734      -3.274      -4.347       0.167      -0.023       2.613
   full:        0.362      -3.070      -5.462       0.161      -0.086       5.101

           -------------------------------------------------
          |                Geometry Summary                 |
           -------------------------------------------------

      molecular mass/u    :       51.0468517
   center of mass at/Å    :       -0.3801280       0.0153902      -0.0070338
  moments of inertia/u·Å² :        0.1426276E+02   0.5345056E+02   0.6765502E+02
rotational constants/cm⁻¹ :        0.1181933E+01   0.3153874E+00   0.2491705E+00

 * 3 selected distances

     #   Z        #   Z                                     value/Å
     1   6 C      2   7 N                                 1.3576024 (max)
     2   7 N      3   6 C                                 1.2826156
     1   6 C      5   1 H                                 1.0648369 (min)

 * 2 distinct bonds (by element types)

   Z      Z             #   av. dist./Å        max./Å        min./Å
   1 H    6 C           1     1.0648369     1.0648369     1.0648369
   6 C    7 N           2     1.3201090     1.3576024     1.2826156

           -------------------------------------------------
          |               Frequency Printout                |
Molecule has no symmetry elements
It seems to be the C1 point group
           -------------------------------------------------
 projected vibrational frequencies (cm-1)
eigval :       -0.00    -0.00     0.00     0.00     0.00     0.00
eigval :       86.32   376.23   575.00   667.91   840.43  1012.06
eigval :     1423.35  1569.62  3203.78
 reduced masses (amu)
   1: 11.24   2: 12.08   3: 12.46   4: 12.32   5: 12.36   6:  9.61   7: 13.08   8: 11.98
   9:  4.00  10: 12.09  11:  3.48  12: 11.74  13: 12.07  14: 12.64  15:  2.00
 IR intensities (amu)
   1:  0.26   2:  0.06   3:  0.06   4:  0.08   5:  0.08   6:  0.39   7:  0.66   8:  0.45
   9:  0.08  10:  0.16  11:  0.11  12:  0.08  13:  0.14  14:  0.20  15:  0.03
 Raman intensities (amu)
   1:  0.00   2:  0.00   3:  0.00   4:  0.00   5:  0.00   6:  0.00   7:  0.00   8:  0.00
   9:  0.00  10:  0.00  11:  0.00  12:  0.00  13:  0.00  14:  0.00  15:  0.00
 output can be read by thermo (or use thermo option).
 writing <g98.out> molden fake output.
 recommended (thermochemical) frequency scaling factor: 1.0
           -------------------------------------------------
          |             Thermodynamic Functions             |
           -------------------------------------------------

c1  symmetry found (for desy threshold:  0.10E+00) used in thermo

          ...................................................
          :                      SETUP                      :
          :.................................................:
          :  # frequencies                           9      :
          :  # imaginary freq.                       0      :
          :  linear?                             false      :
          :  only rotor calc.                    false      :
          :  symmetry                               c1      :
          :  rotational number                       1      :
          :  scaling factor                  1.0000000      :
          :  rotor cutoff                   50.0000000 cm⁻¹ :
          :  imag. cutoff                  -20.0000000 cm⁻¹ :
          :.................................................:

    mode    ω/cm⁻¹     T·S(HO)/kcal·mol⁻¹    T·S(FR)/kcal·mol⁻¹   T·S(vib)
   ------------------------------------------------------------------------
       1     86.32    -0.00000 ( 89.88%)     0.00376 ( 10.12%)     0.00038
   ------------------------------------------------------------------------

   temp. (K)  partition function   enthalpy   heat capacity  entropy
                                   cal/mol     cal/K/mol   cal/K/mol   J/K/mol
 298.15  VIB   4.00                  946.278      6.564      5.853
         ROT  0.173E+05              888.752      2.981     22.379
         INT  0.694E+05             1835.030      9.545     28.232
         TR   0.353E+27             1481.254      4.968     37.697
         TOT                        3316.2840    14.5129    65.9288   275.8459

   temp. (K)  partition function   enthalpy   heat capacity  entropy
                                   cal/mol     cal/K/mol   cal/K/mol   J/K/mol
 120.00  VIB   1.57                  150.351      2.422      2.159
         ROT  0.443E+04              357.707      2.981     19.666
         INT  0.696E+04              508.058      5.403     21.825
         TR   0.901E+26              596.178      4.968     33.177
         TOT                        1104.2355    10.3707    55.0021   230.1289

   temp. (K)  partition function   enthalpy   heat capacity  entropy
                                   cal/mol     cal/K/mol   cal/K/mol   J/K/mol
 100.00  VIB   1.41                  105.607      2.061      1.766
         ROT  0.337E+04              298.089      2.981     19.123
         INT  0.476E+04              403.696      5.042     20.889
         TR   0.685E+26              496.815      4.968     32.272
         TOT                         900.5115    10.0102    53.1610   222.4255

   temp. (K)  partition function   enthalpy   heat capacity  entropy
                                   cal/mol     cal/K/mol   cal/K/mol   J/K/mol
  80.00  VIB   1.27                   67.595      1.746      1.359
         ROT  0.241E+04              238.471      2.981     18.458
         INT  0.306E+04              306.067      4.727     19.817
         TR   0.490E+26              397.452      4.968     31.164
         TOT                         703.5185     9.6948    50.9807   213.3031

   temp. (K)  partition function   enthalpy   heat capacity  entropy
                                   cal/mol     cal/K/mol   cal/K/mol   J/K/mol
  60.00  VIB   1.14                   35.773      1.427      0.919
         ROT  0.157E+04              178.853      2.981     17.600
         INT  0.179E+04              214.627      4.408     18.519
         TR   0.319E+26              298.089      4.968     29.735
         TOT                         512.7157     9.3762    48.2544   201.8965

   temp. (K)  partition function   enthalpy   heat capacity  entropy
                                   cal/mol     cal/K/mol   cal/K/mol   J/K/mol
  40.00  VIB   1.05                   11.584      0.942      0.443
         ROT   853.                  119.236      2.981     16.391
         INT   893.                  130.819      3.923     16.835
         TR   0.173E+26              198.726      4.968     27.722
         TOT                         329.5452     8.8908    44.5563   186.4237

   temp. (K)  partition function   enthalpy   heat capacity  entropy
                                   cal/mol     cal/K/mol   cal/K/mol   J/K/mol
  20.00  VIB   1.00                    0.497      0.155      0.057
         ROT   301.                   59.618      2.981     14.325
         INT   302.                   60.115      3.135     14.382
         TR   0.613E+25               99.363      4.968     24.280
         TOT                         159.4777     8.1036    38.6619   161.7615

   temp. (K)  partition function   enthalpy   heat capacity  entropy
                                   cal/mol     cal/K/mol   cal/K/mol   J/K/mol
  10.00  VIB   1.00                    0.001      0.001     -0.039
         ROT   107.                   29.809      2.981     12.259
         INT   107.                   29.810      2.982     12.220
         TR   0.217E+25               49.681      4.968     20.838
         TOT                          79.4914     7.9503    33.0580   138.3145

       T/K    H(0)-H(T)+PV         H(T)/Eh          T*S/Eh         G(T)/Eh
   ------------------------------------------------------------------------
    298.15    0.528483E-02    0.275077E-01    0.313249E-01   -0.381722E-02
    120.00    0.175971E-02    0.239825E-01    0.105182E-01    0.134644E-01
    100.00    0.143506E-02    0.236579E-01    0.847174E-02    0.151861E-01
     80.00    0.112113E-02    0.233440E-01    0.649943E-02    0.168445E-01
     60.00    0.817065E-03    0.230399E-01    0.461390E-02    0.184260E-01
     40.00    0.525164E-03    0.227480E-01    0.284020E-02    0.199078E-01
     20.00    0.254144E-03    0.224770E-01    0.123223E-02    0.212447E-01
     10.00    0.126678E-03    0.223495E-01    0.526812E-03    0.218227E-01 (used)
   ------------------------------------------------------------------------

         :::::::::::::::::::::::::::::::::::::::::::::::::::::
         ::                  THERMODYNAMIC                  ::
         :::::::::::::::::::::::::::::::::::::::::::::::::::::
         :: total free energy          -9.465584427741 Eh   ::
         ::.................................................::
         :: total energy               -9.487407119639 Eh   ::
         :: zero point energy           0.022222826310 Eh   ::
         :: G(RRHO) w/o ZPVE           -0.000400134411 Eh   ::
         :: G(RRHO) contrib.            0.021822691898 Eh   ::
         :::::::::::::::::::::::::::::::::::::::::::::::::::::

optimized geometry written to: xtbopt.xyz


           -------------------------------------------------
          | TOTAL ENERGY               -9.487407119639 Eh   |
          | TOTAL ENTHALPY             -9.465057615726 Eh   |
          | TOTAL FREE ENERGY          -9.465584427741 Eh   |
          | GRADIENT NORM               0.000583372276 Eh/α |
          | HOMO-LUMO GAP               0.649091030463 eV   |
           -------------------------------------------------

------------------------------------------------------------------------
 * finished run on 2020/05/12 at 11:44:51.541     
------------------------------------------------------------------------
 total:
 * wall-time:     0 d,  0 h,  0 min,  0.176 sec
 *  cpu-time:     0 d,  0 h,  0 min,  0.176 sec
 * ratio c/w:     0.999 speedup
 SCF:
 * wall-time:     0 d,  0 h,  0 min,  0.006 sec
 *  cpu-time:     0 d,  0 h,  0 min,  0.006 sec
 * ratio c/w:     0.999 speedup
 ANC optimizer:
 * wall-time:     0 d,  0 h,  0 min,  0.077 sec
 *  cpu-time:     0 d,  0 h,  0 min,  0.077 sec
 * ratio c/w:     0.999 speedup
 numerical hessian:
 * wall-time:     0 d,  0 h,  0 min,  0.076 sec
 *  cpu-time:     0 d,  0 h,  0 min,  0.076 sec
 * ratio c/w:     0.999 speedup

