$hessian                                                                        
        0.8207191158  -0.2029347931   0.0137724320  -0.2653776549  -0.1513116654
       -0.0179738745  -0.0419777367  -0.0400581847   0.0013052966  -0.2231902652
        0.2801346462   0.0082859252  -0.2901734591   0.1141699971  -0.0053897792
       -0.2029347931   0.3577257169   0.0043713070  -0.0990258720  -0.0842621383
       -0.0012149418  -0.0242353536  -0.0085769480  -0.0022756867   0.2184916954
       -0.1922909075  -0.0034786186   0.1077043233  -0.0725957231   0.0025979400
        0.0137724320   0.0043713070   0.0358414098  -0.0100156699  -0.0021931867
       -0.0100325764  -0.0021441426  -0.0038299001   0.0019656253   0.0025724814
       -0.0000016024  -0.0096863674  -0.0041851009   0.0016533821  -0.0180880914
       -0.2653776549  -0.0990258720  -0.0100156699   0.4905823116   0.3513245740
       -0.0057461558  -0.1767009532  -0.1880438784   0.0149764953  -0.0351069831
       -0.0563819605   0.0014389825  -0.0133967205  -0.0078728632  -0.0006536522
       -0.1513116654  -0.0842621383  -0.0021931867   0.3513245740   0.4569481771
       -0.0108904755  -0.1847931360  -0.2487769189   0.0171142336  -0.0257283942
       -0.1302054526  -0.0041889624   0.0105086215   0.0062963327   0.0001583910
       -0.0179738745  -0.0012149418  -0.0100325764  -0.0057461558  -0.0108904755
        0.0082175999   0.0226866269   0.0282225055  -0.0032975350   0.0018336817
       -0.0155815478   0.0007486932  -0.0008002783  -0.0005355404   0.0043638182
       -0.0419777367  -0.0242353536  -0.0021441426  -0.1767009532  -0.1847931360
        0.0226866269   0.2181297438   0.2412632496  -0.0145830362   0.0025855183
       -0.0297806334  -0.0054071540  -0.0020365722  -0.0024541266  -0.0005522941
       -0.0400581847  -0.0085769480  -0.0038299001  -0.1880438784  -0.2487769189
        0.0282225055   0.2412632496   0.3152759057  -0.0178465282  -0.0117926684
       -0.0569211806  -0.0058105381  -0.0013685181  -0.0010008581  -0.0007355391
        0.0013052966  -0.0022756867   0.0019656253   0.0149764953   0.0171142336
       -0.0032975350  -0.0145830362  -0.0178465282   0.0018495167  -0.0020136838
        0.0028629405   0.0002393152   0.0003149281   0.0001450409  -0.0007569223
       -0.2231902652   0.2184916954   0.0025724814  -0.0351069831  -0.0257283942
        0.0018336817   0.0025855183  -0.0117926684  -0.0020136838   0.2645869888
       -0.1934773725  -0.0039045175  -0.0088752589   0.0125067396   0.0015120381
        0.2801346462  -0.1922909075  -0.0000016024  -0.0563819605  -0.1302054526
       -0.0155815478  -0.0297806334  -0.0569211806   0.0028629405  -0.1934773725
        0.3821584396   0.0133255452  -0.0004946797  -0.0027408988  -0.0006053355
        0.0082859252  -0.0034786186  -0.0096863674   0.0014389825  -0.0041889624
        0.0007486932  -0.0054071540  -0.0058105381   0.0002393152  -0.0039045175
        0.0133255452   0.0036104819  -0.0004132363   0.0001525738   0.0050878770
       -0.2901734591   0.1077043233  -0.0041851009  -0.0133967205   0.0105086215
       -0.0008002783  -0.0020365722  -0.0013685181   0.0003149281  -0.0088752589
       -0.0004946797  -0.0004132363   0.3144820107  -0.1163497470   0.0050836874
        0.1141699971  -0.0725957231   0.0016533821  -0.0078728632   0.0062963327
       -0.0005355404  -0.0024541266  -0.0010008581   0.0001450409   0.0125067396
       -0.0027408988   0.0001525738  -0.1163497470   0.0700411474  -0.0014154564
       -0.0053897792   0.0025979400  -0.0180880914  -0.0006536522   0.0001583910
        0.0043638182  -0.0005522941  -0.0007355391  -0.0007569223   0.0015120381
       -0.0006053355   0.0050878770   0.0050836874  -0.0014154564   0.0093933185
