5
 energy: -11.043326573578 gnorm: 0.000688406883 xtb: 6.2.2 (9d81278992624c895f80dd42a50cac0aa55982e2)
C        -0.47241107073683    0.79547180778946    0.04732500283002
N         0.72940395045955   -0.02833857135670    0.01914302904528
C        -0.53370286055516   -0.75156457031794    0.09245357799868
C         1.93736642471664   -0.07983935702129   -0.10734737880703
C        -1.66065644388071    0.06427069090821   -0.05157323106695
