$hessian                                                                        
        0.5874297358  -0.2219108135   0.0008442462  -0.5026870964   0.1795262044
        0.0013956455  -0.0453115937   0.0373249727  -0.0013187031  -0.0422407608
        0.0062575729  -0.0010082767   0.0028097150  -0.0011979366   0.0000870881
       -0.2219108135   0.0958644792  -0.0003376818   0.1880500994  -0.0785256976
       -0.0005362463   0.0105847068  -0.0059350192   0.0005243630   0.0252161226
       -0.0116001239   0.0004141647  -0.0019401153   0.0001963615  -0.0000645997
        0.0008442462  -0.0003376818   0.0006186987  -0.0001676152   0.0001499242
       -0.0009854433  -0.0002890355   0.0004465126  -0.0012525037  -0.0003878640
       -0.0002842949   0.0007895694   0.0000002685   0.0000255398   0.0008296789
       -0.5026870964   0.1880500994  -0.0001676152   0.8047075230  -0.2301121469
        0.0023629415  -0.2517750513  -0.1106057722  -0.0016045214  -0.0324284451
        0.1463540970  -0.0003488524  -0.0178169302   0.0063137227  -0.0002419524
        0.1795262044  -0.0785256976   0.0001499242  -0.2301121469   0.1693330709
       -0.0006177320   0.0083711506   0.0015476711  -0.0004742318   0.0538269179
       -0.0956584477   0.0009739639  -0.0116121261   0.0033034033  -0.0000319243
        0.0013956455  -0.0005362463  -0.0009854433   0.0023629415  -0.0006177320
        0.0024595199  -0.0029178166  -0.0016668121  -0.0038242238  -0.0006269065
        0.0027914997   0.0006411407  -0.0002138640   0.0000292908   0.0017090064
       -0.0453115937   0.0105847068  -0.0002890355  -0.2517750513   0.0083711506
       -0.0029178166   0.5291154337   0.3762417929   0.0046112411  -0.0748398238
       -0.2387666159   0.0003061447  -0.1571889649  -0.1564310344  -0.0017105337
        0.0373249727  -0.0059350192   0.0004465126  -0.1106057722   0.0015476711
       -0.0016668121   0.3762417929   0.6693481824   0.0026500840  -0.1519435052
       -0.4583591710   0.0004051210  -0.1510174882  -0.2066016633  -0.0018349054
       -0.0013187031   0.0005243630  -0.0012525037  -0.0016045214  -0.0004742318
       -0.0038242238   0.0046112411   0.0026500840   0.0435357482  -0.0001082524
       -0.0008701666  -0.0152638714  -0.0015797642  -0.0018300487  -0.0231951494
       -0.0422407608   0.0252161226  -0.0003878640  -0.0324284451   0.0538269179
       -0.0006269065  -0.0748398238  -0.1519435052  -0.0001082524   0.1472638866
        0.0871202097   0.0011008473   0.0022451431  -0.0142197451   0.0000221755
        0.0062575729  -0.0116001239  -0.0002842949   0.1463540970  -0.0956584477
        0.0027914997  -0.2387666159  -0.4583591710  -0.0008701666   0.0871202097
        0.5785766580  -0.0016713225  -0.0009652637  -0.0129589155   0.0000342842
       -0.0010082767   0.0004141647   0.0007895694  -0.0003488524   0.0009739639
        0.0006411407   0.0003061447   0.0004051210  -0.0152638714   0.0011008473
       -0.0016713225   0.0055963938  -0.0000498628  -0.0001219272   0.0082367675
        0.0028097150  -0.0019401153   0.0000002685  -0.0178169302  -0.0116121261
       -0.0002138640  -0.1571889649  -0.1510174882  -0.0015797642   0.0022451431
       -0.0009652637  -0.0000498628   0.1699510371   0.1655349933   0.0018432224
       -0.0011979366   0.0001963615   0.0000255398   0.0063137227   0.0033034033
        0.0000292908  -0.1564310344  -0.2066016633  -0.0018300487  -0.0142197451
       -0.0129589155  -0.0001219272   0.1655349933   0.2160608141   0.0018971452
        0.0000870881  -0.0000645997   0.0008296789  -0.0002419524  -0.0000319243
        0.0017090064  -0.0017105337  -0.0018349054  -0.0231951494   0.0000221755
        0.0000342842   0.0082367675   0.0018432224   0.0018971452   0.0124196965
