5
 energy: -8.596638870526 gnorm: 0.248709300723 xtb: 6.2.2 (9d81278992624c895f80dd42a50cac0aa55982e2)
C         1.48957400000000   -0.60658300000000   -0.30638200000000
C         0.63276500000000    0.30598200000000    0.55439300000000
C        -0.84902200000000   -0.01539800000000    0.40117700000000
C        -0.24479600000000    1.16243800000000   -0.33374400000000
H        -1.02852200000000   -0.84643800000000   -0.31544400000000
5
 energy: -8.664993941114 gnorm: 0.160714178757 xtb: 6.2.2 (9d81278992624c895f80dd42a50cac0aa55982e2)
C         1.49762427767260   -0.56888630160052   -0.22628404129354
C         0.66608954619679    0.26250008035757    0.44458753115115
C        -0.80742273064316   -0.00974257117323    0.32357877431543
C        -0.25875221719903    1.19199681623595   -0.26512420979533
H        -1.09753987602721   -0.87586702381977   -0.27675805437771
5
 energy: -8.692834551516 gnorm: 0.228319768216 xtb: 6.2.2 (9d81278992624c895f80dd42a50cac0aa55982e2)
C         1.54861227046256   -0.51436531069974   -0.13389917611422
C         0.71112205105599    0.17017401983162    0.30703449657987
C        -0.78325653175623    0.04133001287441    0.20387126846609
C        -0.30260655366184    1.19586896586544   -0.16927165665193
H        -1.17387223610048   -0.89300668787173   -0.20773493227981
5
 energy: -8.714454788045 gnorm: 0.073253918235 xtb: 6.2.2 (9d81278992624c895f80dd42a50cac0aa55982e2)
C         1.73553506324884   -0.55635932120503   -0.10463003250480
C         0.69678043693270    0.15120054502194    0.22619994750354
C        -0.80444059295814    0.05028936027983    0.15939385126531
C        -0.35394620406080    1.25102107747575   -0.11370610351677
H        -1.27392970316260   -0.89615066157249   -0.16725766274729
5
 energy: -8.719382399576 gnorm: 0.048885704286 xtb: 6.2.2 (9d81278992624c895f80dd42a50cac0aa55982e2)
C         1.74732986399062   -0.53134992997593   -0.09428628455011
C         0.69597798581824    0.13928951214664    0.21060672573239
C        -0.79678301352753    0.03721428221309    0.11776468584339
C        -0.33450897659019    1.25928109228922   -0.09855863457897
H        -1.31201685969113   -0.90443395667302   -0.13552649244670
5
 energy: -8.725489230341 gnorm: 0.025100903313 xtb: 6.2.2 (9d81278992624c895f80dd42a50cac0aa55982e2)
C         1.78813405160399   -0.47537493364846   -0.06088399711784
C         0.68957582599251    0.11039286739814    0.16486660334223
C        -0.76812865831968   -0.00279788361322    0.04848436345998
C        -0.31973434762255    1.22118080464466   -0.07383316773969
H        -1.38984787165428   -0.85339985478113   -0.07863380194468
5
 energy: -8.726368807406 gnorm: 0.036464259736 xtb: 6.2.2 (9d81278992624c895f80dd42a50cac0aa55982e2)
C         1.86011069341159   -0.42660742723462   -0.04167633247740
C         0.67457708685087    0.06514620206714    0.12155581968049
C        -0.76838076391379   -0.01154269475014   -0.02435027659997
C        -0.29219050587748    1.23271275705132   -0.04374638505059
H        -1.47411751047119   -0.85970783713370   -0.01178282555253
5
 energy: -8.727012537602 gnorm: 0.028501704298 xtb: 6.2.2 (9d81278992624c895f80dd42a50cac0aa55982e2)
C         1.82230137595200   -0.45528864193564   -0.04187553816486
C         0.67073726114191    0.07785449132948    0.11632296687947
C        -0.77065106197967   -0.01595800912938   -0.01654137270327
C        -0.30608390661346    1.24370105094066   -0.04025301290302
H        -1.41630466850078   -0.85030789120513   -0.01765304310833
5
 energy: -8.727348007835 gnorm: 0.015426773511 xtb: 6.2.2 (9d81278992624c895f80dd42a50cac0aa55982e2)
C         1.84302831447867   -0.43557810874006   -0.04046505666100
C         0.67555817143522    0.07058418722674    0.12116351727449
C        -0.76944359529541   -0.01597737198506   -0.00360151077742
C        -0.30351965303845    1.21707237763577   -0.05137472213132
H        -1.44562423758003   -0.83610008413738   -0.02572222770475
5
 energy: -8.727532209040 gnorm: 0.007528523282 xtb: 6.2.2 (9d81278992624c895f80dd42a50cac0aa55982e2)
C         1.84894153391973   -0.43083903002131   -0.03411180753187
C         0.67369563627589    0.06485514166140    0.10908282582465
C        -0.76698161029325   -0.01983990624704   -0.02043370015984
C        -0.30050701014044    1.22427819340056   -0.04214261190390
H        -1.45514954976194   -0.83845339879361   -0.01239470622904
5
 energy: -8.727579082358 gnorm: 0.005409692147 xtb: 6.2.2 (9d81278992624c895f80dd42a50cac0aa55982e2)
C         1.85125409697145   -0.42768164244745   -0.03184896563114
C         0.67236163387717    0.06030788769905    0.10367431347718
C        -0.76880437120114   -0.02056647368834   -0.02272382037188
C        -0.29958388488192    1.22311849402507   -0.04056606020537
H        -1.45522847476557   -0.83517726558833   -0.00853546726879
5
 energy: -8.727628468623 gnorm: 0.003280280381 xtb: 6.2.2 (9d81278992624c895f80dd42a50cac0aa55982e2)
C         1.85683752061946   -0.42013859576828   -0.02594458020840
C         0.67258000986662    0.05356795916700    0.09392877713444
C        -0.76935067107436   -0.02311006961609   -0.02450308345477
C        -0.29801325465696    1.21922873242935   -0.03870059032406
H        -1.46205460475476   -0.82954702621198   -0.00478052314721
5
 energy: -8.727654681937 gnorm: 0.003222388798 xtb: 6.2.2 (9d81278992624c895f80dd42a50cac0aa55982e2)
C         1.86340390433384   -0.41354380779839   -0.02141931517624
C         0.67176210195072    0.04685428932090    0.08544634059371
C        -0.77095493053431   -0.02393519189205   -0.02405986187479
C        -0.29592164097146    1.21692707082333   -0.03770880626189
H        -1.46829043477878   -0.82630136045379   -0.00225835728078
5
 energy: -8.727683517493 gnorm: 0.003321131980 xtb: 6.2.2 (9d81278992624c895f80dd42a50cac0aa55982e2)
C         1.86709058665407   -0.40828099417954   -0.01630925111437
C         0.67118774253045    0.04197083458326    0.07637891274996
C        -0.77177880905097   -0.02461543471516   -0.01935910685334
C        -0.29365659785810    1.21574111321422   -0.03738454331206
H        -1.47284392227545   -0.82481451890278   -0.00332601147020
5
 energy: -8.727704428063 gnorm: 0.002387598314 xtb: 6.2.2 (9d81278992624c895f80dd42a50cac0aa55982e2)
C         1.87021596890014   -0.40629220057405   -0.01150354155376
C         0.66979163017571    0.03877549232469    0.06703531615301
C        -0.77230573781712   -0.02456066230133   -0.01354882694835
C        -0.29280084437291    1.21665024497572   -0.03636521280805
H        -1.47490201688583   -0.82457187442503   -0.00561773484285
5
 energy: -8.727715818286 gnorm: 0.002422493556 xtb: 6.2.2 (9d81278992624c895f80dd42a50cac0aa55982e2)
C         1.86887578883228   -0.40796675136875   -0.00932537412830
C         0.66870060668704    0.03960452075011    0.06207792078157
C        -0.77219210960393   -0.02368351311583   -0.00896299013543
C        -0.29269348679403    1.21845356489655   -0.03503060032216
H        -1.47269179912136   -0.82640682116207   -0.00875895619568
5
 energy: -8.727724126733 gnorm: 0.002176017634 xtb: 6.2.2 (9d81278992624c895f80dd42a50cac0aa55982e2)
C         1.86812008840877   -0.41044892555903   -0.00726543865998
C         0.66803666454206    0.04114227685875    0.05720265149634
C        -0.77206997341848   -0.02297107817791   -0.00708815018730
C        -0.29345455564185    1.21997708839460   -0.03236046335361
H        -1.47063322389049   -0.82769836151641   -0.01048859929544
5
 energy: -8.727737905412 gnorm: 0.002243361527 xtb: 6.2.2 (9d81278992624c895f80dd42a50cac0aa55982e2)
C         1.86602834766467   -0.41542184653707   -0.00361858308481
C         0.66742516830816    0.04515885929485    0.04814959817213
C        -0.77217709878720   -0.02161400939632   -0.00580575153109
C        -0.29476142960840    1.22212734781235   -0.02595173517169
H        -1.46651598757723   -0.83024935117380   -0.01277352838454
5
 energy: -8.727749267759 gnorm: 0.002351776354 xtb: 6.2.2 (9d81278992624c895f80dd42a50cac0aa55982e2)
C         1.86529461416920   -0.41875504737864    0.00090931681300
C         0.66757857842364    0.04835704600465    0.03785182127573
C        -0.77260311173150   -0.02097565389281   -0.00644873258203
C        -0.29573375142159    1.22296836160363   -0.01872907351038
H        -1.46453732943975   -0.83159370633684   -0.01358333199631
5
 energy: -8.727757856675 gnorm: 0.001545048611 xtb: 6.2.2 (9d81278992624c895f80dd42a50cac0aa55982e2)
C         1.86547893217723   -0.41968968386630    0.00576499324862
C         0.66825151149372    0.05001002714364    0.02759799457659
C        -0.77323346473985   -0.02098300630927   -0.00804237664664
C        -0.29587616366181    1.22248161255004   -0.01205398169416
H        -1.46462181526928   -0.83181794951812   -0.01326662948440
5
 energy: -8.727761996272 gnorm: 0.001026548922 xtb: 6.2.2 (9d81278992624c895f80dd42a50cac0aa55982e2)
C         1.86742201081723   -0.41806234840882    0.01223909386833
C         0.66898120319226    0.04904763194468    0.01521095691121
C        -0.77372784610709   -0.02169576937634   -0.00885352536503
C        -0.29559682791674    1.22131569144307   -0.00603843025707
H        -1.46707953998565   -0.83060420560259   -0.01255809515743
5
 energy: -8.727762815906 gnorm: 0.000498215350 xtb: 6.2.2 (9d81278992624c895f80dd42a50cac0aa55982e2)
C         1.86658201920966   -0.41800167999594    0.01448430162086
C         0.66889817165895    0.04891757367554    0.01046906557042
C        -0.77341665924682   -0.02165784099824   -0.00553119772076
C        -0.29545739339976    1.22145865158823   -0.00576723167441
H        -1.46660713822203   -0.83071570426959   -0.01365493779611
