[Molden Format]
[Title]
[Atoms] AU
C      1     6  0.35273244377195E+01 -0.78992704280331E+00  0.27360426581653E-01
C      2     6  0.12640347854729E+01  0.92434224410799E-01  0.19779091221675E-01
C      3     6 -0.14615457813496E+01 -0.40919749747775E-01 -0.10447274675441E-01
C      4     6 -0.55832145544254E+00  0.23082250142708E+01 -0.10900567006633E-01
H      5     1 -0.27714938761164E+01 -0.15698105563947E+01 -0.25791676117955E-01
[GTO]
           1 0
 s           4   1.0000000000000000     
   51.049363095579913      -0.16312063210127389     
   8.7911227406887544      -0.19911024581000730     
  0.70640422258929825       0.31882047753655751     
  0.26922813413411617       0.12706504184240380     
 p           4   1.0000000000000000     
   5.8263656140800002       0.73716451545209605     
   1.5106896018720002       0.68216371614850257     
  0.53256483288000001       0.35783053929253711     
  0.21202323690600003        5.3983030275847881E-002

           2 0
 s           4   1.0000000000000000     
   51.049363095579913      -0.16312063210127389     
   8.7911227406887544      -0.19911024581000730     
  0.70640422258929825       0.31882047753655751     
  0.26922813413411617       0.12706504184240380     
 p           4   1.0000000000000000     
   5.8263656140800002       0.73716451545209605     
   1.5106896018720002       0.68216371614850257     
  0.53256483288000001       0.35783053929253711     
  0.21202323690600003        5.3983030275847881E-002

           3 0
 s           4   1.0000000000000000     
   51.049363095579913      -0.16312063210127389     
   8.7911227406887544      -0.19911024581000730     
  0.70640422258929825       0.31882047753655751     
  0.26922813413411617       0.12706504184240380     
 p           4   1.0000000000000000     
   5.8263656140800002       0.73716451545209605     
   1.5106896018720002       0.68216371614850257     
  0.53256483288000001       0.35783053929253711     
  0.21202323690600003        5.3983030275847881E-002

           4 0
 s           4   1.0000000000000000     
   51.049363095579913      -0.16312063210127389     
   8.7911227406887544      -0.19911024581000730     
  0.70640422258929825       0.31882047753655751     
  0.26922813413411617       0.12706504184240380     
 p           4   1.0000000000000000     
   5.8263656140800002       0.73716451545209605     
   1.5106896018720002       0.68216371614850257     
  0.53256483288000001       0.35783053929253711     
  0.21202323690600003        5.3983030275847881E-002

           5 0
 s           3   1.0000000000000000     
   3.3702276975336001       0.27359110588908298     
  0.61389118221497996       0.26460540653860526     
  0.16614291148415999        8.2465947534082318E-002

[MO]
Sym=     1a
Ene=  -0.70821068538032084     
Spin= Alpha
Occup=     2.00000000
           1   9.9358813656062472E-002
           2  -5.8664342477439464E-002
           3   2.1724144846220036E-002
           4  -4.1862784082762424E-004
           5  0.35791974268988513     
           6 -0.12792243274904488     
           7   4.7692950404720998E-002
           8  -2.0573132155076676E-003
           9  0.39263531176986227     
          10  0.15167386757384810     
          11  0.11217513264388702     
          12   1.1396837377210518E-003
          13  0.37177018576806653     
          14   1.7505243005554814E-002
          15 -0.15442102127231438     
          16   8.8461202065951902E-004
          17   6.0924763126246742E-002
Sym=     2a
Ene=  -0.66046485411785361     
Spin= Alpha
Occup=     2.00000000
           1 -0.55385012519864729     
           2  0.14320374091511662     
           3  -4.9613036728202678E-002
           4   5.0720810577295451E-004
           5 -0.35598196738869359     
           6 -0.28711867948130182     
           7  0.12018614351851030     
           8  -1.4770282099909248E-003
           9  0.16269554427314209     
          10  -5.1978316693426230E-002
          11   8.1949193866262302E-002
          12  -5.0492283378611653E-004
          13  0.15496630018199542     
          14  -7.0896272692919982E-002
          15  -2.9462825820706466E-002
          16  -3.1283344800291557E-004
          17   4.4965136626654911E-002
Sym=     3a
Ene=  -0.60152213917240194     
Spin= Alpha
Occup=     2.00000000
           1   4.6410929505203792E-002
           2  -2.3300247881675541E-002
           3  -5.8710083270846557E-002
           4  -6.7265195527435010E-005
           5  -2.1465714237723074E-002
           6  -5.0899184785354393E-002
           7 -0.23490702838427818     
           8  -1.0314279871326960E-004
           9  0.40170012654894982     
          10 -0.16028325199204854     
          11 -0.32080411417680971     
          12  -1.2360001087259932E-003
          13 -0.32298428550788660     
          14  -9.8348233859385847E-002
          15  -4.9968976438726075E-002
          16  -1.2489965468524384E-003
          17  0.39603037574162531     
Sym=     4a
Ene=  -0.55646565049560548     
Spin= Alpha
Occup=     2.00000000
           1  0.33746562346771536     
           2   9.9269213004012799E-002
           3   3.0697779712344012E-002
           4  -3.2196406161773733E-004
           5 -0.24492439865513310     
           6  0.28283112881727596     
           7   8.5845121718916825E-002
           8  -1.1119852700255343E-003
           9  0.13235992834533741     
          10 -0.41729836005463422     
          11  0.28283262408024695     
          12  -8.6148847325301942E-003
          13  0.34841422336691430     
          14 -0.26418542225348079     
          15   8.1857178399648386E-002
          16  -5.1779031946055671E-003
          17  0.13396832776737236     
Sym=     5a
Ene=  -0.52684119980757582     
Spin= Alpha
Occup=     2.00000000
           1   2.4305023623126419E-003
           2  -3.2847140155977978E-004
           3   3.7947472525918786E-004
           4  0.23570899552508401     
           5   1.1139834799751497E-003
           6  -1.9311696525271709E-003
           7   1.2775771733204964E-003
           8  0.50584441721746487     
           9   1.8164070517698589E-003
          10  -8.6061038597333144E-003
          11   3.5418519801409597E-003
          12  0.50027622508134240     
          13   1.3530566930704286E-003
          14  -6.5258282487901161E-003
          15   1.9562840962871891E-003
          16  0.38660740072453020     
          17   7.0962063988058645E-004
Sym=     6a
Ene=  -0.49670791110649160     
Spin= Alpha
Occup=     2.00000000
           1  0.16717776779662927     
           2  -9.4369361460649483E-003
           3 -0.32633580669351048     
           4  -1.6758658600158128E-004
           5 -0.11669079012656933     
           6 -0.14844061895653110     
           7 -0.47294756973156182     
           8  -8.8295849403214179E-004
           9   5.6498748147729191E-002
          10  0.17661289107888531     
          11  0.24836561051347947     
          12   1.5039290602535862E-003
          13 -0.11038480316226329     
          14 -0.40714103633374432     
          15 -0.13065624602465795     
          16  -4.0352406534623804E-003
          17 -0.30102705310412792     
Sym=     7a
Ene=  -0.44058595117416838     
Spin= Alpha
Occup=     1.99999974
           1 -0.56515212531544168     
           2 -0.64327091675337777     
           3  0.13716201190822225     
           4   3.8252864005538308E-003
           5  0.18169642473124306     
           6  0.18785843609716640     
           7 -0.17915967035346919     
           8   5.8919018142961719E-003
           9  -3.3537374987178806E-002
          10 -0.15484023204918004     
          11  0.10821227887972310     
          12  -7.2767110088020831E-003
          13   9.6936567267605578E-002
          14 -0.21621802070418952     
          15  0.12892467648996775     
          16  -7.0066962900410699E-003
          17   2.9353298584767302E-003
Sym=     8a
Ene=  -0.43535129842487813     
Spin= Alpha
Occup=     1.99993575
           1  -8.4031915112518757E-002
           2   2.8079694902032461E-002
           3  0.34166884391716124     
           4   7.4994289704879288E-005
           5   3.0751034873895741E-002
           6  0.12989755357159363     
           7  0.22131328320023272     
           8   3.4483903933907897E-004
           9  0.11605235504068098     
          10 -0.11036644773438269     
          11  0.25546446960157521     
          12  -2.7152217151743224E-003
          13 -0.57185805925353583     
          14 -0.11621135384287350     
          15 -0.59030385404906283     
          16   4.6414747668952741E-004
          17 -0.11454933265284384     
Sym=     9a
Ene=  -0.41701438783366662     
Spin= Alpha
Occup=     1.00006451
           1  -5.3243049470261851E-003
           2  -5.5534953515872882E-003
           3   1.8994187182353117E-003
           4 -0.65834338676873416     
           5   3.5218229060722842E-004
           6   4.8186072250610669E-003
           7  -2.0867225187106691E-003
           8 -0.38866237496859468     
           9   1.0745560738975345E-004
          10  -7.6510050864988391E-003
          11   2.3888156927917396E-003
          12  0.44993751490920203     
          13   2.3229502598958677E-004
          14  -6.0328401361580235E-003
          15   3.0859698961485031E-003
          16  0.36754427949214624     
          17  -1.2973525186925621E-004
Sym=    10a
Ene=  -0.32473575995381992     
Spin= Alpha
Occup=     0.00000000
           1  -5.8688918769499799E-003
           2 -0.29060709630744602     
           3 -0.76749660241741813     
           4  -3.2201690871153289E-004
           5   2.5193418418549400E-003
           6   7.8939709818194148E-002
           7  0.21873790837572910     
           8   1.5675992621449068E-004
           9  -7.9965949593568134E-002
          10 -0.30852991484135345     
          11  0.18329286219165913     
          12  -5.4127195937323201E-003
          13  -8.5026238689847974E-002
          14  0.39359649395889496     
          15 -0.28808287925902931     
          16   7.3003244855174175E-003
          17   8.6595942666055206E-002
Sym=    11a
Ene=  -0.27030349457422209     
Spin= Alpha
Occup=     0.00000000
           1  -4.9624614674185463E-005
           2   4.9681882432132366E-004
           3   1.4865573001115156E-003
           4   3.6279506997005224E-002
           5  -1.1414898081624866E-004
           6   5.4668289031414488E-006
           7  -5.6768421714522850E-004
           8  -2.6718617650799983E-002
           9  -1.6263756159607284E-003
          10   9.9794001313257916E-003
          11  -2.5171634142322737E-003
          12 -0.72341653477901779     
          13  -1.5532790292618789E-004
          14  -1.1020126099063039E-002
          15   3.6615549480738148E-003
          16  0.86196479677059967     
          17   1.1723062729888161E-003
Sym=    12a
Ene=  -0.20777475500928505     
Spin= Alpha
Occup=     0.00000000
           1   2.9258496826035745E-004
           2   5.5384024707928825E-003
           3  -2.1485992418507241E-003
           4 -0.75460260949406632     
           5   6.5858428708521427E-003
           6  -7.1821049301710113E-003
           7   2.9096532930784924E-003
           8  0.83617708354210241     
           9  -2.3590221341444431E-003
          10   1.9216803111270586E-003
          11   8.6605896126631954E-005
          12 -0.30909928215296145     
          13  -6.8691068483473503E-004
          14  -9.6705445017425786E-004
          15   6.4574532846909549E-005
          16 -0.18814176664401114     
          17   1.3332619822798671E-003
Sym=    13a
Ene=   -2.5845406196448626E-002
Spin= Alpha
Occup=     0.00000000
           1   2.4587466711251518E-002
           2   4.4812940910672235E-002
           3  0.37376049904035979     
           4  -1.8836329438014917E-003
           5 -0.21665188197680055     
           6 -0.16985390979907350     
           7 -0.74653067633640890     
           8   3.5386248842880956E-003
           9  0.24201911630344697     
          10 -0.41935368275104840     
          11  0.34197368811203682     
          12  -7.8511378572261609E-003
          13   8.2112905023970423E-002
          14  0.80653333591391452     
          15  -2.8804222322492311E-002
          16   9.3751477723074857E-003
          17 -0.22519977608373315     
Sym=    14a
Ene=    7.6473820284943525E-002
Spin= Alpha
Occup=     0.00000000
           1 -0.12712842308189085     
           2  0.35874340461085674     
           3   4.0242591498149592E-002
           4   4.1586750384426012E-003
           5  0.67067642351591461     
           6 -0.37617918362654834     
           7 -0.26974478211897956     
           8  -8.2612309960582234E-003
           9 -0.92440306180790310     
          10 -0.24947064769430935     
          11  0.40382338647290250     
          12  -1.0023919996717549E-003
          13  -1.4176728702840874E-002
          14 -0.13665659529256133     
          15  -8.5245051400457406E-002
          16  -1.1823004327638094E-003
          17  0.70140719602601631     
Sym=    15a
Ene=   0.11499435273715371     
Spin= Alpha
Occup=     0.00000000
           1 -0.13208681521279064     
           2  0.29368222622842322     
           3 -0.17490992332977034     
           4   3.6827734681855241E-003
           5  0.79798771409360469     
           6 -0.24183818106039501     
           7  0.22197120534857825     
           8  -7.7881267884955772E-003
           9  0.49019855175631605     
          10 -0.59734611937127935     
          11   2.0783571901918482E-002
          12  -8.1904342267309378E-003
          13 -0.41645885185715836     
          14 -0.11579232862306292     
          15  0.57087164474963636     
          16  -2.4962918274247679E-003
          17 -0.64893464655723931     
Sym=    16a
Ene=   0.64046235498633952     
Spin= Alpha
Occup=     0.00000000
           1 -0.30661979354092478     
           2  0.35954088449158161     
           3  -8.1182610826540103E-002
           4   1.0291925750337729E-003
           5  0.29009846011760843     
           6  0.29168069648026851     
           7 -0.30937190334969827     
           8   1.5014535368966695E-003
           9 -0.27139771913581956     
          10 -0.55834616429024875     
          11 -0.97465851006365034     
          12  -2.9745279049105820E-003
          13  0.77623147502345047     
          14 -0.16894799724079443     
          15 -0.81033831480489116     
          16   2.5237260399022109E-003
          17 -0.63457031188589841     
Sym=    17a
Ene=   0.80881526216893462     
Spin= Alpha
Occup=     0.00000000
           1 -0.78106098855169470     
           2  0.78435412922926850     
           3 -0.33573392543225256     
           4   1.7195950852740764E-003
           5  0.34371028679902693     
           6   1.2043264025731293     
           7 -0.36702976761229295     
           8   7.5350214880560403E-003
           9  0.39067945368570978     
          10  0.56677027620168263     
          11  0.36566432021258494     
          12   6.5967605744857950E-003
          13  -7.0906099316035726E-002
          14  0.22786368056776460     
          15  0.11571799503472147     
          16   2.7961124133087977E-003
          17  0.28136297521317005     
