      -----------------------------------------------------------      
     |                   =====================                   |     
     |                           x T B                           |     
     |                   =====================                   |     
     |                         S. Grimme                         |     
     |          Mulliken Center for Theoretical Chemistry        |     
     |                    University of Bonn                     |     
      -----------------------------------------------------------      

   * xtb version 6.2.2 (9d81278992624c895f80dd42a50cac0aa55982e2) compiled by '@Darwin' on 04/03/2020

   xtb is free software: you can redistribute it and/or modify it under
   the terms of the GNU Lesser General Public License as published by
   the Free Software Foundation, either version 3 of the License, or
   (at your option) any later version.
   
   xtb is distributed in the hope that it will be useful,
   but WITHOUT ANY WARRANTY; without even the implied warranty of
   MERCHANTABILITY or FITNESS FOR A PARTICULAR PURPOSE.  See the
   GNU Lesser General Public License for more details.
   
   Cite this work as:
   * S. Grimme, C. Bannwarth, P. Shushkov, J. Chem. Theory Comput., 2017,
     13, 1989-2009. DOI: 10.1021/acs.jctc.7b00118
   * C. Bannwarth, S. Ehlert and S. Grimme., J. Chem. Theory Comput., 2019,
     15, 1652-1671. DOI: 10.1021/acs.jctc.8b01176
   * P. Pracht, E. Caldeweyher, S. Ehlert, S. Grimme, ChemRxiv, 2019, preprint.
     DOI: 10.26434/chemrxiv.8326202.v1
   
   for DFT-D4:
   * E. Caldeweyher, C. Bannwarth and S. Grimme, J. Chem. Phys., 2017,
     147, 034112. DOI: 10.1063/1.4993215
   * E. Caldeweyher, S. Ehlert, A. Hansen, H. Neugebauer, S. Spicher,
     C. Bannwarth and S. Grimme, J. Chem. Phys., 2019, 150, 154122.
     DOI: 10.1063/1.5090222
   
   for sTDA-xTB:
   * S. Grimme and C. Bannwarth, J. Chem. Phys., 2016, 145, 054103.
     DOI: 10.1063/1.4959605
   
   in the mass-spec context:
   * V. Asgeirsson, C. Bauer and S. Grimme, Chem. Sci., 2017, 8, 4879.
     DOI: 10.1039/c7sc00601b
   
   for metadynamics refer to:
   * S. Grimme, J. Chem. Theory Comput., 2019, 155, 2847-2862
     DOI: 10.1021/acs.jctc.9b00143
   
   with help from (in alphabetical order)
   C. Bannwarth, F. Bohle, G. Brandenburg, E. Caldeweyher, M. Checinski,
   S. Dohm, S. Ehlert, S. Ehrlich, F. März, H. Neugebauer, J. Pisarek,
   P. Pracht, P. Shushkov, and S. Spicher.
   
 * started run on 2020/05/12 at 11:45:14.788     

           -------------------------------------------------
          |                Calculation Setup                |
           -------------------------------------------------

          program call               : xtb --input H2C2O1_5_S_2.input H2C2O1_5_S_2.xyz --ohess --molden --namespace H2C2O1_5_S_2 output.out
          calculation namespace      : H2C2O1_5_S_2
          coordinate file            : H2C2O1_5_S_2.xyz
          number of atoms            :                     5
          number of electrons        :                    16
          charge                     :                     0
          spin                       :                   1.0
          first test random number   :      0.76339850585469

   ID    Z sym.   atoms
    1    8 O      1
    2    6 C      2, 3
    3    1 H      4, 5

           -------------------------------------------------
          |                 G F N 2 - x T B                 |
           -------------------------------------------------

        Reference                      10.1021/acs.jctc.8b01176
      * Hamiltonian:
        H0-scaling (s, p, d)           1.850000    2.230000    2.230000
        zeta-weighting                 0.500000
      * Dispersion:
        s8                             2.700000
        a1                             0.520000
        a2                             5.000000
        s9                             5.000000
      * Repulsion:
        kExp                           1.500000    1.000000
        rExp                           1.000000
      * Coulomb:
        alpha                          2.000000
        third order                    shell-resolved
        anisotropic                    true
        a3                             3.000000
        a5                             4.000000
        cn-shift                       1.200000
        cn-exp                         4.000000
        max-rad                        5.000000


          ...................................................
          :                      SETUP                      :
          :.................................................:
          :  # basis functions                  14          :
          :  # atomic orbitals                  14          :
          :  # shells                            8          :
          :  # electrons                        16          :
          :  max. iterations                   250          :
          :  Hamiltonian                  GFN2-xTB          :
          :  restarted?                      false          :
          :  GBSA solvation                  false          :
          :  PC potential                    false          :
          :  electronic temp.          300.0000000     K    :
          :  accuracy                    1.0000000          :
          :  -> integral cutoff          0.2500000E+02      :
          :  -> integral neglect         0.1000000E-07      :
          :  -> SCF convergence          0.1000000E-05 Eh   :
          :  -> wf. convergence          0.1000000E-03 e    :
          :  Broyden damping             0.4000000          :
          ...................................................

 iter      E             dE          RMSdq      gap      omega  full diag
   1     -9.1020331 -0.910203E+01  0.707E+00    0.46       0.0  T
   2     -9.1042200 -0.218690E-02  0.422E+00    0.42       1.0  T
   3     -9.0997343  0.448577E-02  0.933E-01    0.32       1.0  T
   4     -9.1060713 -0.633705E-02  0.399E-01    0.33       1.0  T
   5     -9.1060827 -0.113602E-04  0.230E-01    0.33       1.0  T
   6     -9.1061528 -0.701582E-04  0.846E-02    0.33       1.0  T
   7     -9.1061363  0.165146E-04  0.659E-02    0.34       1.0  T
   8     -9.1061488 -0.125154E-04  0.478E-02    0.34       1.0  T
   9     -9.1061609 -0.120759E-04  0.117E-02    0.33       3.8  T
  10     -9.1061617 -0.824894E-06  0.108E-03    0.33      41.5  T
  11     -9.1061617 -0.548370E-08  0.226E-04    0.33     197.8  T
  12     -9.1061617 -0.378364E-11  0.118E-04    0.33     379.5  T

   *** convergence criteria satisfied after 12 iterations ***

         #    Occupation            Energy/Eh            Energy/eV
      -------------------------------------------------------------
         1        2.0000           -0.7637588             -20.7829
       ...           ...                  ...                  ...
         3        2.0000           -0.6281556             -17.0930
         4        2.0000           -0.5915308             -16.0964
         5        2.0000           -0.5699279             -15.5085
         6        2.0000           -0.4931495             -13.4193
         7        2.0000           -0.4828393             -13.1387
         8        1.0000           -0.3872122             -10.5366
         9        0.9984           -0.3427490              -9.3267 (HOMO)
        10        0.0016           -0.3304784              -8.9928 (LUMO)
        11                          0.0459676               1.2508
        12                          0.0950057               2.5852
        13                          0.1255263               3.4157
        14                          0.1490984               4.0572
      -------------------------------------------------------------
                  HL-Gap            0.0122706 Eh            0.3339 eV
             Fermi-level           -0.3858197 Eh          -10.4987 eV

 transition dipole moment (au) for excitation:           8           9
     X       Y       Z   
  -0.9571   0.1539  -0.0189  total (au/Debye):    0.970   2.464
 dE (eV)             :    1.210
 oscillator strength :  0.39405E-01

 SCC (total)                   0 d,  0 h,  0 min,  0.003 sec
 SCC setup                      ...        0 min,  0.000 sec (  2.621%)
 Dispersion                     ...        0 min,  0.000 sec (  0.444%)
 integral evaluation            ...        0 min,  0.001 sec ( 22.552%)
 zeroth order Hamiltonian       ...        0 min,  0.000 sec (  0.571%)
 iterations                     ...        0 min,  0.001 sec ( 32.471%)
 molecular gradient             ...        0 min,  0.001 sec ( 22.524%)
 printout                       ...        0 min,  0.001 sec ( 18.522%)

         :::::::::::::::::::::::::::::::::::::::::::::::::::::
         ::                     SUMMARY                     ::
         :::::::::::::::::::::::::::::::::::::::::::::::::::::
         :: total energy              -9.060880374115 Eh    ::
         :: gradient norm              0.155735092700 Eh/a0 ::
         :: HOMO-LUMO gap              0.333900871748 eV    ::
         ::.................................................::
         :: SCC energy                -9.106161735422 Eh    ::
         :: -> isotropic ES           -0.009478343539 Eh    ::
         :: -> anisotropic ES          0.001099318597 Eh    ::
         :: -> anisotropic XC          0.003802919947 Eh    ::
         :: -> dispersion             -0.001447327530 Eh    ::
         :: repulsion energy           0.045281333041 Eh    ::
         :: add. restraining           0.000000000000 Eh    ::
         :::::::::::::::::::::::::::::::::::::::::::::::::::::

      ----------------------------------------------------------- 
     |                   =====================                   |
     |                        A N C O P T                        |
     |                   =====================                   |
     |               Approximate Normal Coordinate               |
     |                Rational Function Optimizer                |
      ----------------------------------------------------------- 

          ...................................................
          :                      SETUP                      :
          :.................................................:
          :   optimization level            normal          :
          :   max. optcycles                   200          :
          :   ANC micro-cycles                  20          :
          :   degrees of freedom                 9          :
          :.................................................:
          :   RF solver                   davidson          :
          :   write xtbopt.log                true          :
          :   linear?                        false          :
          :   energy convergence         0.5000000E-05 Eh   :
          :   grad. convergence          0.1000000E-02 Eh/α :
          :   maximium RF displ.         1.0000000          :
          :   Hlow (freq-cutoff)         0.1000000E-01      :
          :   Hmax (freq-cutoff)         5.0000000          :
          :   S6 in model hess.         20.0000000          :
          ...................................................

generating ANC from model Hessian ...
Using Lindh-Hessian (1995)
 Shifting diagonal of input Hessian by    0.0000000000000000     
 Lowest  eigenvalues of input Hessian
   -0.000000   -0.000000    0.000000    0.000000    0.000000    0.000000
    0.019381    0.069388    0.117989    0.122505    0.159839    0.663178
    0.994183    1.152605    1.378135
 Highest eigenvalues
    0.122505    0.159839    0.663178    0.994183    1.152605    1.378135


........................................................................
.............................. CYCLE    1 ..............................
........................................................................
   1     -9.1061617 -0.910616E+01  0.114E-05    0.33       0.0  T
   2     -9.1061617 -0.346390E-12  0.952E-06    0.33    4698.5  T
   3     -9.1061617 -0.406786E-12  0.271E-06    0.33   16514.4  T
     SCC iter.                  ...        0 min,  0.000 sec
     gradient                   ...        0 min,  0.001 sec
 * total energy  :    -9.0608804 Eh     change       -0.2724470E-09 Eh
   gradient norm :     0.1557326 Eh/α   predicted     0.0000000E+00 (-100.00%)
   displ. norm   :     0.2708988 α      lambda       -0.3091051E-01
   maximum displ.:     0.2091676 α      in ANC's #5, #6, #8, ...

........................................................................
.............................. CYCLE    2 ..............................
........................................................................
   1     -9.1362997 -0.913630E+01  0.129E+00    0.72       0.0  T
   2     -9.1375288 -0.122909E-02  0.771E-01    0.66       1.0  T
   3     -9.1377244 -0.195577E-03  0.448E-01    0.69       1.0  T
   4     -9.1379163 -0.191897E-03  0.732E-02    0.68       1.0  T
   5     -9.1379443 -0.280733E-04  0.271E-02    0.68       1.7  T
   6     -9.1379452 -0.877455E-06  0.770E-03    0.68       5.8  T
   7     -9.1379452 -0.339159E-07  0.204E-03    0.68      21.9  T
   8     -9.1379453 -0.150270E-07  0.582E-04    0.68      76.9  T
   9     -9.1379453 -0.301235E-09  0.783E-05    0.68     570.9  T
     SCC iter.                  ...        0 min,  0.001 sec
     gradient                   ...        0 min,  0.001 sec
 * total energy  :    -9.0833004 Eh     change       -0.2242000E-01 Eh
   gradient norm :     0.0877977 Eh/α   predicted    -0.1658945E-01 ( -26.01%)
   displ. norm   :     0.1901124 α      lambda       -0.1522053E-01
   maximum displ.:     0.1248687 α      in ANC's #8, #6, #5, ...

........................................................................
.............................. CYCLE    3 ..............................
........................................................................
   1     -9.1647163 -0.916472E+01  0.127E+00    0.90       0.0  T
   2     -9.1665273 -0.181103E-02  0.694E-01    0.87       1.0  T
   3     -9.1667871 -0.259757E-03  0.425E-01    0.86       1.0  T
   4     -9.1669009 -0.113865E-03  0.906E-02    0.86       1.0  T
   5     -9.1669379 -0.369405E-04  0.285E-02    0.86       1.6  T
   6     -9.1669386 -0.776756E-06  0.572E-03    0.86       7.8  T
   7     -9.1669387 -0.967375E-07  0.201E-03    0.86      22.3  T
   8     -9.1669388 -0.153139E-07  0.582E-04    0.86      76.9  T
   9     -9.1669388 -0.245016E-09  0.102E-04    0.86     437.5  T
     SCC iter.                  ...        0 min,  0.001 sec
     gradient                   ...        0 min,  0.001 sec
 * total energy  :    -9.0897727 Eh     change       -0.6472309E-02 Eh
   gradient norm :     0.0379714 Eh/α   predicted    -0.7885323E-02 (  21.83%)
   displ. norm   :     0.0465565 α      lambda       -0.1387959E-02
   maximum displ.:     0.0269837 α      in ANC's #8, #5, #3, ...

........................................................................
.............................. CYCLE    4 ..............................
........................................................................
   1     -9.1611578 -0.916116E+01  0.279E-01    0.78       0.0  T
   2     -9.1612912 -0.133403E-03  0.127E-01    0.78       1.0  T
   3     -9.1613173 -0.260460E-04  0.905E-02    0.78       1.0  T
   4     -9.1613217 -0.444717E-05  0.207E-02    0.78       2.2  T
   5     -9.1613235 -0.179646E-05  0.463E-03    0.78       9.7  T
   6     -9.1613235 -0.846275E-08  0.165E-03    0.78      27.1  T
   7     -9.1613235 -0.287732E-08  0.357E-04    0.78     125.1  T
   8     -9.1613235 -0.222490E-09  0.160E-04    0.78     279.8  T
     SCC iter.                  ...        0 min,  0.001 sec
     gradient                   ...        0 min,  0.001 sec
 * total energy  :    -9.0905041 Eh     change       -0.7314566E-03 Eh
   gradient norm :     0.0093345 Eh/α   predicted    -0.6954844E-03 (  -4.92%)
   displ. norm   :     0.0491882 α      lambda       -0.2928995E-03
   maximum displ.:     0.0379339 α      in ANC's #2, #3, #6, ...

........................................................................
.............................. CYCLE    5 ..............................
........................................................................
   1     -9.1613383 -0.916134E+01  0.157E-01    0.77       0.0  T
   2     -9.1613394 -0.112990E-05  0.952E-02    0.77       1.0  T
   3     -9.1613386  0.811072E-06  0.164E-02    0.77       2.7  T
   4     -9.1613399 -0.131903E-05  0.455E-03    0.77       9.8  T
   5     -9.1613399 -0.154782E-07  0.220E-03    0.77      20.3  T
   6     -9.1613399 -0.145625E-08  0.600E-04    0.77      74.5  T
   7     -9.1613399 -0.265661E-09  0.163E-04    0.77     274.9  T
     SCC iter.                  ...        0 min,  0.001 sec
     gradient                   ...        0 min,  0.001 sec
 * total energy  :    -9.0907548 Eh     change       -0.2506379E-03 Eh
   gradient norm :     0.0082770 Eh/α   predicted    -0.1468047E-03 ( -41.43%)
   displ. norm   :     0.1446244 α      lambda       -0.7518257E-03
   maximum displ.:     0.1061215 α      in ANC's #2, #6, #3, ...

........................................................................
.............................. CYCLE    6 ..............................
........................................................................
   1     -9.1625263 -0.916253E+01  0.478E-01    0.75       0.0  T
   2     -9.1625350 -0.870840E-05  0.293E-01    0.75       1.0  T
   3     -9.1625373 -0.230066E-05  0.231E-02    0.75       1.9  T
   4     -9.1625382 -0.946581E-06  0.124E-02    0.75       3.6  T
   5     -9.1625384 -0.173312E-06  0.710E-03    0.75       6.3  T
   6     -9.1625384 -0.450665E-07  0.136E-03    0.75      33.0  T
   7     -9.1625384 -0.132320E-08  0.459E-04    0.75      97.4  T
   8     -9.1625384 -0.140513E-09  0.837E-05    0.75     534.5  T
     SCC iter.                  ...        0 min,  0.001 sec
     gradient                   ...        0 min,  0.001 sec
 * total energy  :    -9.0912896 Eh     change       -0.5348309E-03 Eh
   gradient norm :     0.0058050 Eh/α   predicted    -0.3837746E-03 ( -28.24%)
   displ. norm   :     0.1560037 α      lambda       -0.4533828E-03
   maximum displ.:     0.1187660 α      in ANC's #2, #6, #3, ...

........................................................................
.............................. CYCLE    7 ..............................
........................................................................
   1     -9.1622581 -0.916226E+01  0.510E-01    0.75       0.0  T
   2     -9.1622659 -0.782922E-05  0.315E-01    0.75       1.0  T
   3     -9.1622636  0.237389E-05  0.364E-02    0.76       1.2  T
   4     -9.1622701 -0.648359E-05  0.128E-02    0.76       3.5  T
   5     -9.1622702 -0.116846E-06  0.629E-03    0.76       7.1  T
   6     -9.1622702 -0.304075E-07  0.144E-03    0.76      31.0  T
   7     -9.1622702 -0.169502E-08  0.444E-04    0.76     100.7  T
   8     -9.1622702 -0.125503E-09  0.731E-05    0.76     611.4  T
     SCC iter.                  ...        0 min,  0.001 sec
     gradient                   ...        0 min,  0.001 sec
 * total energy  :    -9.0916417 Eh     change       -0.3520465E-03 Eh
   gradient norm :     0.0086656 Eh/α   predicted    -0.2322090E-03 ( -34.04%)
   displ. norm   :     0.2225858 α      lambda       -0.5690410E-03
   maximum displ.:     0.1527222 α      in ANC's #2, #6, #3, ...

........................................................................
.............................. CYCLE    8 ..............................
........................................................................
   1     -9.1610328 -0.916103E+01  0.719E-01    0.75       0.0  T
   2     -9.1610526 -0.198164E-04  0.441E-01    0.75       1.0  T
   3     -9.1610284  0.241231E-04  0.746E-02    0.75       1.0  T
   4     -9.1610624 -0.339701E-04  0.178E-02    0.75       2.5  T
   5     -9.1610627 -0.253860E-06  0.834E-03    0.75       5.4  T
   6     -9.1610627 -0.175509E-07  0.263E-03    0.75      17.0  T
   7     -9.1610627 -0.656036E-08  0.696E-04    0.75      64.3  T
   8     -9.1610627 -0.295493E-09  0.143E-04    0.75     313.1  T
     SCC iter.                  ...        0 min,  0.001 sec
     gradient                   ...        0 min,  0.001 sec
 * total energy  :    -9.0917742 Eh     change       -0.1325085E-03 Eh
   gradient norm :     0.0131897 Eh/α   predicted    -0.2986192E-03 ( 125.36%)
   displ. norm   :     0.0973294 α      lambda       -0.5715591E-03
   maximum displ.:     0.0753371 α      in ANC's #2, #3, #6, ...

........................................................................
.............................. CYCLE    9 ..............................
........................................................................
   1     -9.1666886 -0.916669E+01  0.325E-01    0.76       0.0  T
   2     -9.1666989 -0.103195E-04  0.196E-01    0.75       1.0  T
   3     -9.1666994 -0.422824E-06  0.275E-02    0.76       1.6  T
   4     -9.1667001 -0.768517E-06  0.106E-02    0.75       4.2  T
   5     -9.1667005 -0.330058E-06  0.443E-03    0.75      10.1  T
   6     -9.1667005 -0.117153E-07  0.149E-03    0.75      30.0  T
   7     -9.1667005 -0.465624E-09  0.181E-04    0.75     246.9  T
   8     -9.1667005 -0.245954E-10  0.586E-05    0.75     763.3  T
     SCC iter.                  ...        0 min,  0.001 sec
     gradient                   ...        0 min,  0.001 sec
 * total energy  :    -9.0918851 Eh     change       -0.1108865E-03 Eh
   gradient norm :     0.0066172 Eh/α   predicted    -0.2884869E-03 ( 160.16%)
   displ. norm   :     0.0320633 α      lambda       -0.1414520E-03
   maximum displ.:     0.0297970 α      in ANC's #2, #1, #3, ...

........................................................................
.............................. CYCLE   10 ..............................
........................................................................
   1     -9.1646779 -0.916468E+01  0.105E-01    0.76       0.0  T
   2     -9.1646787 -0.852466E-06  0.628E-02    0.77       1.0  T
   3     -9.1646788 -0.103890E-06  0.779E-03    0.77       5.7  T
   4     -9.1646789 -0.362484E-07  0.323E-03    0.77      13.8  T
   5     -9.1646789 -0.115287E-07  0.161E-03    0.77      27.7  T
   6     -9.1646789 -0.482199E-08  0.498E-04    0.77      89.8  T
   7     -9.1646789 -0.631086E-10  0.944E-05    0.77     473.6  T
     SCC iter.                  ...        0 min,  0.000 sec
     gradient                   ...        0 min,  0.001 sec
 * total energy  :    -9.0919679 Eh     change       -0.8285049E-04 Eh
   gradient norm :     0.0033564 Eh/α   predicted    -0.7079948E-04 ( -14.55%)
   displ. norm   :     0.0442952 α      lambda       -0.4379357E-04
   maximum displ.:     0.0288929 α      in ANC's #2, #1, #6, ...

........................................................................
.............................. CYCLE   11 ..............................
........................................................................
   1     -9.1642265 -0.916423E+01  0.166E-01    0.77       0.0  T
   2     -9.1642279 -0.140763E-05  0.990E-02    0.77       1.0  T
   3     -9.1642278  0.532023E-07  0.147E-02    0.77       3.0  T
   4     -9.1642285 -0.616327E-06  0.720E-03    0.77       6.2  T
   5     -9.1642285 -0.772785E-07  0.292E-03    0.77      15.3  T
   6     -9.1642285 -0.316676E-08  0.768E-04    0.77      58.2  T
   7     -9.1642285 -0.115916E-09  0.108E-04    0.77     412.5  T
     SCC iter.                  ...        0 min,  0.000 sec
     gradient                   ...        0 min,  0.001 sec
 * total energy  :    -9.0920024 Eh     change       -0.3449795E-04 Eh
   gradient norm :     0.0043209 Eh/α   predicted    -0.2194069E-04 ( -36.40%)
   displ. norm   :     0.1754664 α      lambda       -0.1526380E-03
   maximum displ.:     0.1396469 α      in ANC's #1, #2, #6, ...

........................................................................
.............................. CYCLE   12 ..............................
........................................................................
   1     -9.1615705 -0.916157E+01  0.714E-01    0.80       0.0  T
   2     -9.1616146 -0.441620E-04  0.420E-01    0.81       1.0  T
   3     -9.1616065  0.808290E-05  0.851E-02    0.81       1.0  T
   4     -9.1616286 -0.220945E-04  0.381E-02    0.81       1.2  T
   5     -9.1616316 -0.299604E-05  0.180E-02    0.81       2.5  T
   6     -9.1616318 -0.131081E-06  0.305E-03    0.81      14.7  T
   7     -9.1616318 -0.109268E-08  0.327E-04    0.81     136.8  T
   8     -9.1616318 -0.268461E-10  0.139E-04    0.81     320.7  T
     SCC iter.                  ...        0 min,  0.001 sec
     gradient                   ...        0 min,  0.001 sec
 * total energy  :    -9.0920502 Eh     change       -0.4781117E-04 Eh
   gradient norm :     0.0173428 Eh/α   predicted    -0.7866699E-04 (  64.54%)
   displ. norm   :     0.0346071 α      lambda       -0.2274713E-03
   maximum displ.:     0.0257984 α      in ANC's #2, #6, #3, ...

........................................................................
.............................. CYCLE   13 ..............................
........................................................................
   1     -9.1631178 -0.916312E+01  0.111E-01    0.82       0.0  T
   2     -9.1631199 -0.210949E-05  0.662E-02    0.81       1.0  T
   3     -9.1631200 -0.855805E-07  0.143E-02    0.81       3.1  T
   4     -9.1631201 -0.787410E-07  0.318E-03    0.81      14.1  T
   5     -9.1631201 -0.238982E-07  0.196E-03    0.81      22.9  T
   6     -9.1631201 -0.899767E-08  0.491E-04    0.81      91.1  T
   7     -9.1631201 -0.548521E-10  0.634E-05    0.81     705.8  T
     SCC iter.                  ...        0 min,  0.000 sec
     gradient                   ...        0 min,  0.001 sec
 * total energy  :    -9.0922305 Eh     change       -0.1802607E-03 Eh
   gradient norm :     0.0125012 Eh/α   predicted    -0.1138716E-03 ( -36.83%)
   displ. norm   :     0.3396558 α      lambda       -0.1475244E-02
   maximum displ.:     0.3168202 α      in ANC's #1, #7, #4, ...

........................................................................
.............................. CYCLE   14 ..............................
........................................................................
   1     -9.1622257 -0.916223E+01  0.130E+00    0.90       0.0  T
   2     -9.1624732 -0.247573E-03  0.791E-01    0.91       1.0  T
   3     -9.1619434  0.529849E-03  0.357E-01    0.92       1.0  T
   4     -9.1626149 -0.671468E-03  0.788E-02    0.91       1.0  T
   5     -9.1626232 -0.831288E-05  0.407E-02    0.91       1.1  T
   6     -9.1626236 -0.458657E-06  0.587E-03    0.91       7.6  T
   7     -9.1626236 -0.108561E-07  0.127E-03    0.91      35.3  T
   8     -9.1626236 -0.239087E-09  0.489E-04    0.91      91.5  T
   9     -9.1626236 -0.709139E-10  0.548E-05    0.91     816.5  T
     SCC iter.                  ...        0 min,  0.001 sec
     gradient                   ...        0 min,  0.001 sec
 * total energy  :    -9.0934435 Eh     change       -0.1213018E-02 Eh
   gradient norm :     0.0364593 Eh/α   predicted    -0.8227171E-03 ( -32.18%)
   displ. norm   :     0.3416807 α      lambda       -0.1999481E-02
   maximum displ.:     0.3029218 α      in ANC's #1, #2, #7, ...

........................................................................
.............................. CYCLE   15 ..............................
........................................................................
   1     -9.1586519 -0.915865E+01  0.111E+00    0.94       0.0  T
   2     -9.1589507 -0.298791E-03  0.691E-01    0.93       1.0  T
   3     -9.1582354  0.715222E-03  0.500E-01    0.97       1.0  T
   4     -9.1592665 -0.103102E-02  0.956E-02    0.94       1.0  T
   5     -9.1592861 -0.196235E-04  0.379E-02    0.95       1.2  T
   6     -9.1592864 -0.306188E-06  0.563E-03    0.95       7.9  T
   7     -9.1592864 -0.908815E-08  0.147E-03    0.95      30.5  T
   8     -9.1592864 -0.257753E-08  0.550E-04    0.95      81.4  T
   9     -9.1592864 -0.861373E-10  0.800E-05    0.95     559.0  T
     SCC iter.                  ...        0 min,  0.001 sec
     gradient                   ...        0 min,  0.001 sec
 * total energy  :    -9.0941728 Eh     change       -0.7293452E-03 Eh
   gradient norm :     0.0645958 Eh/α   predicted    -0.1116459E-02 (  53.08%)
   displ. norm   :     0.1893926 α      lambda       -0.5386633E-02
   maximum displ.:     0.1548267 α      in ANC's #2, #8, #5, ...

........................................................................
.............................. CYCLE   16 ..............................
........................................................................
   1     -9.1694564 -0.916946E+01  0.876E-01    1.03       0.0  T
   2     -9.1696089 -0.152507E-03  0.583E-01    0.97       1.0  T
   3     -9.1701158 -0.506863E-03  0.390E-01    1.01       1.0  T
   4     -9.1704334 -0.317667E-03  0.521E-02    0.99       1.0  T
   5     -9.1704407 -0.722875E-05  0.201E-02    0.99       2.2  T
   6     -9.1704408 -0.111815E-06  0.398E-03    0.99      11.2  T
   7     -9.1704408 -0.702969E-08  0.163E-03    0.99      27.5  T
   8     -9.1704408 -0.577508E-08  0.361E-04    0.99     123.9  T
   9     -9.1704408 -0.103052E-09  0.982E-05    0.99     455.6  T
     SCC iter.                  ...        0 min,  0.001 sec
     gradient                   ...        0 min,  0.001 sec
 * total energy  :    -9.0970190 Eh     change       -0.2846181E-02 Eh
   gradient norm :     0.0507609 Eh/α   predicted    -0.2789922E-02 (  -1.98%)
   displ. norm   :     0.2221361 α      lambda       -0.4534174E-02
   maximum displ.:     0.1770564 α      in ANC's #1, #8, #2, ...

........................................................................
.............................. CYCLE   17 ..............................
........................................................................
   1     -9.1691160 -0.916912E+01  0.104E+00    1.10       0.0  T
   2     -9.1690616  0.543685E-04  0.665E-01    1.02       1.0  T
   3     -9.1697872 -0.725612E-03  0.515E-01    1.09       1.0  T
   4     -9.1704287 -0.641514E-03  0.564E-02    1.06       1.0  T
   5     -9.1704295 -0.781449E-06  0.239E-02    1.06       1.9  T
   6     -9.1704298 -0.311473E-06  0.415E-03    1.06      10.8  T
   7     -9.1704298 -0.380555E-08  0.793E-04    1.06      56.4  T
   8     -9.1704298 -0.161940E-09  0.326E-04    1.06     137.0  T
     SCC iter.                  ...        0 min,  0.001 sec
     gradient                   ...        0 min,  0.001 sec
 * total energy  :    -9.0999887 Eh     change       -0.2969674E-02 Eh
   gradient norm :     0.0277223 Eh/α   predicted    -0.2378954E-02 ( -19.89%)
   displ. norm   :     0.2153968 α      lambda       -0.2557301E-02
   maximum displ.:     0.1253586 α      in ANC's #1, #8, #4, ...

........................................................................
.............................. CYCLE   18 ..............................
........................................................................
   1     -9.1689350 -0.916894E+01  0.927E-01    1.19       0.0  T
   2     -9.1689461 -0.110325E-04  0.581E-01    1.12       1.0  T
   3     -9.1687067  0.239324E-03  0.488E-01    1.20       1.0  T
   4     -9.1694705 -0.763732E-03  0.489E-02    1.15       1.0  T
   5     -9.1694716 -0.114457E-05  0.152E-02    1.16       2.9  T
   6     -9.1694717 -0.582070E-07  0.217E-03    1.16      20.6  T
   7     -9.1694717 -0.146305E-08  0.810E-04    1.16      55.2  T
   8     -9.1694717 -0.773861E-09  0.161E-04    1.16     277.0  T
     SCC iter.                  ...        0 min,  0.001 sec
     gradient                   ...        0 min,  0.001 sec
 * total energy  :    -9.1015095 Eh     change       -0.1520808E-02 Eh
   gradient norm :     0.0304062 Eh/α   predicted    -0.1337973E-02 ( -12.02%)
   displ. norm   :     0.1531492 α      lambda       -0.2049044E-02
   maximum displ.:     0.0990329 α      in ANC's #1, #4, #8, ...

........................................................................
.............................. CYCLE   19 ..............................
........................................................................
   1     -9.1756323 -0.917563E+01  0.602E-01    1.30       0.0  T
   2     -9.1759520 -0.319691E-03  0.348E-01    1.26       1.0  T
   3     -9.1759508  0.115522E-05  0.224E-01    1.28       1.0  T
   4     -9.1760111 -0.602123E-04  0.843E-02    1.26       1.0  T
   5     -9.1760385 -0.274686E-04  0.152E-02    1.27       2.9  T
   6     -9.1760387 -0.159886E-06  0.425E-03    1.27      10.5  T
   7     -9.1760387 -0.118430E-07  0.107E-03    1.27      41.8  T
   8     -9.1760387 -0.185457E-08  0.420E-04    1.27     106.4  T
   9     -9.1760387 -0.861284E-10  0.662E-05    1.27     675.5  T
     SCC iter.                  ...        0 min,  0.001 sec
     gradient                   ...        0 min,  0.001 sec
 * total energy  :    -9.1011298 Eh     change        0.3797335E-03 Eh
   gradient norm :     0.0297990 Eh/α   predicted    -0.1048550E-02 (-376.13%)
   displ. norm   :     0.1779058 α      lambda       -0.2668505E-02
   maximum displ.:     0.1116565 α      in ANC's #2, #1, #5, ...

........................................................................
.............................. CYCLE   20 ..............................
........................................................................
   1     -9.1700023 -0.917000E+01  0.543E-01    1.22       0.0  T
   2     -9.1701223 -0.120033E-03  0.327E-01    1.23       1.0  T
   3     -9.1701287 -0.639312E-05  0.115E-01    1.23       1.0  T
   4     -9.1701302 -0.148312E-05  0.199E-02    1.23       2.2  T
   5     -9.1701305 -0.345678E-06  0.158E-02    1.23       2.8  T
   6     -9.1701311 -0.614413E-06  0.276E-03    1.23      16.2  T
   7     -9.1701311 -0.513956E-08  0.609E-04    1.23      73.5  T
   8     -9.1701311 -0.155536E-09  0.296E-04    1.23     151.3  T
     SCC iter.                  ...        0 min,  0.000 sec
     gradient                   ...        0 min,  0.001 sec
 * total energy  :    -9.1025153 Eh     change       -0.1385503E-02 Eh
   gradient norm :     0.0178278 Eh/α   predicted    -0.1376483E-02 (  -0.65%)
   displ. norm   :     0.0618013 α      lambda       -0.4310198E-03
   maximum displ.:     0.0387934 α      in ANC's #1, #6, #8, ...
 * RMSD in coord.:     0.7015709 α      energy gain  -0.4163489E-01 Eh

generating ANC from model Hessian ...
Using Lindh-Hessian (1995)
 Shifting diagonal of input Hessian by    0.0000000000000000     
 Lowest  eigenvalues of input Hessian
   -0.000000   -0.000000   -0.000000   -0.000000    0.000000    0.000000
    0.030605    0.071961    0.102802    0.173861    0.300038    0.514394
    1.203333    1.442822    2.014818
 Highest eigenvalues
    0.173861    0.300038    0.514394    1.203333    1.442822    2.014818


........................................................................
.............................. CYCLE   21 ..............................
........................................................................
   1     -9.1711698 -0.917117E+01  0.221E-01    1.21       0.0  T
   2     -9.1711829 -0.130495E-04  0.139E-01    1.22       1.0  T
   3     -9.1711651  0.177653E-04  0.874E-02    1.21       1.0  T
   4     -9.1711909 -0.257975E-04  0.195E-02    1.22       2.3  T
   5     -9.1711922 -0.126331E-05  0.667E-03    1.22       6.7  T
   6     -9.1711922 -0.175902E-07  0.169E-03    1.22      26.5  T
   7     -9.1711922 -0.794552E-09  0.176E-04    1.22     253.9  T
   8     -9.1711922 -0.610001E-11  0.705E-05    1.22     634.1  T
     SCC iter.                  ...        0 min,  0.001 sec
     gradient                   ...        0 min,  0.001 sec
 * total energy  :    -9.1027759 Eh     change       -0.2606268E-03 Eh
   gradient norm :     0.0149538 Eh/α   predicted     0.0000000E+00 (-100.00%)
   displ. norm   :     0.1276427 α      lambda       -0.6942267E-03
   maximum displ.:     0.1250849 α      in ANC's #1, #2, #3, ...

........................................................................
.............................. CYCLE   22 ..............................
........................................................................
   1     -9.1727933 -0.917279E+01  0.369E-01    1.26       0.0  T
   2     -9.1728070 -0.136312E-04  0.230E-01    1.24       1.0  T
   3     -9.1727357  0.712791E-04  0.148E-01    1.26       1.0  T
   4     -9.1728281 -0.923861E-04  0.133E-02    1.25       3.4  T
   5     -9.1728284 -0.349745E-06  0.704E-03    1.25       6.4  T
   6     -9.1728284 -0.133848E-07  0.881E-04    1.25      50.8  T
   7     -9.1728284 -0.384663E-09  0.181E-04    1.25     246.6  T
     SCC iter.                  ...        0 min,  0.000 sec
     gradient                   ...        0 min,  0.001 sec
 * total energy  :    -9.1031897 Eh     change       -0.4137979E-03 Eh
   gradient norm :     0.0080022 Eh/α   predicted    -0.3527697E-03 ( -14.75%)
   displ. norm   :     0.0663846 α      lambda       -0.2152161E-03
   maximum displ.:     0.0454431 α      in ANC's #1, #2, #3, ...

........................................................................
.............................. CYCLE   23 ..............................
........................................................................
   1     -9.1743916 -0.917439E+01  0.254E-01    1.27       0.0  T
   2     -9.1743978 -0.629616E-05  0.160E-01    1.26       1.0  T
   3     -9.1743708  0.270008E-04  0.835E-02    1.27       1.0  T
   4     -9.1744044 -0.335321E-04  0.121E-02    1.26       3.7  T
   5     -9.1744045 -0.142377E-06  0.659E-03    1.26       6.8  T
   6     -9.1744045 -0.171561E-07  0.698E-04    1.26      64.0  T
   7     -9.1744045 -0.219343E-09  0.109E-04    1.26     409.2  T
     SCC iter.                  ...        0 min,  0.000 sec
     gradient                   ...        0 min,  0.001 sec
 * total energy  :    -9.1033396 Eh     change       -0.1499388E-03 Eh
   gradient norm :     0.0036117 Eh/α   predicted    -0.1080818E-03 ( -27.92%)
   displ. norm   :     0.0648739 α      lambda       -0.9188132E-04
   maximum displ.:     0.0481269 α      in ANC's #1, #2, #3, ...

........................................................................
.............................. CYCLE   24 ..............................
........................................................................
   1     -9.1744724 -0.917447E+01  0.255E-01    1.27       0.0  T
   2     -9.1744755 -0.313495E-05  0.160E-01    1.27       1.0  T
   3     -9.1744779 -0.244502E-05  0.144E-02    1.27       3.1  T
   4     -9.1744779  0.121284E-07  0.351E-03    1.27      12.7  T
   5     -9.1744780 -0.531458E-07  0.121E-03    1.27      37.1  T
   6     -9.1744780 -0.386921E-08  0.526E-04    1.27      85.1  T
   7     -9.1744780 -0.976978E-10  0.777E-05    1.27     575.2  T
     SCC iter.                  ...        0 min,  0.000 sec
     gradient                   ...        0 min,  0.001 sec
 * total energy  :    -9.1033956 Eh     change       -0.5597974E-04 Eh
   gradient norm :     0.0017329 Eh/α   predicted    -0.4613225E-04 ( -17.59%)
   displ. norm   :     0.0272011 α      lambda       -0.9530857E-05
   maximum displ.:     0.0193324 α      in ANC's #1, #3, #2, ...

........................................................................
.............................. CYCLE   25 ..............................
........................................................................
   1     -9.1744197 -0.917442E+01  0.112E-01    1.27       0.0  T
   2     -9.1744204 -0.654873E-06  0.703E-02    1.27       1.0  T
   3     -9.1744200  0.387691E-06  0.139E-02    1.27       3.2  T
   4     -9.1744209 -0.941591E-06  0.509E-03    1.27       8.8  T
   5     -9.1744209 -0.137879E-07  0.434E-04    1.27     103.1  T
   6     -9.1744209 -0.438654E-10  0.224E-04    1.27     199.7  T
     SCC iter.                  ...        0 min,  0.000 sec
     gradient                   ...        0 min,  0.001 sec
 * total energy  :    -9.1034020 Eh     change       -0.6356071E-05 Eh
   gradient norm :     0.0008104 Eh/α   predicted    -0.4768734E-05 ( -24.97%)
   displ. norm   :     0.0070708 α      lambda       -0.1830140E-05
   maximum displ.:     0.0062809 α      in ANC's #2, #1, #3, ...

........................................................................
.............................. CYCLE   26 ..............................
........................................................................
   1     -9.1745022 -0.917450E+01  0.248E-02    1.27       0.0  T
   2     -9.1745022 -0.613155E-07  0.154E-02    1.27       2.9  T
   3     -9.1745021  0.179853E-06  0.682E-03    1.27       6.6  T
   4     -9.1745023 -0.219778E-06  0.125E-03    1.27      35.8  T
   5     -9.1745023 -0.381690E-08  0.607E-04    1.27      73.7  T
   6     -9.1745023 -0.846665E-10  0.859E-05    1.27     520.5  T
     SCC iter.                  ...        0 min,  0.000 sec
     gradient                   ...        0 min,  0.001 sec
 * total energy  :    -9.1034037 Eh     change       -0.1701950E-05 Eh
   gradient norm :     0.0002647 Eh/α   predicted    -0.9137117E-06 ( -46.31%)
   displ. norm   :     0.0037679 α      lambda       -0.4285435E-06
   maximum displ.:     0.0024543 α      in ANC's #2, #3, #5, ...

   *** GEOMETRY OPTIMIZATION CONVERGED AFTER 26 ITERATIONS ***

------------------------------------------------------------------------
 total energy gain   :        -0.0425233 Eh      -26.6838 kcal/mol
 total RMSD          :         0.7707801 a0        0.4079 Å
 total power (kW/mol):        -4.2940344 (step)-1949.2111 (real)
------------------------------------------------------------------------

 ANCopt (total)                0 d,  0 h,  0 min,  0.057 sec
 optimizer setup                ...        0 min,  0.000 sec (  0.126%)
 model hessian                  ...        0 min,  0.000 sec (  0.252%)
 ANC generation                 ...        0 min,  0.000 sec (  0.180%)
 coordinate transformation      ...        0 min,  0.000 sec (  0.114%)
 single point calculation       ...        0 min,  0.055 sec ( 95.574%)
 optimization log               ...        0 min,  0.001 sec (  1.179%)
 hessian update                 ...        0 min,  0.000 sec (  0.136%)
 rational function              ...        0 min,  0.001 sec (  1.062%)

================
 final structure:
================
5
 xtb: 6.2.2 (9d81278992624c895f80dd42a50cac0aa55982e2)
O         0.80624856461585    0.18908440708566    0.24854023110316
C        -0.49891035696949    0.11478035592523    0.07137976403944
C         1.72097552423139   -0.50036916268450   -0.34736035153224
H        -0.92566905164461   -0.58090904042433   -0.63706068833507
H        -1.10264468023313    0.77741244009794    0.66450104472471

 Bond Distances (Angstroems)
 ---------------------------
O1-C2=1.3192         O1-C3=1.2912         C2-O1=1.3192         C2-H4=1.0807         C2-H5=1.0749         C3-O1=1.2912         
H4-C2=1.0807         H5-C2=1.0749         
 C  H  Rav=1.0778 sigma=0.0029  Rmin=1.0749  Rmax=1.0807     2
 O  C  Rav=1.3052 sigma=0.0140  Rmin=1.2912  Rmax=1.3192     2

 selected bond angles (degree)
 --------------------
C3-O1-C2=127.51                H4-C2-O1=120.99                H5-C2-O1=116.54                H5-C2-H4=122.46                

 selected dihedral angles (degree)
 ---------------------------------
H4-C2-O1-C3=  0.06            H5-C2-O1-C3=180.07            
           -------------------------------------------------
          |                Final Singlepoint                |
           -------------------------------------------------

          ...................................................
          :                      SETUP                      :
          :.................................................:
          :  # basis functions                  14          :
          :  # atomic orbitals                  14          :
          :  # shells                            8          :
          :  # electrons                        16          :
          :  max. iterations                   250          :
          :  Hamiltonian                  GFN2-xTB          :
          :  restarted?                      false          :
          :  GBSA solvation                  false          :
          :  PC potential                    false          :
          :  electronic temp.          300.0000000     K    :
          :  accuracy                    1.0000000          :
          :  -> integral cutoff          0.2500000E+02      :
          :  -> integral neglect         0.1000000E-07      :
          :  -> SCF convergence          0.1000000E-05 Eh   :
          :  -> wf. convergence          0.1000000E-03 e    :
          :  Broyden damping             0.4000000          :
          ...................................................

 iter      E             dE          RMSdq      gap      omega  full diag
   1     -9.1745023 -0.917450E+01  0.123E-05    1.27       0.0  T
   2     -9.1745023 -0.159872E-13  0.752E-06    1.27    5948.3  T
   3     -9.1745023 -0.532907E-14  0.163E-06    1.27   27437.3  T

   *** convergence criteria satisfied after 3 iterations ***

         #    Occupation            Energy/Eh            Energy/eV
      -------------------------------------------------------------
         1        2.0000           -0.7670303             -20.8720
       ...           ...                  ...                  ...
         3        2.0000           -0.6271486             -17.0656
         4        2.0000           -0.5926489             -16.1268
         5        2.0000           -0.5807757             -15.8037
         6        2.0000           -0.5127018             -13.9513
         7        2.0000           -0.4399831             -11.9725
         8        1.0000           -0.3727169             -10.1421
         9        1.0000           -0.2959488              -8.0532 (HOMO)
        10                         -0.2493642              -6.7855 (LUMO)
        11                          0.0733532               1.9960
        12                          0.1502941               4.0897
        13                          0.2457770               6.6879
        14                          0.4506330              12.2623
      -------------------------------------------------------------
                  HL-Gap            0.0465847 Eh            1.2676 eV
             Fermi-level           -0.3395033 Eh           -9.2384 eV

 transition dipole moment (au) for excitation:           8           9
     X       Y       Z   
  -0.0043  -0.0461   0.0478  total (au/Debye):    0.067   0.169
 dE (eV)             :    2.089
 oscillator strength :  0.32035E-03

 SCC (total)                   0 d,  0 h,  0 min,  0.003 sec
 SCC setup                      ...        0 min,  0.000 sec (  1.823%)
 Dispersion                     ...        0 min,  0.000 sec (  0.299%)
 integral evaluation            ...        0 min,  0.001 sec ( 28.685%)
 zeroth order Hamiltonian       ...        0 min,  0.000 sec (  0.617%)
 iterations                     ...        0 min,  0.000 sec ( 14.533%)
 molecular gradient             ...        0 min,  0.001 sec ( 30.582%)
 printout                       ...        0 min,  0.001 sec ( 23.016%)

         :::::::::::::::::::::::::::::::::::::::::::::::::::::
         ::                     SUMMARY                     ::
         :::::::::::::::::::::::::::::::::::::::::::::::::::::
         :: total energy              -9.103403668913 Eh    ::
         :: gradient norm              0.000265101133 Eh/a0 ::
         :: HOMO-LUMO gap              1.267633117288 eV    ::
         ::.................................................::
         :: SCC energy                -9.174502285503 Eh    ::
         :: -> isotropic ES           -0.006249341215 Eh    ::
         :: -> anisotropic ES          0.001007736947 Eh    ::
         :: -> anisotropic XC          0.002823391456 Eh    ::
         :: -> dispersion             -0.001434910400 Eh    ::
         :: repulsion energy           0.071098602393 Eh    ::
         :: add. restraining           0.000000000000 Eh    ::
         :::::::::::::::::::::::::::::::::::::::::::::::::::::

           ------------------------------------------------- 
          |                Numerical Hessian                |
           ------------------------------------------------- 
step length          :   0.00500
SCC accuracy         :   0.30000
Hessian scale factor :   1.00000
frozen atoms in %    :   0.00000    0
RMS gradient         :   0.00027
estimated CPU  time      0.00 min
estimated wall time      0.00 min

writing file <hessian>.

 projected vibrational frequencies (cm-1)
eigval :       -0.00     0.00     0.00     0.00     0.00     0.00
eigval :      296.31   398.60   627.57  1049.56  1102.98  1233.69
eigval :     1349.73  3043.83  3139.62
           -------------------------------------------------
          |                Property Printout                |
           -------------------------------------------------

    * Orbital Energies and Occupations

         #    Occupation            Energy/Eh            Energy/eV
      -------------------------------------------------------------
         1        2.0000           -0.7670303             -20.8720
         2        2.0000           -0.7045669             -19.1722
         3        2.0000           -0.6271486             -17.0656
         4        2.0000           -0.5926489             -16.1268
         5        2.0000           -0.5807757             -15.8037
         6        2.0000           -0.5127018             -13.9513
         7        2.0000           -0.4399831             -11.9726
         8        1.0000           -0.3727169             -10.1421
         9        1.0000           -0.2959488              -8.0532 (HOMO)
        10                         -0.2493642              -6.7855 (LUMO)
        11                          0.0733532               1.9960
        12                          0.1502941               4.0897
        13                          0.2457770               6.6879
        14                          0.4506330              12.2623
      -------------------------------------------------------------
                  HL-Gap            0.0465847 Eh            1.2676 eV
             Fermi-level           -0.3395033 Eh           -9.2384 eV

     #   Z        covCN         q      C6AA      α(0)
     1   8 O      1.709    -0.024    14.798     5.194
     2   6 C      2.741     0.038    27.134     8.529
     3   6 C      0.889    -0.160    40.469    10.634
     4   1 H      0.926     0.071     2.078     2.254
     5   1 H      0.926     0.076     2.022     2.224

 Mol. C6AA /au·bohr⁶  :        332.143444
 Mol. C8AA /au·bohr⁸  :       7957.654122
 Mol. α(0) /au        :         28.834364


Wiberg/Mayer (AO) data.
largest (>0.10) Wiberg bond orders for each atom
          total WBO             WBO to atom ...
     1  O   2.592        C    3 1.370    C    2 1.203
     2  C   3.194        O    1 1.203    H    5 0.972    H    4 0.966
     3  C   1.441        O    1 1.370
     4  H   0.986        C    2 0.966
     5  H   0.994        C    2 0.972

MOs/occ written to file <molden.input>


molecular dipole:
                 x           y           z       tot (Debye)
 q only:       -0.875       0.185       0.109
   full:       -1.329       0.378       0.260       3.574
molecular quadrupole (traceless):
                xx          xy          yy          xz          yz          zz
 q only:       -1.296       0.562       0.615       0.405       0.197       0.681
  q+dip:       -4.261       2.165       1.987       1.611       0.292       2.273
   full:       -4.477       2.365       2.052       1.694      -0.756       2.425

           -------------------------------------------------
          |                Geometry Summary                 |
           -------------------------------------------------

      molecular mass/u    :       42.0367582
   center of mass at/Å    :        0.6073964      -0.0334954       0.0163984
  moments of inertia/u·Å² :        0.5063166E+01   0.3846111E+02   0.4352428E+02
rotational constants/cm⁻¹ :        0.3329465E+01   0.4383033E+00   0.3873156E+00

 * 4 selected distances

     #   Z        #   Z                                     value/Å
     1   8 O      2   6 C                                 1.3192220 (max)
     1   8 O      3   6 C                                 1.2911890
     2   6 C      4   1 H                                 1.0807380
     2   6 C      5   1 H                                 1.0748810 (min)

 * 2 distinct bonds (by element types)

   Z      Z             #   av. dist./Å        max./Å        min./Å
   1 H    6 C           2     1.0778095     1.0807380     1.0748810
   6 C    8 O           2     1.3052055     1.3192220     1.2911890

           -------------------------------------------------
          |               Frequency Printout                |
           -------------------------------------------------
 projected vibrational frequencies (cm-1)
eigval :       -0.00     0.00     0.00     0.00     0.00     0.00
Molecule has the following symmetry elements: (sigma) 
It seems to be the Cs point group
eigval :      296.31   398.60   627.57  1049.56  1102.98  1233.69
eigval :     1349.73  3043.83  3139.62
 reduced masses (amu)
   1: 13.19   2: 13.73   3:  9.95   4: 12.94   5:  9.22   6: 10.60   7:  4.56   8: 11.14
   9:  4.26  10:  5.05  11: 12.44  12: 12.67  13:  2.83  14:  1.51  15:  2.02
 IR intensities (amu)
   1:  0.15   2:  0.11   3:  0.27   4:  0.16   5:  0.25   6:  0.34   7:  0.18   8:  0.35
   9:  0.29  10:  0.12  11:  0.48  12:  0.34  13:  0.18  14:  0.18  15:  0.11
 Raman intensities (amu)
   1:  0.00   2:  0.00   3:  0.00   4:  0.00   5:  0.00   6:  0.00   7:  0.00   8:  0.00
   9:  0.00  10:  0.00  11:  0.00  12:  0.00  13:  0.00  14:  0.00  15:  0.00
 output can be read by thermo (or use thermo option).
 writing <g98.out> molden fake output.
 recommended (thermochemical) frequency scaling factor: 1.0
           -------------------------------------------------
          |             Thermodynamic Functions             |
           -------------------------------------------------

cs  symmetry found (for desy threshold:  0.10E+00) used in thermo

          ...................................................
          :                      SETUP                      :
          :.................................................:
          :  # frequencies                           9      :
          :  # imaginary freq.                       0      :
          :  linear?                             false      :
          :  only rotor calc.                    false      :
          :  symmetry                               cs      :
          :  rotational number                       1      :
          :  scaling factor                  1.0000000      :
          :  rotor cutoff                   50.0000000 cm⁻¹ :
          :  imag. cutoff                  -20.0000000 cm⁻¹ :
          :.................................................:

    mode    ω/cm⁻¹     T·S(HO)/kcal·mol⁻¹    T·S(FR)/kcal·mol⁻¹   T·S(vib)
   ------------------------------------------------------------------------
       1    296.31    -0.00000 ( 99.92%)     0.01600 (  0.08%)     0.00001
   ------------------------------------------------------------------------

   temp. (K)  partition function   enthalpy   heat capacity  entropy
                                   cal/mol     cal/K/mol   cal/K/mol   J/K/mol
 298.15  VIB   1.64                  602.255      5.041      3.007
         ROT  0.703E+04              888.752      2.981     20.585
         INT  0.116E+05             1491.007      8.022     23.592
         TR   0.264E+27             1481.254      4.968     37.118
         TOT                        2972.2611    12.9899    60.7095   254.0087

   temp. (K)  partition function   enthalpy   heat capacity  entropy
                                   cal/mol     cal/K/mol   cal/K/mol   J/K/mol
 120.00  VIB   1.04                   35.630      1.212      0.373
         ROT  0.180E+04              357.707      2.981     17.872
         INT  0.187E+04              393.337      4.193     18.245
         TR   0.673E+26              596.178      4.968     32.599
         TOT                         989.5150     9.1612    50.8435   212.7293

   temp. (K)  partition function   enthalpy   heat capacity  entropy
                                   cal/mol     cal/K/mol   cal/K/mol   J/K/mol
 100.00  VIB   1.02                   16.006      0.755      0.195
         ROT  0.137E+04              298.089      2.981     17.328
         INT  0.139E+04              314.095      3.736     17.524
         TR   0.512E+26              496.815      4.968     31.693
         TOT                         810.9103     8.7043    49.2170   205.9238

   temp. (K)  partition function   enthalpy   heat capacity  entropy
                                   cal/mol     cal/K/mol   cal/K/mol   J/K/mol
  80.00  VIB   1.01                    5.029      0.358      0.074
         ROT   977.                  238.471      2.981     16.663
         INT   983.                  243.500      3.339     16.738
         TR   0.367E+26              397.452      4.968     30.585
         TOT                         640.9520     8.3073    47.3227   197.9984

   temp. (K)  partition function   enthalpy   heat capacity  entropy
                                   cal/mol     cal/K/mol   cal/K/mol   J/K/mol
  60.00  VIB   1.00                    0.777      0.095      0.015
         ROT   635.                  178.853      2.981     15.806
         INT   635.                  179.630      3.076     15.820
         TR   0.238E+26              298.089      4.968     29.157
         TOT                         477.7192     8.0445    44.9770   188.1838

   temp. (K)  partition function   enthalpy   heat capacity  entropy
                                   cal/mol     cal/K/mol   cal/K/mol   J/K/mol
  40.00  VIB   1.00                    0.021      0.006      0.000
         ROT   346.                  119.236      2.981     14.597
         INT   346.                  119.256      2.986     14.597
         TR   0.130E+26              198.726      4.968     27.143
         TOT                         317.9822     7.9546    41.7403   174.6416

   temp. (K)  partition function   enthalpy   heat capacity  entropy
                                   cal/mol     cal/K/mol   cal/K/mol   J/K/mol
  20.00  VIB   1.00                    0.000      0.000     -0.001
         ROT   122.                   59.618      2.981     12.531
         INT   122.                   59.618      2.981     12.530
         TR   0.458E+25               99.363      4.968     23.701
         TOT                         158.9808     7.9490    36.2308   151.5899

   temp. (K)  partition function   enthalpy   heat capacity  entropy
                                   cal/mol     cal/K/mol   cal/K/mol   J/K/mol
  10.00  VIB   1.00                    0.000      0.000     -0.002
         ROT   43.2                   29.809      2.981     10.465
         INT   43.2                   29.809      2.981     10.463
         TR   0.162E+25               49.681      4.968     20.259
         TOT                          79.4904     7.9490    30.7219   128.5405

       T/K    H(0)-H(T)+PV         H(T)/Eh          T*S/Eh         G(T)/Eh
   ------------------------------------------------------------------------
    298.15    0.473660E-02    0.326256E-01    0.288451E-01    0.378059E-02
    120.00    0.157689E-02    0.294659E-01    0.972292E-02    0.197430E-01
    100.00    0.129227E-02    0.291813E-01    0.784322E-02    0.213381E-01
     80.00    0.102142E-02    0.289105E-01    0.603309E-02    0.228774E-01
     60.00    0.761294E-03    0.286503E-01    0.430053E-02    0.243498E-01
     40.00    0.506737E-03    0.283958E-01    0.266070E-02    0.257351E-01
     20.00    0.253352E-03    0.281424E-01    0.115475E-02    0.269877E-01
     10.00    0.126676E-03    0.280157E-01    0.489585E-03    0.275261E-01 (used)
   ------------------------------------------------------------------------

         :::::::::::::::::::::::::::::::::::::::::::::::::::::
         ::                  THERMODYNAMIC                  ::
         :::::::::::::::::::::::::::::::::::::::::::::::::::::
         :: total free energy          -9.075877528216 Eh   ::
         ::.................................................::
         :: total energy               -9.103403668854 Eh   ::
         :: zero point energy           0.027889049349 Eh   ::
         :: G(RRHO) w/o ZPVE           -0.000362908711 Eh   ::
         :: G(RRHO) contrib.            0.027526140638 Eh   ::
         :::::::::::::::::::::::::::::::::::::::::::::::::::::

optimized geometry written to: xtbopt.xyz


           -------------------------------------------------
          | TOTAL ENERGY               -9.103403668854 Eh   |
          | TOTAL ENTHALPY             -9.075387943490 Eh   |
          | TOTAL FREE ENERGY          -9.075877528216 Eh   |
          | GRADIENT NORM               0.000265100754 Eh/α |
          | HOMO-LUMO GAP               1.267633275738 eV   |
           -------------------------------------------------

------------------------------------------------------------------------
 * finished run on 2020/05/12 at 11:45:14.930     
------------------------------------------------------------------------
 total:
 * wall-time:     0 d,  0 h,  0 min,  0.141 sec
 *  cpu-time:     0 d,  0 h,  0 min,  0.140 sec
 * ratio c/w:     0.990 speedup
 SCF:
 * wall-time:     0 d,  0 h,  0 min,  0.003 sec
 *  cpu-time:     0 d,  0 h,  0 min,  0.003 sec
 * ratio c/w:     1.000 speedup
 ANC optimizer:
 * wall-time:     0 d,  0 h,  0 min,  0.061 sec
 *  cpu-time:     0 d,  0 h,  0 min,  0.061 sec
 * ratio c/w:     0.999 speedup
 numerical hessian:
 * wall-time:     0 d,  0 h,  0 min,  0.059 sec
 *  cpu-time:     0 d,  0 h,  0 min,  0.058 sec
 * ratio c/w:     0.988 speedup

