5
 energy: -11.271707076318 gnorm: 0.000459459731 xtb: 6.2.2 (9d81278992624c895f80dd42a50cac0aa55982e2)
C        -0.42501793002932    0.07674893771332    0.01641609601766
O         0.86413826703781    0.35864920102551    0.21403091779279
O        -1.30889323319717    0.80639272908635    0.32387443580358
H        -0.59706389245701   -0.90940241382096   -0.46641601873499
H         1.46683778864570   -0.33238845400946   -0.08790543088253
