5
 energy: -6.368782899128 gnorm: 0.088112722490 xtb: 6.2.2 (9d81278992624c895f80dd42a50cac0aa55982e2)
C         0.85474500000000   -0.22631400000000    0.49262800000000
N        -0.58164500000000   -0.05130700000000    0.35092700000000
H         1.37129700000000    0.01190300000000   -0.46287100000000
H        -0.74809200000000    0.93557400000000    0.04984600000000
H        -0.89630500000000   -0.66985600000000   -0.43053000000000
5
 energy: -6.381133560582 gnorm: 0.053893272666 xtb: 6.2.2 (9d81278992624c895f80dd42a50cac0aa55982e2)
C         0.82780319888261   -0.20461749028083    0.42843054177258
N        -0.56200751163773   -0.04196861343057    0.31365876059776
H         1.49344171880891   -0.00968090100588   -0.42842313393679
H        -0.80529355045389    0.93321733540286    0.08406373133327
H        -0.95394385559990   -0.67695033068559   -0.39772989976683
5
 energy: -6.386568549167 gnorm: 0.029801430537 xtb: 6.2.2 (9d81278992624c895f80dd42a50cac0aa55982e2)
C         0.80368699319129   -0.18683957863833    0.37645713764321
N        -0.51195688805444   -0.03058610056705    0.26017561265199
H         1.56284438581950   -0.02860098747844   -0.38660496366055
H        -0.85269410084895    0.93100047551847    0.11675164378497
H        -1.00188039010742   -0.68497380883466   -0.36677943041962
5
 energy: -6.387306429572 gnorm: 0.018829701817 xtb: 6.2.2 (9d81278992624c895f80dd42a50cac0aa55982e2)
C         0.81912443706797   -0.18555671094321    0.36740708524771
N        -0.50692851031753   -0.02527471976363    0.24087341026465
H         1.59397566531469   -0.03483092445003   -0.37538978459163
H        -0.87844995305865    0.93128140831507    0.12545879894348
H        -1.02772163900649   -0.68561905315820   -0.35834950986421
5
 energy: -6.387719812734 gnorm: 0.008779802787 xtb: 6.2.2 (9d81278992624c895f80dd42a50cac0aa55982e2)
C         0.82442032982207   -0.18403046699346    0.36067250983133
N        -0.50551572951741   -0.01979669623590    0.22212988765569
H         1.59969977537525   -0.03789996432224   -0.36689925087665
H        -0.88496331159439    0.92609740942621    0.13299020657442
H        -1.03364106408553   -0.68437028187460   -0.34889335318479
5
 energy: -6.387915960072 gnorm: 0.005194894338 xtb: 6.2.2 (9d81278992624c895f80dd42a50cac0aa55982e2)
C         0.82342117161641   -0.18181000760069    0.35356015912829
N        -0.50366627959857   -0.01351719291422    0.20057307024389
H         1.61489176003194   -0.04111562592705   -0.36083999999935
H        -0.89268095893303    0.92674332591904    0.14527906529912
H        -1.04196569311675   -0.69030049947708   -0.33857229467195
5
 energy: -6.388022141660 gnorm: 0.004401172126 xtb: 6.2.2 (9d81278992624c895f80dd42a50cac0aa55982e2)
C         0.82312657189188   -0.18185704958283    0.35380825101809
N        -0.50026183160091   -0.00803150811200    0.18118945156784
H         1.61601153544777   -0.04198060308822   -0.35829469723218
H        -0.89435445658657    0.92923673342631    0.15500452368949
H        -1.04452181915217   -0.69736757264326   -0.33170752904324
5
 energy: -6.388089339636 gnorm: 0.002469086257 xtb: 6.2.2 (9d81278992624c895f80dd42a50cac0aa55982e2)
C         0.82346271695754   -0.18273106528195    0.35662590705670
N        -0.49575983777501   -0.00262508875016    0.16173207449203
H         1.61813377884227   -0.04245545346535   -0.35736311617117
H        -0.89752813577841    0.93052926459155    0.16385247490703
H        -1.04830852224639   -0.70271765709409   -0.32484734028459
5
 energy: -6.388132018214 gnorm: 0.001351542892 xtb: 6.2.2 (9d81278992624c895f80dd42a50cac0aa55982e2)
C         0.82488172970338   -0.18393509665390    0.36021091624515
N        -0.48956434382315    0.00294389367066    0.14120898355677
H         1.61987946324949   -0.04299428266452   -0.35609936679114
H        -0.90208759110278    0.92991994779161    0.17207955234191
H        -1.05310925802694   -0.70593446214384   -0.31740008535268
5
 energy: -6.388259333530 gnorm: 0.006385647195 xtb: 6.2.2 (9d81278992624c895f80dd42a50cac0aa55982e2)
C         0.82845352519238   -0.18578040381466    0.36528374791220
N        -0.47401782717669    0.01806624233981    0.08587254975725
H         1.62959960043067   -0.04566961314616   -0.35016884774986
H        -0.91630610654305    0.92681559813007    0.19490478925790
H        -1.06772919190332   -0.71343182350905   -0.29589223917750
5
 energy: -6.388648075916 gnorm: 0.018957780967 xtb: 6.2.2 (9d81278992624c895f80dd42a50cac0aa55982e2)
C         0.83103310491021   -0.18745055730149    0.37004702214269
N        -0.45608633006369    0.03865336007234    0.01153881532819
H         1.64069222190400   -0.04918586803575   -0.34180713926286
H        -0.93181413586166    0.92223534529492    0.22643857290154
H        -1.08382486088886   -0.72425228003002   -0.26621727110956
5
 energy: -6.321424625102 gnorm: 0.198527139523 xtb: 6.2.2 (9d81278992624c895f80dd42a50cac0aa55982e2)
C         0.84392114026265   -0.19649005353256    0.39611901482694
N        -0.35933102569605    0.15209013383539   -0.39741092406155
H         1.69847962504698   -0.06810535050947   -0.29617151325091
H        -1.01403751580138    0.89520623178816    0.39973030472540
H        -1.16903222381220   -0.78270096158152   -0.10226688223988
5
 energy: -6.384037306726 gnorm: 0.072481212260 xtb: 6.2.2 (9d81278992624c895f80dd42a50cac0aa55982e2)
C         0.83066888080276   -0.18189099490345    0.35141188668448
N        -0.41874012570356    0.08228978507719   -0.14579216161108
H         1.69439152474199   -0.06422142406150   -0.30786288775567
H        -0.97670225015635    0.90950443794581    0.29872049836131
H        -1.12961802968484   -0.74568180405806   -0.19647733567904
5
 energy: -6.388661831983 gnorm: 0.036400737134 xtb: 6.2.2 (9d81278992624c895f80dd42a50cac0aa55982e2)
C         0.83408184206848   -0.19088977972887    0.38059845082620
N        -0.45163560199491    0.06388990423052   -0.07412379269434
H         1.62403951303711   -0.04926542581414   -0.33635913939166
H        -0.92679363876786    0.91598679558487    0.26265288548920
H        -1.07969211434281   -0.73972149427238   -0.23276840422940
5
 energy: -6.389591022091 gnorm: 0.020568243757 xtb: 6.2.2 (9d81278992624c895f80dd42a50cac0aa55982e2)
C         0.82615347529931   -0.18534655335106    0.36502575614881
N        -0.45038313152007    0.05840700127921   -0.05620341670938
H         1.64753543963162   -0.05310301908768   -0.33153370513872
H        -0.93606353731327    0.91001872786922    0.25681180008440
H        -1.08724224609759   -0.72997615670970   -0.23410043438512
5
 energy: -6.389781253267 gnorm: 0.015559690741 xtb: 6.2.2 (9d81278992624c895f80dd42a50cac0aa55982e2)
C         0.82290032499316   -0.18378645733423    0.35786552276823
N        -0.45118470663275    0.05626330275130   -0.04864357963350
H         1.65102293656509   -0.05312596655616   -0.32833793385072
H        -0.93536062823784    0.90706451491425    0.25349032532244
H        -1.08737792668766   -0.72641539377517   -0.23437433460645
5
 energy: -6.389909398326 gnorm: 0.012702436906 xtb: 6.2.2 (9d81278992624c895f80dd42a50cac0aa55982e2)
C         0.82071798039867   -0.17640163268529    0.35316225159687
N        -0.45370037080719    0.05585120780629   -0.04742180596630
H         1.65267920480837   -0.06177471579189   -0.32768096458681
H        -0.93894651578328    0.90476144400917    0.25757095879582
H        -1.08075029861657   -0.72243630333829   -0.23563043983959
5
 energy: -6.389868825527 gnorm: 0.021193358909 xtb: 6.2.2 (9d81278992624c895f80dd42a50cac0aa55982e2)
C         0.81159566745228   -0.18736148586620    0.33026228149968
N        -0.46081028431377    0.05908419078366   -0.05300190476977
H         1.66178958855703   -0.04060160833526   -0.31104043462348
H        -0.92002744935315    0.89330592923312    0.25039835033941
H        -1.09254752234239   -0.72442702581532   -0.21661829244583
5
 energy: -6.390324673768 gnorm: 0.008513652717 xtb: 6.2.2 (9d81278992624c895f80dd42a50cac0aa55982e2)
C         0.81375600124829   -0.17756771182451    0.33648790769806
N        -0.45798338405765    0.06237824091566   -0.06689844697561
H         1.66010818994458   -0.05668567981889   -0.31551659880089
H        -0.93214549960127    0.89595187707032    0.26428410991030
H        -1.08373530753396   -0.72407672634258   -0.21835697183186
5
 energy: -6.390668879316 gnorm: 0.010013514774 xtb: 6.2.2 (9d81278992624c895f80dd42a50cac0aa55982e2)
C         0.81165271609041   -0.17044965405382    0.33479163644321
N        -0.45646233121103    0.07092468449880   -0.09742295963115
H         1.66384246302803   -0.06693750497566   -0.31304503152324
H        -0.93918066185215    0.89158737729162    0.28261750629518
H        -1.07985218605525   -0.72512490276094   -0.20694115158400
5
 energy: -6.390847915700 gnorm: 0.010361606580 xtb: 6.2.2 (9d81278992624c895f80dd42a50cac0aa55982e2)
C         0.80654354019991   -0.16867458553958    0.32807585870929
N        -0.45663357165291    0.08022715610985   -0.12915803031142
H         1.66812065387629   -0.06861906861407   -0.30653881533524
H        -0.93898402415435    0.88239854842622    0.29677022247188
H        -1.07904659826894   -0.72533205038243   -0.18914923553451
5
 energy: -6.390940637481 gnorm: 0.002919733991 xtb: 6.2.2 (9d81278992624c895f80dd42a50cac0aa55982e2)
C         0.80319759021883   -0.17002318970898    0.32660087550723
N        -0.45666654593389    0.08176277862568   -0.13236309940561
H         1.66713339463327   -0.06578931228327   -0.30446391060014
H        -0.93414404182506    0.87566755902995    0.29542174142046
H        -1.07952039709316   -0.72161783566339   -0.18519560692195
5
 energy: -6.390946571586 gnorm: 0.000486580287 xtb: 6.2.2 (9d81278992624c895f80dd42a50cac0aa55982e2)
C         0.80249056672041   -0.17098988887131    0.32578766538743
N        -0.45725772769015    0.08227403255562   -0.13291635641546
H         1.66746731467840   -0.06446430410117   -0.30362539240530
H        -0.93254836671056    0.87409306087828    0.29477346316328
H        -1.08015178699811   -0.72091290046143   -0.18401937972995
5
 energy: -6.390946886584 gnorm: 0.000139866874 xtb: 6.2.2 (9d81278992624c895f80dd42a50cac0aa55982e2)
C         0.80242514723490   -0.17149433247038    0.32542207120283
N        -0.45764673513321    0.08234339381898   -0.13286938461638
H         1.66765855803360   -0.06407148570699   -0.30336072751162
H        -0.93227361783265    0.87442429920990    0.29468013648107
H        -1.08016335230264   -0.72120187485151   -0.18387209555590
