 Entering Gaussian System
 *********************************************
 Gaussian 98:
 frequency output generated by the xtb code
 *********************************************
                         Standard orientation:
 --------------------------------------------------------------------
  Center     Atomic     Atomic              Coordinates (Angstroms)
  Number     Number      Type              X           Y           Z
 --------------------------------------------------------------------
    1          7             0        0.610000   -0.780478    0.243213
    2          6             0        0.049749   -0.036294   -0.909203
    3          6             0       -0.656597    0.825453    0.235393
    4          6             0        0.810219    0.636014    0.234154
    5          6             0       -0.813373   -0.644696    0.196443
 --------------------------------------------------------------------
     1 basis functions        1 primitive gaussians
     1 alpha electrons        1 beta electrons

 Harmonic frequencies (cm**-1), IR intensities (KM/Mole),
 Raman scattering activities (A**4/amu), Raman depolarization ratios,
 reduced masses (AMU), force constants (mDyne/A) and normal coordinates:
                      1                      2                      3
                        a                      a                      a 
 Frequencies --   262.0838               414.9170               548.8861
 Red. masses --    12.3107                12.0317                12.7518
 Frc consts  --     0.0000                 0.0000                 0.0000
 IR Inten    --     1.2120                 0.2645                 0.6233
 Raman Activ --     0.0000                 0.0000                 0.0000
 Depolar     --     0.0000                 0.0000                 0.0000
 Atom AN      X      Y      Z        X      Y      Z        X      Y      Z
   1   7     0.30   0.24   0.01    -0.03   0.05  -0.08     0.10  -0.11  -0.59
   2   6    -0.48  -0.38  -0.01    -0.30   0.38  -0.02     0.27  -0.34   0.08
   3   6     0.36   0.28   0.01     0.01   0.00  -0.60     0.00   0.00  -0.14
   4   6    -0.14  -0.05   0.34     0.16  -0.22   0.35    -0.20   0.22   0.35
   5   6    -0.07  -0.12  -0.34     0.17  -0.21   0.35    -0.18   0.23   0.35
                      4                      5                      6
                        a                      a                      a 
 Frequencies --   889.6195               998.1040              1054.7073
 Red. masses --    12.3228                12.5018                12.5205
 Frc consts  --     0.0000                 0.0000                 0.0000
 IR Inten    --     0.1721                 0.5043                 0.2983
 Raman Activ --     0.0000                 0.0000                 0.0000
 Depolar     --     0.0000                 0.0000                 0.0000
 Atom AN      X      Y      Z        X      Y      Z        X      Y      Z
   1   7     0.24  -0.31   0.06    -0.31   0.39   0.06    -0.40  -0.31  -0.01
   2   6    -0.00   0.01  -0.16     0.11  -0.13  -0.68     0.06   0.05   0.00
   3   6    -0.32   0.41   0.04     0.16  -0.21   0.21     0.38   0.30   0.01
   4   6    -0.38  -0.36   0.02    -0.12  -0.15   0.20    -0.31   0.39  -0.04
   5   6     0.44   0.28   0.04     0.17   0.07   0.21     0.31  -0.40   0.04
                      7                      8                      9
                        a                      a                      a 
 Frequencies --  1136.1646              1159.1947              1406.2449
 Red. masses --    12.4886                12.2174                12.3709
 Frc consts  --     0.0000                 0.0000                 0.0000
 IR Inten    --     1.0170                 1.2450                 0.3017
 Raman Activ --     0.0000                 0.0000                 0.0000
 Depolar     --     0.0000                 0.0000                 0.0000
 Atom AN      X      Y      Z        X      Y      Z        X      Y      Z
   1   7     0.26  -0.34   0.25    -0.25  -0.20  -0.01     0.24  -0.31   0.16
   2   6    -0.20   0.25  -0.16    -0.32  -0.26  -0.01    -0.01   0.03  -0.54
   3   6     0.36  -0.45  -0.12    -0.23  -0.18  -0.00    -0.22   0.27   0.10
   4   6    -0.32   0.20   0.01     0.39   0.34   0.22     0.31   0.28   0.14
   5   6    -0.12   0.36   0.01     0.43   0.30  -0.21    -0.35  -0.24   0.13
