5
 energy: -10.942153595372 gnorm: 0.207396086257 xtb: 6.2.2 (9d81278992624c895f80dd42a50cac0aa55982e2)
N         0.67249700000000   -0.85877000000000    0.21162900000000
C         0.01742300000000    0.00014000000000   -0.75443900000000
C        -0.70132700000000    0.88433600000000    0.16123300000000
C         0.83063900000000    0.63787600000000    0.20995100000000
C        -0.81923300000000   -0.66358200000000    0.17162600000000
5
 energy: -10.971491490928 gnorm: 0.100743570909 xtb: 6.2.2 (9d81278992624c895f80dd42a50cac0aa55982e2)
N         0.63389453122714   -0.81092965557663    0.24886281413859
C         0.02911037269448   -0.01254181154651   -0.82700145435636
C        -0.67158978521643    0.84510617001119    0.21315293160327
C         0.84036375379802    0.64869496218945    0.20191492493165
C        -0.83177987250322   -0.67032966507750    0.16307078368285
5
 energy: -10.982468583369 gnorm: 0.013157729619 xtb: 6.2.2 (9d81278992624c895f80dd42a50cac0aa55982e2)
N         0.60825539701788   -0.77856382032497    0.25352437974584
C         0.04219811905147   -0.02690742318717   -0.90262869867989
C        -0.65231257153280    0.82001091040529    0.23535564855858
C         0.81763972613008    0.63696867336075    0.22584730535877
C        -0.81578167066663   -0.65150834025390    0.18790136501669
5
 energy: -10.982693101076 gnorm: 0.004429529506 xtb: 6.2.2 (9d81278992624c895f80dd42a50cac0aa55982e2)
N         0.60976261000091   -0.78027359679259    0.24670881252534
C         0.04435056461850   -0.02942603306257   -0.90976608679704
C        -0.65508390849969    0.82363695925219    0.23152712721171
C         0.81137853573725    0.63268116432135    0.23460299140019
C        -0.81040880185698   -0.64661849371838    0.19692715565980
5
 energy: -10.982706990268 gnorm: 0.002734693279 xtb: 6.2.2 (9d81278992624c895f80dd42a50cac0aa55982e2)
N         0.61007127934232   -0.78062612021112    0.24538919298350
C         0.04521315927264   -0.03051613516600   -0.90987935015571
C        -0.65603895669073    0.82485180840598    0.23138485503224
C         0.81129402034693    0.63281366987404    0.23539109436584
C        -0.81054050227116   -0.64652322290290    0.19771420777413
5
 energy: -10.982718655138 gnorm: 0.001715312095 xtb: 6.2.2 (9d81278992624c895f80dd42a50cac0aa55982e2)
N         0.60999935409750   -0.78049486550758    0.24404046588802
C         0.04690103098684   -0.03265511981409   -0.90990766795074
C        -0.65683265607518    0.82583034127835    0.23233791410394
C         0.81140614168970    0.63374106245558    0.23561526167333
C        -0.81147487069886   -0.64642141841226    0.19791402628545
5
 energy: -10.982724793974 gnorm: 0.001852455685 xtb: 6.2.2 (9d81278992624c895f80dd42a50cac0aa55982e2)
N         0.60985785643914   -0.78029282596519    0.24329512946477
C         0.04864224625046   -0.03487152165792   -0.90961743462618
C        -0.65694577093534    0.82592656885560    0.23396738067592
C         0.81110502581309    0.63504901299553    0.23503848229740
C        -0.81266035756734   -0.64581123422801    0.19731644218809
5
 energy: -10.982729320947 gnorm: 0.000827383869 xtb: 6.2.2 (9d81278992624c895f80dd42a50cac0aa55982e2)
N         0.61000343786864   -0.78047478028768    0.24321366468762
C         0.04975251773909   -0.03629183859188   -0.90920283202857
C        -0.65660187956358    0.82544893081342    0.23539220753827
C         0.81021500048914    0.63601790072042    0.23415756784422
C        -0.81337007653328   -0.64470021265428    0.19643939195846
