      -----------------------------------------------------------      
     |                   =====================                   |     
     |                           x T B                           |     
     |                   =====================                   |     
     |                         S. Grimme                         |     
     |          Mulliken Center for Theoretical Chemistry        |     
     |                    University of Bonn                     |     
      -----------------------------------------------------------      

   * xtb version 6.2.2 (9d81278992624c895f80dd42a50cac0aa55982e2) compiled by '@Darwin' on 04/03/2020

   xtb is free software: you can redistribute it and/or modify it under
   the terms of the GNU Lesser General Public License as published by
   the Free Software Foundation, either version 3 of the License, or
   (at your option) any later version.
   
   xtb is distributed in the hope that it will be useful,
   but WITHOUT ANY WARRANTY; without even the implied warranty of
   MERCHANTABILITY or FITNESS FOR A PARTICULAR PURPOSE.  See the
   GNU Lesser General Public License for more details.
   
   Cite this work as:
   * S. Grimme, C. Bannwarth, P. Shushkov, J. Chem. Theory Comput., 2017,
     13, 1989-2009. DOI: 10.1021/acs.jctc.7b00118
   * C. Bannwarth, S. Ehlert and S. Grimme., J. Chem. Theory Comput., 2019,
     15, 1652-1671. DOI: 10.1021/acs.jctc.8b01176
   * P. Pracht, E. Caldeweyher, S. Ehlert, S. Grimme, ChemRxiv, 2019, preprint.
     DOI: 10.26434/chemrxiv.8326202.v1
   
   for DFT-D4:
   * E. Caldeweyher, C. Bannwarth and S. Grimme, J. Chem. Phys., 2017,
     147, 034112. DOI: 10.1063/1.4993215
   * E. Caldeweyher, S. Ehlert, A. Hansen, H. Neugebauer, S. Spicher,
     C. Bannwarth and S. Grimme, J. Chem. Phys., 2019, 150, 154122.
     DOI: 10.1063/1.5090222
   
   for sTDA-xTB:
   * S. Grimme and C. Bannwarth, J. Chem. Phys., 2016, 145, 054103.
     DOI: 10.1063/1.4959605
   
   in the mass-spec context:
   * V. Asgeirsson, C. Bauer and S. Grimme, Chem. Sci., 2017, 8, 4879.
     DOI: 10.1039/c7sc00601b
   
   for metadynamics refer to:
   * S. Grimme, J. Chem. Theory Comput., 2019, 155, 2847-2862
     DOI: 10.1021/acs.jctc.9b00143
   
   with help from (in alphabetical order)
   C. Bannwarth, F. Bohle, G. Brandenburg, E. Caldeweyher, M. Checinski,
   S. Dohm, S. Ehlert, S. Ehrlich, F. März, H. Neugebauer, J. Pisarek,
   P. Pracht, P. Shushkov, and S. Spicher.
   
 * started run on 2020/05/12 at 11:44:52.015     

           -------------------------------------------------
          |                Calculation Setup                |
           -------------------------------------------------

          program call               : xtb --input H1C3N1_5_S_0.input H1C3N1_5_S_0.xyz --ohess --molden --namespace H1C3N1_5_S_0 output.out
          calculation namespace      : H1C3N1_5_S_0
          coordinate file            : H1C3N1_5_S_0.xyz
          number of atoms            :                     5
          number of electrons        :                    18
          charge                     :                     0
          spin                       :                   0.0
          first test random number   :      0.54151974182952

   ID    Z sym.   atoms
    1    6 C      1-3
    2    7 N      4
    3    1 H      5

           -------------------------------------------------
          |                 G F N 2 - x T B                 |
           -------------------------------------------------

        Reference                      10.1021/acs.jctc.8b01176
      * Hamiltonian:
        H0-scaling (s, p, d)           1.850000    2.230000    2.230000
        zeta-weighting                 0.500000
      * Dispersion:
        s8                             2.700000
        a1                             0.520000
        a2                             5.000000
        s9                             5.000000
      * Repulsion:
        kExp                           1.500000    1.000000
        rExp                           1.000000
      * Coulomb:
        alpha                          2.000000
        third order                    shell-resolved
        anisotropic                    true
        a3                             3.000000
        a5                             4.000000
        cn-shift                       1.200000
        cn-exp                         4.000000
        max-rad                        5.000000


          ...................................................
          :                      SETUP                      :
          :.................................................:
          :  # basis functions                  17          :
          :  # atomic orbitals                  17          :
          :  # shells                            9          :
          :  # electrons                        18          :
          :  max. iterations                   250          :
          :  Hamiltonian                  GFN2-xTB          :
          :  restarted?                      false          :
          :  GBSA solvation                  false          :
          :  PC potential                    false          :
          :  electronic temp.          300.0000000     K    :
          :  accuracy                    1.0000000          :
          :  -> integral cutoff          0.2500000E+02      :
          :  -> integral neglect         0.1000000E-07      :
          :  -> SCF convergence          0.1000000E-05 Eh   :
          :  -> wf. convergence          0.1000000E-03 e    :
          :  Broyden damping             0.4000000          :
          ...................................................

 iter      E             dE          RMSdq      gap      omega  full diag
   1     -9.2844714 -0.928447E+01  0.104E+01    0.89       0.0  T
   2     -8.6484081  0.636063E+00  0.123E+01    0.69       1.0  T
   3     -9.4057615 -0.757353E+00  0.560E+00    0.61       1.0  T
   4     -9.2546757  0.151086E+00  0.548E+00    0.39       1.0  T
   5     -9.4070253 -0.152350E+00  0.300E+00    0.56       1.0  T
   6     -9.4671448 -0.601195E-01  0.804E-01    0.45       1.0  T
   7     -9.4672017 -0.569058E-04  0.496E-01    0.44       1.0  T
   8     -9.4668612  0.340542E-03  0.460E-01    0.44       1.0  T
   9     -9.4676748 -0.813651E-03  0.199E-01    0.44       1.0  T
  10     -9.4678162 -0.141397E-03  0.107E-01    0.44       1.0  T
  11     -9.4678592 -0.429964E-04  0.384E-02    0.44       1.2  T
  12     -9.4678664 -0.721714E-05  0.551E-03    0.44       8.1  T
  13     -9.4678665 -0.661885E-07  0.353E-03    0.44      12.7  T
  14     -9.4678665 -0.387926E-07  0.948E-04    0.44      47.2  T
  15     -9.4678665 -0.254641E-08  0.538E-04    0.44      83.1  T

   *** convergence criteria satisfied after 15 iterations ***

         #    Occupation            Energy/Eh            Energy/eV
      -------------------------------------------------------------
         1        2.0000           -0.6651563             -18.0998
       ...           ...                  ...                  ...
         3        2.0000           -0.5933355             -16.1455
         4        2.0000           -0.5453871             -14.8407
         5        2.0000           -0.5006582             -13.6236
         6        2.0000           -0.4875996             -13.2683
         7        2.0000           -0.4820990             -13.1186
         8        2.0000           -0.4386461             -11.9362
         9        1.9996           -0.4249826             -11.5644 (HOMO)
        10        0.0004           -0.4089150             -11.1271 (LUMO)
        11                         -0.3552921              -9.6680
        12                         -0.3306637              -8.9978
        13                         -0.3112912              -8.4707
        14                          0.0604132               1.6439
       ...                                ...                  ...
        17                          0.1348799               3.6703
      -------------------------------------------------------------
                  HL-Gap            0.0160676 Eh            0.4372 eV
             Fermi-level           -0.4169488 Eh          -11.3458 eV

 SCC (total)                   0 d,  0 h,  0 min,  0.004 sec
 SCC setup                      ...        0 min,  0.000 sec (  3.296%)
 Dispersion                     ...        0 min,  0.000 sec (  0.659%)
 integral evaluation            ...        0 min,  0.001 sec ( 26.539%)
 zeroth order Hamiltonian       ...        0 min,  0.000 sec (  0.508%)
 iterations                     ...        0 min,  0.001 sec ( 36.380%)
 molecular gradient             ...        0 min,  0.001 sec ( 29.733%)
 printout                       ...        0 min,  0.000 sec (  2.540%)

         :::::::::::::::::::::::::::::::::::::::::::::::::::::
         ::                     SUMMARY                     ::
         :::::::::::::::::::::::::::::::::::::::::::::::::::::
         :: total energy              -9.413596951070 Eh    ::
         :: gradient norm              0.388063337863 Eh/a0 ::
         :: HOMO-LUMO gap              0.437220361248 eV    ::
         ::.................................................::
         :: SCC energy                -9.467866548547 Eh    ::
         :: -> isotropic ES           -0.000189093211 Eh    ::
         :: -> anisotropic ES          0.000101563585 Eh    ::
         :: -> anisotropic XC          0.024375743812 Eh    ::
         :: -> dispersion             -0.002116707996 Eh    ::
         :: repulsion energy           0.054269504745 Eh    ::
         :: add. restraining           0.000000000000 Eh    ::
         :::::::::::::::::::::::::::::::::::::::::::::::::::::

      ----------------------------------------------------------- 
     |                   =====================                   |
     |                        A N C O P T                        |
     |                   =====================                   |
     |               Approximate Normal Coordinate               |
     |                Rational Function Optimizer                |
      ----------------------------------------------------------- 

          ...................................................
          :                      SETUP                      :
          :.................................................:
          :   optimization level            normal          :
          :   max. optcycles                   200          :
          :   ANC micro-cycles                  20          :
          :   degrees of freedom                 9          :
          :.................................................:
          :   RF solver                   davidson          :
          :   write xtbopt.log                true          :
          :   linear?                        false          :
          :   energy convergence         0.5000000E-05 Eh   :
          :   grad. convergence          0.1000000E-02 Eh/α :
          :   maximium RF displ.         1.0000000          :
          :   Hlow (freq-cutoff)         0.1000000E-01      :
          :   Hmax (freq-cutoff)         5.0000000          :
          :   S6 in model hess.         20.0000000          :
          ...................................................

generating ANC from model Hessian ...
Using Lindh-Hessian (1995)
 Shifting diagonal of input Hessian by    6.8430091860771057E-003
 Lowest  eigenvalues of input Hessian
   -0.000000   -0.000000   -0.000000    0.000000    0.000000    0.000000
    0.010000    0.018114    0.042436    0.103792    0.115978    0.626802
    0.792619    0.971275    1.099987
 Highest eigenvalues
    0.103792    0.115978    0.626802    0.792619    0.971275    1.099987


........................................................................
.............................. CYCLE    1 ..............................
........................................................................
   1     -9.4678665 -0.946787E+01  0.114E-04    0.44       0.0  T
   2     -9.4678665  0.416168E-09  0.252E-04    0.44     177.5  T
   3     -9.4678665 -0.372363E-09  0.111E-04    0.44     402.0  T
     SCC iter.                  ...        0 min,  0.001 sec
     gradient                   ...        0 min,  0.001 sec
 * total energy  :    -9.4135970 Eh     change       -0.2118767E-09 Eh
   gradient norm :     0.3880620 Eh/α   predicted     0.0000000E+00 (-100.00%)
   displ. norm   :     0.4476122 α      lambda       -0.1630841E+00
   maximum displ.:     0.3363428 α      in ANC's #6, #9, #7, ...

........................................................................
.............................. CYCLE    2 ..............................
........................................................................
   1     -9.6789731 -0.967897E+01  0.317E+00    1.38       0.0  T
   2     -9.6431533  0.358198E-01  0.306E+00    1.34       1.0  T
   3     -9.6384856  0.466771E-02  0.290E+00    1.44       1.0  T
   4     -9.6666076 -0.281220E-01  0.200E+00    1.44       1.0  T
   5     -9.6871644 -0.205568E-01  0.303E-01    1.43       1.0  T
   6     -9.6874755 -0.311034E-03  0.130E-01    1.41       1.0  T
   7     -9.6874918 -0.163009E-04  0.504E-02    1.41       1.0  T
   8     -9.6874933 -0.153763E-05  0.131E-02    1.41       3.4  T
   9     -9.6874934 -0.136747E-06  0.386E-03    1.41      11.6  T
  10     -9.6874935 -0.544602E-07  0.112E-03    1.41      39.9  T
  11     -9.6874935 -0.407056E-08  0.287E-04    1.41     155.8  T
  12     -9.6874935 -0.260428E-09  0.491E-05    1.41     911.3  T
     SCC iter.                  ...        0 min,  0.001 sec
     gradient                   ...        0 min,  0.001 sec
 * total energy  :    -9.5603017 Eh     change       -0.1467048E+00 Eh
   gradient norm :     0.2720167 Eh/α   predicted    -0.9787956E-01 ( -33.28%)
   displ. norm   :     0.7222579 α      lambda       -0.1818876E+00
   maximum displ.:     0.5278519 α      in ANC's #6, #9, #3, ...

........................................................................
.............................. CYCLE    3 ..............................
........................................................................
   1    -10.0333131 -0.100333E+02  0.407E+00    3.87       0.0  T
   2    -10.0348941 -0.158098E-02  0.239E+00    3.89       1.0  T
   3    -10.0291904  0.570370E-02  0.113E+00    3.88       1.0  T
   4    -10.0354049 -0.621445E-02  0.233E-01    3.88       1.0  T
   5    -10.0355664 -0.161555E-03  0.902E-02    3.88       1.0  T
   6    -10.0355719 -0.547909E-05  0.467E-02    3.88       1.0  T
   7    -10.0355744 -0.253138E-05  0.469E-03    3.88       9.5  T
   8    -10.0355744 -0.409730E-08  0.181E-03    3.88      24.7  T
   9    -10.0355745 -0.916114E-08  0.216E-04    3.88     207.3  T
  10    -10.0355745 -0.419149E-10  0.499E-05    3.88     897.0  T
     SCC iter.                  ...        0 min,  0.001 sec
     gradient                   ...        0 min,  0.001 sec
 * total energy  :    -9.5621608 Eh     change       -0.1859030E-02 Eh
   gradient norm :     0.8066504 Eh/α   predicted    -0.1383852E+00 (7343.95%)
   displ. norm   :     0.4175602 α      lambda       -0.2423418E+00
   maximum displ.:     0.2757653 α      in ANC's #3, #9, #5, ...

........................................................................
.............................. CYCLE    4 ..............................
........................................................................
   1     -9.8788067 -0.987881E+01  0.187E+00    3.01       0.0  T
   2     -9.8773064  0.150037E-02  0.163E+00    2.99       1.0  T
   3     -9.8817643 -0.445793E-02  0.102E+00    3.10       1.0  T
   4     -9.8847893 -0.302500E-02  0.285E-01    3.09       1.0  T
   5     -9.8849884 -0.199108E-03  0.131E-01    3.09       1.0  T
   6     -9.8850668 -0.784175E-04  0.325E-02    3.10       1.4  T
   7     -9.8850668  0.827537E-08  0.815E-03    3.10       5.5  T
   8     -9.8850670 -0.175204E-06  0.232E-03    3.10      19.2  T
   9     -9.8850670 -0.129529E-07  0.508E-04    3.10      88.0  T
  10     -9.8850670 -0.301329E-09  0.850E-05    3.10     526.1  T
     SCC iter.                  ...        0 min,  0.001 sec
     gradient                   ...        0 min,  0.001 sec
 * total energy  :    -9.6520800 Eh     change       -0.8991921E-01 Eh
   gradient norm :     0.1883021 Eh/α   predicted    -0.1422978E+00 (  58.25%)
   displ. norm   :     0.6325281 α      lambda       -0.5621215E-01
   maximum displ.:     0.4329469 α      in ANC's #3, #1, #2, ...

........................................................................
.............................. CYCLE    5 ..............................
........................................................................
   1     -9.8698849 -0.986988E+01  0.133E+00    3.14       0.0  T
   2     -9.8672813  0.260356E-02  0.133E+00    3.21       1.0  T
   3     -9.8703430 -0.306168E-02  0.836E-01    3.22       1.0  T
   4     -9.8712196 -0.876630E-03  0.479E-01    3.19       1.0  T
   5     -9.8724249 -0.120529E-02  0.125E-01    3.21       1.0  T
   6     -9.8725148 -0.898307E-04  0.252E-02    3.21       1.8  T
   7     -9.8725154 -0.620413E-06  0.286E-03    3.21      15.6  T
   8     -9.8725154 -0.122566E-07  0.134E-03    3.21      33.3  T
   9     -9.8725154 -0.314706E-08  0.203E-04    3.21     219.9  T
  10     -9.8725154 -0.153015E-10  0.340E-05    3.21    1314.8  T
     SCC iter.                  ...        0 min,  0.001 sec
     gradient                   ...        0 min,  0.001 sec
 * total energy  :    -9.6627426 Eh     change       -0.1066260E-01 Eh
   gradient norm :     0.2066614 Eh/α   predicted    -0.3935110E-01 ( 269.06%)
   displ. norm   :     0.4963531 α      lambda       -0.4663453E-01
   maximum displ.:     0.3512416 α      in ANC's #1, #5, #6, ...

........................................................................
.............................. CYCLE    6 ..............................
........................................................................
   1     -9.8936914 -0.989369E+01  0.141E+00    4.08       0.0  T
   2     -9.8934058  0.285565E-03  0.908E-01    4.05       1.0  T
   3     -9.8887636  0.464223E-02  0.103E+00    4.11       1.0  T
   4     -9.8944378 -0.567417E-02  0.631E-02    4.10       1.0  T
   5     -9.8944505 -0.127522E-04  0.340E-02    4.09       1.3  T
   6     -9.8944492  0.130838E-05  0.296E-02    4.10       1.5  T
   7     -9.8944522 -0.300079E-05  0.278E-03    4.10      16.1  T
   8     -9.8944522 -0.220652E-08  0.840E-04    4.10      53.3  T
   9     -9.8944522 -0.523116E-09  0.232E-04    4.10     193.1  T
     SCC iter.                  ...        0 min,  0.001 sec
     gradient                   ...        0 min,  0.001 sec
 * total energy  :    -9.6864296 Eh     change       -0.2368705E-01 Eh
   gradient norm :     0.1229851 Eh/α   predicted    -0.2906188E-01 (  22.69%)
   displ. norm   :     0.5831931 α      lambda       -0.3282582E-01
   maximum displ.:     0.3979576 α      in ANC's #2, #1, #3, ...

........................................................................
.............................. CYCLE    7 ..............................
........................................................................
   1     -9.9072788 -0.990728E+01  0.219E+00    3.45       0.0  T
   2     -9.9022859  0.499287E-02  0.188E+00    3.27       1.0  T
   3     -9.9038068 -0.152089E-02  0.133E+00    3.45       1.0  T
   4     -9.9103867 -0.657996E-02  0.244E-01    3.38       1.0  T
   5     -9.9105753 -0.188605E-03  0.151E-01    3.37       1.0  T
   6     -9.9106807 -0.105366E-03  0.631E-02    3.37       1.0  T
   7     -9.9106881 -0.743722E-05  0.640E-03    3.37       7.0  T
   8     -9.9106881  0.954070E-08  0.376E-03    3.37      11.9  T
   9     -9.9106882 -0.321504E-07  0.672E-04    3.37      66.6  T
  10     -9.9106882 -0.351958E-09  0.104E-04    3.37     429.3  T
     SCC iter.                  ...        0 min,  0.001 sec
     gradient                   ...        0 min,  0.001 sec
 * total energy  :    -9.6806625 Eh     change        0.5767056E-02 Eh
   gradient norm :     0.2863281 Eh/α   predicted    -0.2199518E-01 (-481.39%)
   displ. norm   :     0.3939919 α      lambda       -0.5512174E-01
   maximum displ.:     0.3328510 α      in ANC's #2, #5, #1, ...

........................................................................
.............................. CYCLE    8 ..............................
........................................................................
   1     -9.9992496 -0.999925E+01  0.167E+00    4.34       0.0  T
   2     -9.9993365 -0.869003E-04  0.113E+00    4.49       1.0  T
   3     -9.9966193  0.271723E-02  0.994E-01    4.33       1.0  T
   4    -10.0009578 -0.433851E-02  0.912E-02    4.35       1.0  T
   5    -10.0009812 -0.233769E-04  0.625E-02    4.36       1.0  T
   6    -10.0009952 -0.139977E-04  0.201E-02    4.36       2.2  T
   7    -10.0009953 -0.178227E-06  0.180E-03    4.36      24.9  T
   8    -10.0009953 -0.242695E-08  0.650E-04    4.36      68.8  T
   9    -10.0009953 -0.411612E-09  0.202E-04    4.36     221.4  T
     SCC iter.                  ...        0 min,  0.001 sec
     gradient                   ...        0 min,  0.001 sec
 * total energy  :    -9.7052938 Eh     change       -0.2463129E-01 Eh
   gradient norm :     0.0616239 Eh/α   predicted    -0.3183913E-01 (  29.26%)
   displ. norm   :     0.6910108 α      lambda       -0.2549748E-01
   maximum displ.:     0.5418248 α      in ANC's #1, #3, #2, ...

........................................................................
.............................. CYCLE    9 ..............................
........................................................................
   1     -9.9203361 -0.992034E+01  0.104E+00    4.41       0.0  T
   2     -9.9201676  0.168557E-03  0.671E-01    4.50       1.0  T
   3     -9.9193402  0.827393E-03  0.611E-01    4.46       1.0  T
   4     -9.9206111 -0.127095E-02  0.223E-01    4.46       1.0  T
   5     -9.9208754 -0.264282E-03  0.480E-02    4.49       1.0  T
   6     -9.9208802 -0.478945E-05  0.170E-02    4.48       2.6  T
   7     -9.9208804 -0.168870E-06  0.219E-03    4.48      20.4  T
   8     -9.9208804 -0.123639E-08  0.512E-04    4.48      87.4  T
   9     -9.9208804 -0.345850E-09  0.175E-04    4.48     255.7  T
     SCC iter.                  ...        0 min,  0.001 sec
     gradient                   ...        0 min,  0.001 sec
 * total energy  :    -9.7042903 Eh     change        0.1003569E-02 Eh
   gradient norm :     0.0868848 Eh/α   predicted    -0.1883629E-01 (*******%)
   displ. norm   :     0.2263403 α      lambda       -0.1747803E-01
   maximum displ.:     0.1641675 α      in ANC's #3, #1, #6, ...

........................................................................
.............................. CYCLE   10 ..............................
........................................................................
   1     -9.9649828 -0.996498E+01  0.386E-01    4.50       0.0  T
   2     -9.9650030 -0.201417E-04  0.284E-01    4.46       1.0  T
   3     -9.9649931  0.990585E-05  0.197E-01    4.48       1.0  T
   4     -9.9650769 -0.838375E-04  0.702E-02    4.48       1.0  T
   5     -9.9651005 -0.235719E-04  0.355E-02    4.47       1.3  T
   6     -9.9651047 -0.424842E-05  0.938E-03    4.47       4.8  T
   7     -9.9651048 -0.374849E-07  0.147E-03    4.47      30.5  T
   8     -9.9651048 -0.987516E-09  0.241E-04    4.47     185.8  T
   9     -9.9651048 -0.202096E-10  0.123E-04    4.47     364.2  T
     SCC iter.                  ...        0 min,  0.001 sec
     gradient                   ...        0 min,  0.001 sec
 * total energy  :    -9.7159606 Eh     change       -0.1167034E-01 Eh
   gradient norm :     0.0387016 Eh/α   predicted    -0.9186711E-02 ( -21.28%)
   displ. norm   :     0.3219498 α      lambda       -0.8388069E-02
   maximum displ.:     0.1957475 α      in ANC's #1, #3, #6, ...

........................................................................
.............................. CYCLE   11 ..............................
........................................................................
   1     -9.9974546 -0.999745E+01  0.834E-01    4.49       0.0  T
   2     -9.9975046 -0.499636E-04  0.551E-01    4.38       1.0  T
   3     -9.9972888  0.215815E-03  0.400E-01    4.47       1.0  T
   4     -9.9977493 -0.460556E-03  0.681E-02    4.41       1.0  T
   5     -9.9977655 -0.161652E-04  0.431E-02    4.41       1.0  T
   6     -9.9977731 -0.762985E-05  0.121E-02    4.41       3.7  T
   7     -9.9977732 -0.454751E-07  0.129E-03    4.41      34.6  T
   8     -9.9977732 -0.105897E-08  0.208E-04    4.41     215.0  T
   9     -9.9977732 -0.213660E-10  0.932E-05    4.41     479.7  T
     SCC iter.                  ...        0 min,  0.001 sec
     gradient                   ...        0 min,  0.001 sec
 * total energy  :    -9.7162984 Eh     change       -0.3377709E-03 Eh
   gradient norm :     0.0833819 Eh/α   predicted    -0.4628751E-02 (1270.38%)
   displ. norm   :     0.3869828 α      lambda       -0.1611682E-01
   maximum displ.:     0.2366588 α      in ANC's #6, #2, #3, ...

........................................................................
.............................. CYCLE   12 ..............................
........................................................................
   1     -9.9824776 -0.998248E+01  0.123E+00    4.06       0.0  T
   2     -9.9824921 -0.144665E-04  0.737E-01    4.11       1.0  T
   3     -9.9810220  0.147001E-02  0.620E-01    4.00       1.0  T
   4     -9.9825745 -0.155242E-02  0.101E-01    4.09       1.0  T
   5     -9.9826151 -0.406476E-04  0.549E-02    4.09       1.0  T
   6     -9.9826242 -0.905308E-05  0.760E-03    4.09       5.9  T
   7     -9.9826243 -0.141662E-06  0.293E-03    4.09      15.2  T
   8     -9.9826243 -0.184041E-08  0.460E-04    4.09      97.3  T
   9     -9.9826243 -0.115577E-09  0.236E-04    4.09     189.5  T
     SCC iter.                  ...        0 min,  0.001 sec
     gradient                   ...        0 min,  0.001 sec
 * total energy  :    -9.7121285 Eh     change        0.4169910E-02 Eh
   gradient norm :     0.2158104 Eh/α   predicted    -0.9265193E-02 (-322.19%)
   displ. norm   :     0.2721624 α      lambda       -0.2688799E-01
   maximum displ.:     0.1706557 α      in ANC's #1, #2, #4, ...

........................................................................
.............................. CYCLE   13 ..............................
........................................................................
   1     -9.9820345 -0.998203E+01  0.711E-01    4.52       0.0  T
   2     -9.9820454 -0.109048E-04  0.462E-01    4.57       1.0  T
   3     -9.9817269  0.318529E-03  0.348E-01    4.52       1.0  T
   4     -9.9821596 -0.432709E-03  0.376E-02    4.56       1.2  T
   5     -9.9821602 -0.606390E-06  0.253E-02    4.56       1.8  T
   6     -9.9821624 -0.223219E-05  0.108E-02    4.56       4.1  T
   7     -9.9821628 -0.350494E-06  0.222E-03    4.56      20.1  T
   8     -9.9821628 -0.180480E-08  0.234E-04    4.56     191.3  T
   9     -9.9821628 -0.511555E-10  0.104E-04    4.56     428.3  T
     SCC iter.                  ...        0 min,  0.001 sec
     gradient                   ...        0 min,  0.001 sec
 * total energy  :    -9.7217751 Eh     change       -0.9646662E-02 Eh
   gradient norm :     0.0661728 Eh/α   predicted    -0.1443983E-01 (  49.69%)
   displ. norm   :     0.1238286 α      lambda       -0.4866946E-02
   maximum displ.:     0.1166031 α      in ANC's #4, #6, #2, ...

........................................................................
.............................. CYCLE   14 ..............................
........................................................................
   1     -9.9879297 -0.998793E+01  0.367E-01    4.51       0.0  T
   2     -9.9879288  0.887308E-06  0.231E-01    4.47       1.0  T
   3     -9.9878898  0.390250E-04  0.183E-01    4.50       1.0  T
   4     -9.9879728 -0.829947E-04  0.275E-02    4.47       1.6  T
   5     -9.9879763 -0.351902E-05  0.145E-02    4.47       3.1  T
   6     -9.9879768 -0.518035E-06  0.156E-03    4.47      28.7  T
   7     -9.9879769 -0.297487E-08  0.445E-04    4.47     100.5  T
   8     -9.9879769 -0.934097E-10  0.993E-05    4.47     450.4  T
     SCC iter.                  ...        0 min,  0.001 sec
     gradient                   ...        0 min,  0.001 sec
 * total energy  :    -9.7231032 Eh     change       -0.1328027E-02 Eh
   gradient norm :     0.0303820 Eh/α   predicted    -0.2470787E-02 (  86.05%)
   displ. norm   :     0.1530132 α      lambda       -0.2113521E-02
   maximum displ.:     0.1144632 α      in ANC's #1, #5, #6, ...

........................................................................
.............................. CYCLE   15 ..............................
........................................................................
   1     -9.9823308 -0.998233E+01  0.419E-01    4.39       0.0  T
   2     -9.9823446 -0.137907E-04  0.240E-01    4.39       1.0  T
   3     -9.9822061  0.138472E-03  0.160E-01    4.40       1.0  T
   4     -9.9823579 -0.151754E-03  0.206E-02    4.40       2.2  T
   5     -9.9823587 -0.800532E-06  0.115E-02    4.40       3.9  T
   6     -9.9823590 -0.323765E-06  0.602E-03    4.40       7.4  T
   7     -9.9823591 -0.673965E-07  0.712E-04    4.40      62.8  T
   8     -9.9823591 -0.336728E-09  0.926E-05    4.40     482.8  T
     SCC iter.                  ...        0 min,  0.001 sec
     gradient                   ...        0 min,  0.001 sec
 * total energy  :    -9.7241659 Eh     change       -0.1062712E-02 Eh
   gradient norm :     0.0477354 Eh/α   predicted    -0.1081501E-02 (   1.77%)
   displ. norm   :     0.0651242 α      lambda       -0.1188915E-02
   maximum displ.:     0.0383920 α      in ANC's #5, #6, #4, ...

........................................................................
.............................. CYCLE   16 ..............................
........................................................................
   1     -9.9955930 -0.999559E+01  0.158E-01    4.50       0.0  T
   2     -9.9955876  0.539615E-05  0.117E-01    4.53       1.0  T
   3     -9.9956066 -0.189326E-04  0.860E-02    4.51       1.0  T
   4     -9.9956224 -0.158698E-04  0.180E-02    4.51       2.5  T
   5     -9.9956232 -0.794235E-06  0.121E-02    4.51       3.7  T
   6     -9.9956239 -0.662521E-06  0.266E-03    4.51      16.8  T
   7     -9.9956239 -0.518478E-08  0.297E-04    4.51     150.5  T
   8     -9.9956239 -0.789271E-10  0.528E-05    4.51     846.3  T
     SCC iter.                  ...        0 min,  0.001 sec
     gradient                   ...        0 min,  0.001 sec
 * total energy  :    -9.7245197 Eh     change       -0.3538309E-03 Eh
   gradient norm :     0.0218154 Eh/α   predicted    -0.5969775E-03 (  68.72%)
   displ. norm   :     0.0900271 α      lambda       -0.6846895E-03
   maximum displ.:     0.0726987 α      in ANC's #1, #6, #5, ...

........................................................................
.............................. CYCLE   17 ..............................
........................................................................
   1     -9.9911340 -0.999113E+01  0.236E-01    4.48       0.0  T
   2     -9.9911354 -0.134967E-05  0.135E-01    4.47       1.0  T
   3     -9.9910845  0.508610E-04  0.107E-01    4.48       1.0  T
   4     -9.9911405 -0.559346E-04  0.897E-03    4.47       5.0  T
   5     -9.9911404  0.331150E-07  0.684E-03    4.47       6.5  T
   6     -9.9911406 -0.117952E-06  0.234E-03    4.47      19.1  T
   7     -9.9911406 -0.130794E-07  0.346E-04    4.47     129.3  T
   8     -9.9911406 -0.381899E-10  0.346E-05    4.47    1291.3  T
     SCC iter.                  ...        0 min,  0.001 sec
     gradient                   ...        0 min,  0.001 sec
 * total energy  :    -9.7250060 Eh     change       -0.4862747E-03 Eh
   gradient norm :     0.0194587 Eh/α   predicted    -0.3451197E-03 ( -29.03%)
   displ. norm   :     0.0983006 α      lambda       -0.5327037E-03
   maximum displ.:     0.0686223 α      in ANC's #1, #6, #3, ...

........................................................................
.............................. CYCLE   18 ..............................
........................................................................
   1     -9.9905126 -0.999051E+01  0.300E-01    4.45       0.0  T
   2     -9.9905168 -0.426946E-05  0.171E-01    4.44       1.0  T
   3     -9.9904725  0.443162E-04  0.103E-01    4.46       1.0  T
   4     -9.9905217 -0.492048E-04  0.111E-02    4.44       4.0  T
   5     -9.9905218 -0.425808E-07  0.866E-03    4.44       5.2  T
   6     -9.9905220 -0.208009E-06  0.271E-03    4.44      16.5  T
   7     -9.9905220 -0.148965E-07  0.378E-04    4.44     118.4  T
   8     -9.9905220 -0.428102E-10  0.325E-05    4.44    1376.7  T
     SCC iter.                  ...        0 min,  0.001 sec
     gradient                   ...        0 min,  0.001 sec
 * total energy  :    -9.7253637 Eh     change       -0.3577653E-03 Eh
   gradient norm :     0.0227205 Eh/α   predicted    -0.2689239E-03 ( -24.83%)
   displ. norm   :     0.0634625 α      lambda       -0.4092940E-03
   maximum displ.:     0.0373113 α      in ANC's #1, #9, #2, ...

........................................................................
.............................. CYCLE   19 ..............................
........................................................................
   1     -9.9918236 -0.999182E+01  0.221E-01    4.46       0.0  T
   2     -9.9918263 -0.273902E-05  0.123E-01    4.46       1.0  T
   3     -9.9918275 -0.114446E-05  0.721E-03    4.46       6.2  T
   4     -9.9918275  0.315626E-07  0.416E-03    4.46      10.7  T
   5     -9.9918275 -0.360796E-07  0.167E-03    4.46      26.8  T
   6     -9.9918275 -0.817449E-08  0.394E-04    4.46     113.5  T
   7     -9.9918275  0.100217E-09  0.339E-04    4.46     132.0  T
     SCC iter.                  ...        0 min,  0.001 sec
     gradient                   ...        0 min,  0.001 sec
 * total energy  :    -9.7256864 Eh     change       -0.3226584E-03 Eh
   gradient norm :     0.0174627 Eh/α   predicted    -0.2054707E-03 ( -36.32%)
   displ. norm   :     0.0872401 α      lambda       -0.6041015E-03
   maximum displ.:     0.0522025 α      in ANC's #9, #2, #1, ...

........................................................................
.............................. CYCLE   20 ..............................
........................................................................
   1     -9.9949374 -0.999494E+01  0.304E-01    4.49       0.0  T
   2     -9.9949431 -0.575181E-05  0.169E-01    4.50       1.0  T
   3     -9.9949393  0.378819E-05  0.386E-02    4.49       1.2  T
   4     -9.9949459 -0.653661E-05  0.717E-03    4.49       6.2  T
   5     -9.9949459 -0.236075E-08  0.536E-03    4.49       8.3  T
   6     -9.9949460 -0.855210E-07  0.163E-03    4.49      27.4  T
   7     -9.9949460 -0.871183E-08  0.278E-04    4.49     160.7  T
   8     -9.9949460 -0.213998E-10  0.271E-05    4.49    1653.1  T
     SCC iter.                  ...        0 min,  0.001 sec
     gradient                   ...        0 min,  0.001 sec
 * total energy  :    -9.7260856 Eh     change       -0.3991999E-03 Eh
   gradient norm :     0.0081089 Eh/α   predicted    -0.3043488E-03 ( -23.76%)
   displ. norm   :     0.0535251 α      lambda       -0.2321340E-03
   maximum displ.:     0.0316580 α      in ANC's #9, #2, #7, ...
 * RMSD in coord.:     1.5178177 α      energy gain  -0.3124887E+00 Eh

generating ANC from model Hessian ...
Using Lindh-Hessian (1995)
 Shifting diagonal of input Hessian by    9.3357337883896094E-003
 Lowest  eigenvalues of input Hessian
   -0.000000   -0.000000   -0.000000   -0.000000    0.000000    0.000000
    0.010000    0.013311    0.208015    0.282882    0.537774    0.853999
    0.888515    2.216171    2.890770
 Highest eigenvalues
    0.282882    0.537774    0.853999    0.888515    2.216171    2.890770


........................................................................
.............................. CYCLE   21 ..............................
........................................................................
   1     -9.9951838 -0.999518E+01  0.182E-01    4.51       0.0  T
   2     -9.9951859 -0.206924E-05  0.103E-01    4.52       1.0  T
   3     -9.9951784  0.744702E-05  0.451E-02    4.51       1.0  T
   4     -9.9951871 -0.864379E-05  0.698E-03    4.52       6.4  T
   5     -9.9951871 -0.475600E-07  0.524E-03    4.52       8.5  T
   6     -9.9951872 -0.840589E-07  0.191E-03    4.52      23.5  T
   7     -9.9951872 -0.710169E-08  0.198E-04    4.52     226.2  T
   8     -9.9951872 -0.100364E-10  0.220E-05    4.52    2033.3  T
     SCC iter.                  ...        0 min,  0.001 sec
     gradient                   ...        0 min,  0.001 sec
 * total energy  :    -9.7262447 Eh     change       -0.1591308E-03 Eh
   gradient norm :     0.0095172 Eh/α   predicted     0.0000000E+00 (-100.00%)
   displ. norm   :     0.1219189 α      lambda       -0.2358916E-03
   maximum displ.:     0.1162978 α      in ANC's #1, #2, #6, ...

........................................................................
.............................. CYCLE   22 ..............................
........................................................................
   1     -9.9958224 -0.999582E+01  0.216E-01    4.52       0.0  T
   2     -9.9958243 -0.189316E-05  0.125E-01    4.51       1.0  T
   3     -9.9958210  0.333392E-05  0.331E-02    4.52       1.4  T
   4     -9.9958252 -0.423509E-05  0.752E-03    4.51       5.9  T
   5     -9.9958251  0.887887E-07  0.607E-03    4.51       7.4  T
   6     -9.9958253 -0.156508E-06  0.136E-03    4.51      33.0  T
   7     -9.9958253 -0.753453E-08  0.295E-04    4.51     151.7  T
   8     -9.9958253 -0.215437E-10  0.356E-05    4.51    1255.8  T
     SCC iter.                  ...        0 min,  0.001 sec
     gradient                   ...        0 min,  0.001 sec
 * total energy  :    -9.7261622 Eh     change        0.8257414E-04 Eh
   gradient norm :     0.0080164 Eh/α   predicted    -0.1196988E-03 (-244.96%)
   displ. norm   :     0.0827742 α      lambda       -0.3995590E-03
   maximum displ.:     0.0765452 α      in ANC's #2, #1, #6, ...

........................................................................
.............................. CYCLE   23 ..............................
........................................................................
   1     -9.9970894 -0.999709E+01  0.281E-01    4.51       0.0  T
   2     -9.9970937 -0.430848E-05  0.158E-01    4.51       1.0  T
   3     -9.9970889  0.476099E-05  0.407E-02    4.52       1.1  T
   4     -9.9970959 -0.701002E-05  0.818E-03    4.51       5.5  T
   5     -9.9970959  0.504331E-07  0.633E-03    4.51       7.1  T
   6     -9.9970960 -0.149119E-06  0.127E-03    4.51      35.2  T
   7     -9.9970960 -0.552620E-08  0.225E-04    4.51     198.5  T
   8     -9.9970960 -0.162164E-10  0.328E-05    4.51    1362.9  T
     SCC iter.                  ...        0 min,  0.001 sec
     gradient                   ...        0 min,  0.001 sec
 * total energy  :    -9.7263321 Eh     change       -0.1698903E-03 Eh
   gradient norm :     0.0080991 Eh/α   predicted    -0.2011495E-03 (  18.40%)
   displ. norm   :     0.0901321 α      lambda       -0.1531761E-03
   maximum displ.:     0.0787395 α      in ANC's #1, #2, #6, ...

........................................................................
.............................. CYCLE   24 ..............................
........................................................................
   1     -9.9972091 -0.999721E+01  0.229E-01    4.52       0.0  T
   2     -9.9972124 -0.331733E-05  0.127E-01    4.52       1.0  T
   3     -9.9972106  0.186072E-05  0.272E-02    4.51       1.6  T
   4     -9.9972139 -0.334051E-05  0.576E-03    4.52       7.8  T
   5     -9.9972139 -0.337206E-10  0.364E-03    4.52      12.3  T
   6     -9.9972139 -0.317111E-07  0.145E-03    4.52      30.9  T
   7     -9.9972139 -0.824631E-08  0.265E-04    4.52     168.9  T
   8     -9.9972139 -0.210001E-10  0.190E-05    4.52    2354.5  T
     SCC iter.                  ...        0 min,  0.001 sec
     gradient                   ...        0 min,  0.001 sec
 * total energy  :    -9.7263776 Eh     change       -0.4554795E-04 Eh
   gradient norm :     0.0051961 Eh/α   predicted    -0.7720884E-04 (  69.51%)
   displ. norm   :     0.0366701 α      lambda       -0.7892620E-04
   maximum displ.:     0.0332034 α      in ANC's #1, #2, #6, ...

........................................................................
.............................. CYCLE   25 ..............................
........................................................................
   1     -9.9969173 -0.999692E+01  0.827E-02    4.52       0.0  T
   2     -9.9969177 -0.355397E-06  0.465E-02    4.51       1.0  T
   3     -9.9969171  0.523274E-06  0.123E-02    4.52       3.6  T
   4     -9.9969178 -0.700502E-06  0.253E-03    4.52      17.6  T
   5     -9.9969178  0.380666E-08  0.158E-03    4.52      28.3  T
   6     -9.9969178 -0.915160E-08  0.387E-04    4.52     115.6  T
   7     -9.9969178 -0.529996E-09  0.106E-04    4.52     422.7  T
     SCC iter.                  ...        0 min,  0.001 sec
     gradient                   ...        0 min,  0.001 sec
 * total energy  :    -9.7264433 Eh     change       -0.6572048E-04 Eh
   gradient norm :     0.0044664 Eh/α   predicted    -0.3951636E-04 ( -39.87%)
   displ. norm   :     0.0755848 α      lambda       -0.1929461E-03
   maximum displ.:     0.0556164 α      in ANC's #1, #6, #2, ...

........................................................................
.............................. CYCLE   26 ..............................
........................................................................
   1     -9.9959410 -0.999594E+01  0.205E-01    4.51       0.0  T
   2     -9.9959426 -0.157501E-05  0.118E-01    4.51       1.0  T
   3     -9.9959388  0.380033E-05  0.315E-02    4.52       1.4  T
   4     -9.9959435 -0.466187E-05  0.755E-03    4.51       5.9  T
   5     -9.9959435  0.368317E-08  0.341E-03    4.51      13.1  T
   6     -9.9959435 -0.414621E-07  0.104E-03    4.51      42.9  T
   7     -9.9959435 -0.425526E-08  0.260E-04    4.51     171.8  T
   8     -9.9959435 -0.211031E-10  0.210E-05    4.51    2127.3  T
     SCC iter.                  ...        0 min,  0.001 sec
     gradient                   ...        0 min,  0.001 sec
 * total energy  :    -9.7265653 Eh     change       -0.1219841E-03 Eh
   gradient norm :     0.0052266 Eh/α   predicted    -0.9702214E-04 ( -20.46%)
   displ. norm   :     0.0296320 α      lambda       -0.6956246E-04
   maximum displ.:     0.0254365 α      in ANC's #6, #2, #5, ...

........................................................................
.............................. CYCLE   27 ..............................
........................................................................
   1     -9.9964826 -0.999648E+01  0.101E-01    4.52       0.0  T
   2     -9.9964827 -0.132578E-06  0.610E-02    4.52       1.0  T
   3     -9.9964815  0.121449E-05  0.162E-02    4.52       2.8  T
   4     -9.9964828 -0.132692E-05  0.259E-03    4.52      17.3  T
   5     -9.9964828 -0.129216E-08  0.116E-03    4.52      38.6  T
   6     -9.9964828 -0.540677E-09  0.675E-04    4.52      66.3  T
   7     -9.9964828 -0.200004E-08  0.104E-04    4.52     430.6  T
     SCC iter.                  ...        0 min,  0.001 sec
     gradient                   ...        0 min,  0.001 sec
 * total energy  :    -9.7266131 Eh     change       -0.4783849E-04 Eh
   gradient norm :     0.0028792 Eh/α   predicted    -0.3480974E-04 ( -27.23%)
   displ. norm   :     0.0206202 α      lambda       -0.2603234E-04
   maximum displ.:     0.0132936 α      in ANC's #6, #1, #5, ...

........................................................................
.............................. CYCLE   28 ..............................
........................................................................
   1     -9.9971953 -0.999720E+01  0.612E-02    4.52       0.0  T
   2     -9.9971953 -0.190455E-07  0.371E-02    4.53       1.2  T
   3     -9.9971934  0.191610E-05  0.204E-02    4.52       2.2  T
   4     -9.9971954 -0.202614E-05  0.170E-03    4.53      26.3  T
   5     -9.9971954 -0.188485E-08  0.118E-03    4.53      37.9  T
   6     -9.9971954 -0.386609E-08  0.444E-04    4.53     100.7  T
   7     -9.9971954 -0.421299E-09  0.677E-05    4.53     660.5  T
     SCC iter.                  ...        0 min,  0.001 sec
     gradient                   ...        0 min,  0.001 sec
 * total energy  :    -9.7266276 Eh     change       -0.1446518E-04 Eh
   gradient norm :     0.0007371 Eh/α   predicted    -0.1302088E-04 (  -9.98%)
   displ. norm   :     0.0065755 α      lambda       -0.1554320E-05
   maximum displ.:     0.0050302 α      in ANC's #1, #5, #2, ...

........................................................................
.............................. CYCLE   29 ..............................
........................................................................
   1     -9.9972708 -0.999727E+01  0.181E-02    4.53       0.0  T
   2     -9.9972708 -0.981017E-08  0.106E-02    4.53       4.2  T
   3     -9.9972707  0.792346E-07  0.451E-03    4.53       9.9  T
   4     -9.9972708 -0.877398E-07  0.744E-04    4.53      60.1  T
   5     -9.9972708  0.243507E-09  0.586E-04    4.53      76.3  T
     SCC iter.                  ...        0 min,  0.000 sec
     gradient                   ...        0 min,  0.001 sec
 * total energy  :    -9.7266291 Eh     change       -0.1522051E-05 Eh
   gradient norm :     0.0005908 Eh/α   predicted    -0.7760292E-06 ( -49.01%)
   displ. norm   :     0.0043206 α      lambda       -0.1166083E-05
   maximum displ.:     0.0028200 α      in ANC's #5, #3, #2, ...

   *** GEOMETRY OPTIMIZATION CONVERGED AFTER 29 ITERATIONS ***

------------------------------------------------------------------------
 total energy gain   :        -0.3130322 Eh     -196.4307 kcal/mol
 total RMSD          :         1.5420276 a0        0.8160 Å
 total power (kW/mol):       -28.3402024 (step)********** (real)
------------------------------------------------------------------------

 ANCopt (total)                0 d,  0 h,  0 min,  0.078 sec
 optimizer setup                ...        0 min,  0.000 sec (  0.083%)
 model hessian                  ...        0 min,  0.000 sec (  0.153%)
 ANC generation                 ...        0 min,  0.000 sec (  0.122%)
 coordinate transformation      ...        0 min,  0.000 sec (  0.070%)
 single point calculation       ...        0 min,  0.076 sec ( 96.883%)
 optimization log               ...        0 min,  0.001 sec (  0.883%)
 hessian update                 ...        0 min,  0.000 sec (  0.070%)
 rational function              ...        0 min,  0.001 sec (  0.783%)

================
 final structure:
================
5
 xtb: 6.2.2 (9d81278992624c895f80dd42a50cac0aa55982e2)
C        -1.28332041008263   -0.06102519153523    0.09405272967705
C        -0.08394706844731   -0.00258683719840    0.00732334669116
C         1.27611608825200    0.06071813144937   -0.09611013424451
N         2.42000722532945    0.11339809392454   -0.17744031489483
H        -2.32885583505153   -0.11050319664029    0.17217437277112

 Bond Distances (Angstroems)
 ---------------------------
C1-C2=1.2039         C1-H5=1.0496         C2-C1=1.2039         C2-C3=1.3655         C3-C2=1.3655         C3-N4=1.1480         
N4-C3=1.1480         H5-C1=1.0496         
 C  H  Rav=1.0496 sigma=0.0000  Rmin=1.0496  Rmax=1.0496     1
 C  C  Rav=1.2847 sigma=0.0808  Rmin=1.2039  Rmax=1.3655     2
 N  C  Rav=1.1480 sigma=0.0000  Rmin=1.1480  Rmax=1.1480     1

 selected bond angles (degree)
 --------------------
H5-C1-C2=179.84                C3-C2-C1=179.75                N4-C3-C2=179.72                

 selected dihedral angles (degree)
 ---------------------------------
C3-C2-C1-H5=179.97            N4-C3-C2-C1=215.92            
           -------------------------------------------------
          |                Final Singlepoint                |
           -------------------------------------------------

          ...................................................
          :                      SETUP                      :
          :.................................................:
          :  # basis functions                  17          :
          :  # atomic orbitals                  17          :
          :  # shells                            9          :
          :  # electrons                        18          :
          :  max. iterations                   250          :
          :  Hamiltonian                  GFN2-xTB          :
          :  restarted?                      false          :
          :  GBSA solvation                  false          :
          :  PC potential                    false          :
          :  electronic temp.          300.0000000     K    :
          :  accuracy                    1.0000000          :
          :  -> integral cutoff          0.2500000E+02      :
          :  -> integral neglect         0.1000000E-07      :
          :  -> SCF convergence          0.1000000E-05 Eh   :
          :  -> wf. convergence          0.1000000E-03 e    :
          :  Broyden damping             0.4000000          :
          ...................................................

 iter      E             dE          RMSdq      gap      omega  full diag
   1     -9.9972708 -0.999727E+01  0.202E-04    4.53       0.0  T
   2     -9.9972708  0.382023E-10  0.131E-04    4.53     340.4  T
   3     -9.9972708 -0.685336E-10  0.112E-04    4.53     397.7  T

   *** convergence criteria satisfied after 3 iterations ***

         #    Occupation            Energy/Eh            Energy/eV
      -------------------------------------------------------------
         1        2.0000           -0.6583594             -17.9149
       ...           ...                  ...                  ...
         3        2.0000           -0.6040485             -16.4370
         4        2.0000           -0.5355473             -14.5730
         5        2.0000           -0.5145268             -14.0010
         6        2.0000           -0.5145268             -14.0010
         7        2.0000           -0.4547587             -12.3746
         8        2.0000           -0.4547581             -12.3746
         9        2.0000           -0.4398779             -11.9697 (HOMO)
        10                         -0.2735136              -7.4427 (LUMO)
        11                         -0.2735119              -7.4426
        12                         -0.1084591              -2.9513
        13                         -0.1084572              -2.9513
        14                          0.0376267               1.0239
       ...                                ...                  ...
        17                          1.5402192              41.9115
      -------------------------------------------------------------
                  HL-Gap            0.1663643 Eh            4.5270 eV
             Fermi-level           -0.3566958 Eh           -9.7062 eV

 SCC (total)                   0 d,  0 h,  0 min,  0.002 sec
 SCC setup                      ...        0 min,  0.000 sec (  4.685%)
 Dispersion                     ...        0 min,  0.000 sec (  0.282%)
 integral evaluation            ...        0 min,  0.001 sec ( 38.851%)
 zeroth order Hamiltonian       ...        0 min,  0.000 sec (  0.564%)
 iterations                     ...        0 min,  0.000 sec ( 14.765%)
 molecular gradient             ...        0 min,  0.001 sec ( 38.540%)
 printout                       ...        0 min,  0.000 sec (  1.866%)

         :::::::::::::::::::::::::::::::::::::::::::::::::::::
         ::                     SUMMARY                     ::
         :::::::::::::::::::::::::::::::::::::::::::::::::::::
         :: total energy              -9.726629127006 Eh    ::
         :: gradient norm              0.000602896799 Eh/a0 ::
         :: HOMO-LUMO gap              4.527002501443 eV    ::
         ::.................................................::
         :: SCC energy                -9.997270772471 Eh    ::
         :: -> isotropic ES            0.007530391408 Eh    ::
         :: -> anisotropic ES          0.000292127287 Eh    ::
         :: -> anisotropic XC          0.026879333394 Eh    ::
         :: -> dispersion             -0.001981191973 Eh    ::
         :: repulsion energy           0.270642168574 Eh    ::
         :: add. restraining           0.000000000000 Eh    ::
         :::::::::::::::::::::::::::::::::::::::::::::::::::::

           ------------------------------------------------- 
          |                Numerical Hessian                |
           ------------------------------------------------- 
step length          :   0.00500
SCC accuracy         :   0.30000
Hessian scale factor :   1.00000
frozen atoms in %    :   0.00000    0
RMS gradient         :   0.00060
estimated CPU  time      0.00 min
estimated wall time      0.00 min

writing file <hessian>.

 vibrational frequencies (cm-1)
eigval :        0.00     0.00     0.00     0.00     0.00   198.65
eigval :      198.73   471.91   471.97   671.34   671.35   915.88
eigval :     2214.14  2367.02  3391.96
           -------------------------------------------------
          |                Property Printout                |
           -------------------------------------------------

    * Orbital Energies and Occupations

         #    Occupation            Energy/Eh            Energy/eV
      -------------------------------------------------------------
         1        2.0000           -0.6583593             -17.9149
         2        2.0000           -0.6532242             -17.7751
         3        2.0000           -0.6040485             -16.4370
         4        2.0000           -0.5355476             -14.5730
         5        2.0000           -0.5145266             -14.0010
         6        2.0000           -0.5145266             -14.0010
         7        2.0000           -0.4547589             -12.3746
         8        2.0000           -0.4547582             -12.3746
         9        2.0000           -0.4398776             -11.9697 (HOMO)
        10                         -0.2735137              -7.4427 (LUMO)
        11                         -0.2735120              -7.4426
        12                         -0.1084590              -2.9513
        13                         -0.1084570              -2.9513
        14                          0.0376266               1.0239
        15                          0.2931059               7.9758
        16                          1.0607177              28.8636
        17                          1.5402192              41.9115
      -------------------------------------------------------------
                  HL-Gap            0.1663639 Eh            4.5270 eV
             Fermi-level           -0.3566957 Eh           -9.7062 eV

     #   Z        covCN         q      C6AA      α(0)
     1   6 C      1.910    -0.050    32.447     9.199
     2   6 C      1.962     0.008    30.870     8.972
     3   6 C      1.892     0.142    27.651     8.493
     4   7 N      0.911    -0.205    25.456     7.297
     5   1 H      0.928     0.105     1.743     2.064

 Mol. C6AA /au·bohr⁶  :        522.199980
 Mol. C8AA /au·bohr⁸  :      13680.504877
 Mol. α(0) /au        :         36.025691


Wiberg/Mayer (AO) data.
largest (>0.10) Wiberg bond orders for each atom
          total WBO             WBO to atom ...
     1  C   3.968        C    2 2.759    H    5 0.967    N    4 0.227
     2  C   3.982        C    1 2.759    C    3 1.179
     3  C   3.956        N    4 2.751    C    2 1.179
     4  N   3.017        C    3 2.751    C    1 0.227
     5  H   0.989        C    1 0.967

MOs/occ written to file <molden.input>


molecular dipole:
                 x           y           z       tot (Debye)
 q only:       -0.935      -0.044       0.068
   full:       -1.450      -0.068       0.105       3.699
molecular quadrupole (traceless):
                xx          xy          yy          xz          yz          zz
 q only:       -1.718      -0.119       0.863       0.185       0.009       0.855
  q+dip:       -0.041       0.005       0.020      -0.002      -0.001       0.021
   full:       -4.017      -0.277       2.018       0.436       0.020       1.999

           -------------------------------------------------
          |                Geometry Summary                 |
           -------------------------------------------------

      molecular mass/u    :       51.0468517
   center of mass at/Å    :        0.5965927       0.0282492      -0.0440512
  moments of inertia/u·Å² :        0.1154614E-03   0.1095820E+03   0.1095821E+03
rotational constants/cm⁻¹ :        0.1460023E+06   0.1538358E+00   0.1538357E+00

 * 2 selected distances

     #   Z        #   Z                                     value/Å
     1   6 C      2   6 C                                 1.2039242 (max)
     3   6 C      4   7 N                                 1.1479881 (min)
Molecule has the following symmetry elements: (Cinf) (sigma) 
It seems to be the Cinfv point group

 * 2 distinct bonds (by element types)

   Z      Z             #   av. dist./Å        max./Å        min./Å
   6 C    6 C           1     1.2039242     1.2039242     1.2039242
   6 C    7 N           1     1.1479881     1.1479881     1.1479881

           -------------------------------------------------
          |               Frequency Printout                |
           -------------------------------------------------
 vibrational frequencies (cm-1)
eigval :        0.00     0.00     0.00     0.00     0.00   198.65
eigval :      198.73   471.91   471.97   671.34   671.35   915.88
eigval :     2214.14  2367.02  3391.96
 reduced masses (amu)
   1: 11.72   2: 13.28   3: 12.34   4: 12.60   5: 11.05   6: 11.73   7: 11.73   8: 11.39
   9: 11.39  10:  3.61  11:  3.61  12: 12.33  13: 11.28  14: 12.60  15:  2.49
 IR intensities (amu)
   1:  0.17   2:  0.16   3:  0.07   4:  0.08   5:  0.10   6:  0.31   7:  0.31   8:  0.22
   9:  0.22  10:  0.27  11:  0.27  12:  0.10  13:  0.13  14:  1.26  15:  0.07
 Raman intensities (amu)
   1:  0.00   2:  0.00   3:  0.00   4:  0.00   5:  0.00   6:  0.00   7:  0.00   8:  0.00
   9:  0.00  10:  0.00  11:  0.00  12:  0.00  13:  0.00  14:  0.00  15:  0.00
 output can be read by thermo (or use thermo option).
 writing <g98.out> molden fake output.
 recommended (thermochemical) frequency scaling factor: 1.0
           -------------------------------------------------
          |             Thermodynamic Functions             |
           -------------------------------------------------

cin symmetry found (for desy threshold:  0.10E+00) used in thermo

          ...................................................
          :                      SETUP                      :
          :.................................................:
          :  # frequencies                          10      :
          :  # imaginary freq.                       0      :
          :  linear?                              true      :
          :  only rotor calc.                    false      :
          :  symmetry                              cin      :
          :  rotational number                       1      :
          :  scaling factor                  1.0000000      :
          :  rotor cutoff                   50.0000000 cm⁻¹ :
          :  imag. cutoff                  -20.0000000 cm⁻¹ :
          :.................................................:

    mode    ω/cm⁻¹     T·S(HO)/kcal·mol⁻¹    T·S(FR)/kcal·mol⁻¹   T·S(vib)
   ------------------------------------------------------------------------
       1    198.65    -0.00000 ( 99.60%)     0.01201 (  0.40%)     0.00005
       2    198.73    -0.00000 ( 99.60%)     0.01202 (  0.40%)     0.00005
   ------------------------------------------------------------------------

   temp. (K)  partition function   enthalpy   heat capacity  entropy
                                   cal/mol     cal/K/mol   cal/K/mol   J/K/mol
 298.15  VIB   3.58                 1203.350      8.565      6.571
         ROT  0.135E+04              592.502      1.987     16.307
         INT  0.482E+04             1795.851     10.552     22.878
         TR   0.353E+27             1481.254      4.968     37.697
         TOT                        3277.1051    15.5206    60.5742   253.4426

   temp. (K)  partition function   enthalpy   heat capacity  entropy
                                   cal/mol     cal/K/mol   cal/K/mol   J/K/mol
 120.00  VIB   1.22                  126.308      3.062      1.458
         ROT   542.                  238.471      1.987     14.498
         INT   663.                  364.779      5.049     15.956
         TR   0.901E+26              596.178      4.968     33.177
         TOT                         960.9569    10.0169    49.1331   205.5727

   temp. (K)  partition function   enthalpy   heat capacity  entropy
                                   cal/mol     cal/K/mol   cal/K/mol   J/K/mol
 100.00  VIB   1.13                   72.404      2.327      0.968
         ROT   452.                  198.726      1.987     14.136
         INT   510.                  271.130      4.314     15.104
         TR   0.685E+26              496.815      4.968     32.272
         TOT                         767.9448     9.2823    47.3762   198.2220

   temp. (K)  partition function   enthalpy   heat capacity  entropy
                                   cal/mol     cal/K/mol   cal/K/mol   J/K/mol
  80.00  VIB   1.06                   33.380      1.570      0.536
         ROT   361.                  158.981      1.987     13.692
         INT   383.                  192.361      3.557     14.228
         TR   0.490E+26              397.452      4.968     31.164
         TOT                         589.8131     8.5253    45.3922   189.9210

   temp. (K)  partition function   enthalpy   heat capacity  entropy
                                   cal/mol     cal/K/mol   cal/K/mol   J/K/mol
  60.00  VIB   1.02                    9.805      0.789      0.201
         ROT   271.                  119.236      1.987     13.121
         INT   276.                  129.040      2.776     13.322
         TR   0.319E+26              298.089      4.968     29.735
         TOT                         427.1292     7.7443    43.0572   180.1512

   temp. (K)  partition function   enthalpy   heat capacity  entropy
                                   cal/mol     cal/K/mol   cal/K/mol   J/K/mol
  40.00  VIB   1.00                    0.895      0.160      0.027
         ROT   181.                   79.490      1.987     12.315
         INT   181.                   80.386      2.147     12.342
         TR   0.173E+26              198.726      4.968     27.722
         TOT                         279.1118     7.1155    40.0633   167.6250

   temp. (K)  partition function   enthalpy   heat capacity  entropy
                                   cal/mol     cal/K/mol   cal/K/mol   J/K/mol
  20.00  VIB   1.00                    0.001      0.001     -0.005
         ROT   90.4                   39.745      1.987     10.937
         INT   90.4                   39.746      1.988     10.933
         TR   0.613E+25               99.363      4.968     24.280
         TOT                         139.1089     6.9559    35.2128   147.3303

   temp. (K)  partition function   enthalpy   heat capacity  entropy
                                   cal/mol     cal/K/mol   cal/K/mol   J/K/mol
  10.00  VIB   1.00                    0.000      0.000     -0.010
         ROT   45.2                   19.873      1.987      9.560
         INT   45.2                   19.873      1.987      9.550
         TR   0.217E+25               49.681      4.968     20.838
         TOT                          69.5541     6.9554    30.3876   127.1417

       T/K    H(0)-H(T)+PV         H(T)/Eh          T*S/Eh         G(T)/Eh
   ------------------------------------------------------------------------
    298.15    0.522240E-02    0.315875E-01    0.287808E-01    0.280673E-02
    120.00    0.153138E-02    0.278965E-01    0.939582E-02    0.185007E-01
    100.00    0.122380E-02    0.275889E-01    0.754988E-02    0.200390E-01
     80.00    0.939927E-03    0.273050E-01    0.578697E-02    0.215181E-01
     60.00    0.680674E-03    0.270458E-01    0.411696E-02    0.229288E-01
     40.00    0.444793E-03    0.268099E-01    0.255380E-02    0.242561E-01
     20.00    0.221684E-03    0.265868E-01    0.112230E-02    0.254645E-01
     10.00    0.110842E-03    0.264759E-01    0.484257E-03    0.259917E-01 (used)
   ------------------------------------------------------------------------

         :::::::::::::::::::::::::::::::::::::::::::::::::::::
         ::                  THERMODYNAMIC                  ::
         :::::::::::::::::::::::::::::::::::::::::::::::::::::
         :: total free energy          -9.700637437793 Eh   ::
         ::.................................................::
         :: total energy               -9.726629127560 Eh   ::
         :: zero point energy           0.026365105306 Eh   ::
         :: G(RRHO) w/o ZPVE           -0.000373415540 Eh   ::
         :: G(RRHO) contrib.            0.025991689766 Eh   ::
         :::::::::::::::::::::::::::::::::::::::::::::::::::::

optimized geometry written to: xtbopt.xyz


           -------------------------------------------------
          | TOTAL ENERGY               -9.726629127560 Eh   |
          | TOTAL ENTHALPY             -9.700153180740 Eh   |
          | TOTAL FREE ENERGY          -9.700637437793 Eh   |
          | GRADIENT NORM               0.000602838893 Eh/α |
          | HOMO-LUMO GAP               4.526990851263 eV   |
           -------------------------------------------------

------------------------------------------------------------------------
 * finished run on 2020/05/12 at 11:44:52.190     
------------------------------------------------------------------------
 total:
 * wall-time:     0 d,  0 h,  0 min,  0.174 sec
 *  cpu-time:     0 d,  0 h,  0 min,  0.174 sec
 * ratio c/w:     0.999 speedup
 SCF:
 * wall-time:     0 d,  0 h,  0 min,  0.004 sec
 *  cpu-time:     0 d,  0 h,  0 min,  0.004 sec
 * ratio c/w:     0.997 speedup
 ANC optimizer:
 * wall-time:     0 d,  0 h,  0 min,  0.081 sec
 *  cpu-time:     0 d,  0 h,  0 min,  0.081 sec
 * ratio c/w:     0.999 speedup
 numerical hessian:
 * wall-time:     0 d,  0 h,  0 min,  0.072 sec
 *  cpu-time:     0 d,  0 h,  0 min,  0.072 sec
 * ratio c/w:     0.999 speedup

