5
 energy: -9.726629127006 gnorm: 0.000602896799 xtb: 6.2.2 (9d81278992624c895f80dd42a50cac0aa55982e2)
C        -1.28332040127718   -0.06101830793309    0.09405731581869
C        -0.08394705642691   -0.00258638487102    0.00732364423654
C         1.27611607065722    0.06071128197816   -0.09611469470239
N         2.42000719964671    0.11338511310608   -0.17744896022929
H        -2.32885581259462   -0.11049070228015    0.17218269487470
