5
 energy: -9.278695992974 gnorm: 0.000393312860 xtb: 6.2.2 (9d81278992624c895f80dd42a50cac0aa55982e2)
C        -0.13957852439827   -0.10197270564342    0.04614430926181
C         0.95607908707379   -0.34998100156630    0.45598824410483
O        -1.34928159322225    0.13317704518693   -0.38166728920706
H         1.90078952913288   -0.58961792092986    0.83311430905999
H        -1.36800849858614    0.90839458295266   -0.95357957321958
