      -----------------------------------------------------------      
     |                   =====================                   |     
     |                           x T B                           |     
     |                   =====================                   |     
     |                         S. Grimme                         |     
     |          Mulliken Center for Theoretical Chemistry        |     
     |                    University of Bonn                     |     
      -----------------------------------------------------------      

   * xtb version 6.2.2 (9d81278992624c895f80dd42a50cac0aa55982e2) compiled by '@Darwin' on 04/03/2020

   xtb is free software: you can redistribute it and/or modify it under
   the terms of the GNU Lesser General Public License as published by
   the Free Software Foundation, either version 3 of the License, or
   (at your option) any later version.
   
   xtb is distributed in the hope that it will be useful,
   but WITHOUT ANY WARRANTY; without even the implied warranty of
   MERCHANTABILITY or FITNESS FOR A PARTICULAR PURPOSE.  See the
   GNU Lesser General Public License for more details.
   
   Cite this work as:
   * S. Grimme, C. Bannwarth, P. Shushkov, J. Chem. Theory Comput., 2017,
     13, 1989-2009. DOI: 10.1021/acs.jctc.7b00118
   * C. Bannwarth, S. Ehlert and S. Grimme., J. Chem. Theory Comput., 2019,
     15, 1652-1671. DOI: 10.1021/acs.jctc.8b01176
   * P. Pracht, E. Caldeweyher, S. Ehlert, S. Grimme, ChemRxiv, 2019, preprint.
     DOI: 10.26434/chemrxiv.8326202.v1
   
   for DFT-D4:
   * E. Caldeweyher, C. Bannwarth and S. Grimme, J. Chem. Phys., 2017,
     147, 034112. DOI: 10.1063/1.4993215
   * E. Caldeweyher, S. Ehlert, A. Hansen, H. Neugebauer, S. Spicher,
     C. Bannwarth and S. Grimme, J. Chem. Phys., 2019, 150, 154122.
     DOI: 10.1063/1.5090222
   
   for sTDA-xTB:
   * S. Grimme and C. Bannwarth, J. Chem. Phys., 2016, 145, 054103.
     DOI: 10.1063/1.4959605
   
   in the mass-spec context:
   * V. Asgeirsson, C. Bauer and S. Grimme, Chem. Sci., 2017, 8, 4879.
     DOI: 10.1039/c7sc00601b
   
   for metadynamics refer to:
   * S. Grimme, J. Chem. Theory Comput., 2019, 155, 2847-2862
     DOI: 10.1021/acs.jctc.9b00143
   
   with help from (in alphabetical order)
   C. Bannwarth, F. Bohle, G. Brandenburg, E. Caldeweyher, M. Checinski,
   S. Dohm, S. Ehlert, S. Ehrlich, F. März, H. Neugebauer, J. Pisarek,
   P. Pracht, P. Shushkov, and S. Spicher.
   
 * started run on 2020/05/12 at 11:44:25.264     

           -------------------------------------------------
          |                Calculation Setup                |
           -------------------------------------------------

          program call               : xtb --input C3_0_S_2.input C3_0_S_2.xyz --ohess --molden --namespace C3_0_S_2 output.out
          calculation namespace      : C3_0_S_2
          coordinate file            : C3_0_S_2.xyz
          number of atoms            :                     3
          number of electrons        :                    12
          charge                     :                     0
          spin                       :                   1.0
          first test random number   :      0.60665114410903

   ID    Z sym.   atoms
    1    6 C      1-3

           -------------------------------------------------
          |                 G F N 2 - x T B                 |
           -------------------------------------------------

        Reference                      10.1021/acs.jctc.8b01176
      * Hamiltonian:
        H0-scaling (s, p, d)           1.850000    2.230000    2.230000
        zeta-weighting                 0.500000
      * Dispersion:
        s8                             2.700000
        a1                             0.520000
        a2                             5.000000
        s9                             5.000000
      * Repulsion:
        kExp                           1.500000    1.000000
        rExp                           1.000000
      * Coulomb:
        alpha                          2.000000
        third order                    shell-resolved
        anisotropic                    true
        a3                             3.000000
        a5                             4.000000
        cn-shift                       1.200000
        cn-exp                         4.000000
        max-rad                        5.000000


          ...................................................
          :                      SETUP                      :
          :.................................................:
          :  # basis functions                  12          :
          :  # atomic orbitals                  12          :
          :  # shells                            6          :
          :  # electrons                        12          :
          :  max. iterations                   250          :
          :  Hamiltonian                  GFN2-xTB          :
          :  restarted?                      false          :
          :  GBSA solvation                  false          :
          :  PC potential                    false          :
          :  electronic temp.          300.0000000     K    :
          :  accuracy                    1.0000000          :
          :  -> integral cutoff          0.2500000E+02      :
          :  -> integral neglect         0.1000000E-07      :
          :  -> SCF convergence          0.1000000E-05 Eh   :
          :  -> wf. convergence          0.1000000E-03 e    :
          :  Broyden damping             0.4000000          :
          ...................................................

 iter      E             dE          RMSdq      gap      omega  full diag
   1     -5.9015369 -0.590154E+01  0.121E+01    0.61       0.0  T
   2     -5.7688598  0.132677E+00  0.104E+01    0.59       1.0  T
   3     -5.7653036  0.355629E-02  0.821E+00    0.55       1.0  T
   4     -5.9373143 -0.172011E+00  0.209E+00    0.52       1.0  T
   5     -5.9549332 -0.176190E-01  0.151E+00    0.52       1.0  T
   6     -5.9535182  0.141506E-02  0.809E-01    0.53       1.0  T
   7     -5.9475327  0.598545E-02  0.153E+00    0.53       1.0  T
   8     -5.9549951 -0.746243E-02  0.862E-01    0.53       1.0  T
   9     -5.9549887  0.643218E-05  0.108E-01    0.53       1.0  T
  10     -5.9550191 -0.303582E-04  0.913E-02    0.53       1.0  T
  11     -5.9550317 -0.126506E-04  0.969E-03    0.53       6.0  T
  12     -5.9550319 -0.194628E-06  0.356E-03    0.53      16.2  T
  13     -5.9550319 -0.135963E-07  0.340E-04    0.53     169.8  T
  14     -5.9550319 -0.201261E-11  0.135E-04    0.53     427.1  T

   *** convergence criteria satisfied after 14 iterations ***

         #    Occupation            Energy/Eh            Energy/eV
      -------------------------------------------------------------
         1        2.0000           -0.6860607             -18.6687
         2        2.0000           -0.6401338             -17.4189
         3        2.0000           -0.5440496             -14.8043
         4        2.0000           -0.4945066             -13.4562
         5        1.7462           -0.4840001             -13.1703
         6        1.2538           -0.4819507             -13.1145
         7        1.0000           -0.4051326             -11.0242 (HOMO)
         8        0.0000           -0.3857623             -10.4971 (LUMO)
         9                         -0.3653481              -9.9416
        10                         -0.3008306              -8.1860
        11                          0.0700007               1.9048
        12                          0.0795479               2.1646
      -------------------------------------------------------------
                  HL-Gap            0.0193703 Eh            0.5271 eV
             Fermi-level           -0.4392114 Eh          -11.9516 eV

 transition dipole moment (au) for excitation:           6           7
     X       Y       Z   
   0.0000   0.0000  -0.2682  total (au/Debye):    0.268   0.682
 dE (eV)             :    2.090
 oscillator strength :  0.52108E-02

 SCC (total)                   0 d,  0 h,  0 min,  0.004 sec
 SCC setup                      ...        0 min,  0.000 sec (  3.296%)
 Dispersion                     ...        0 min,  0.000 sec (  0.479%)
 integral evaluation            ...        0 min,  0.001 sec ( 24.514%)
 zeroth order Hamiltonian       ...        0 min,  0.000 sec (  0.533%)
 iterations                     ...        0 min,  0.001 sec ( 34.521%)
 molecular gradient             ...        0 min,  0.001 sec ( 16.531%)
 printout                       ...        0 min,  0.001 sec ( 19.720%)

         :::::::::::::::::::::::::::::::::::::::::::::::::::::
         ::                     SUMMARY                     ::
         :::::::::::::::::::::::::::::::::::::::::::::::::::::
         :: total energy              -5.925151000027 Eh    ::
         :: gradient norm              0.290676305029 Eh/a0 ::
         :: HOMO-LUMO gap              0.527092693583 eV    ::
         ::.................................................::
         :: SCC energy                -5.955031928782 Eh    ::
         :: -> isotropic ES           -0.020973521923 Eh    ::
         :: -> anisotropic ES         -0.000036127056 Eh    ::
         :: -> anisotropic XC          0.005532008123 Eh    ::
         :: -> dispersion             -0.001034669561 Eh    ::
         :: repulsion energy           0.029880927461 Eh    ::
         :: add. restraining           0.000000000000 Eh    ::
         :::::::::::::::::::::::::::::::::::::::::::::::::::::

      ----------------------------------------------------------- 
     |                   =====================                   |
     |                        A N C O P T                        |
     |                   =====================                   |
     |               Approximate Normal Coordinate               |
     |                Rational Function Optimizer                |
      ----------------------------------------------------------- 

          ...................................................
          :                      SETUP                      :
          :.................................................:
          :   optimization level            normal          :
          :   max. optcycles                   200          :
          :   ANC micro-cycles                  20          :
          :   degrees of freedom                 3          :
          :.................................................:
          :   RF solver                   davidson          :
          :   write xtbopt.log                true          :
          :   linear?                        false          :
          :   energy convergence         0.5000000E-05 Eh   :
          :   grad. convergence          0.1000000E-02 Eh/α :
          :   maximium RF displ.         1.0000000          :
          :   Hlow (freq-cutoff)         0.1000000E-01      :
          :   Hmax (freq-cutoff)         5.0000000          :
          :   S6 in model hess.         20.0000000          :
          ...................................................

generating ANC from model Hessian ...
Using Lindh-Hessian (1995)
 Shifting diagonal of input Hessian by    0.0000000000000000     
 Lowest  eigenvalues of input Hessian
   -0.000000   -0.000000   -0.000000    0.000000    0.000000    0.000000
    0.070167    0.702551    0.947466
 Highest eigenvalues
    0.000000    0.000000    0.000000    0.070167    0.702551    0.947466


........................................................................
.............................. CYCLE    1 ..............................
........................................................................
   1     -5.9550319 -0.595503E+01  0.111E-04    0.53       0.0  T
   2     -5.9550319  0.103711E-09  0.148E-04    0.53     389.2  T
   3     -5.9550319  0.232848E-09  0.275E-04    0.53     210.1  T
     SCC iter.                  ...        0 min,  0.001 sec
     gradient                   ...        0 min,  0.000 sec
 * total energy  :    -5.9251510 Eh     change        0.5599379E-09 Eh
   gradient norm :     0.2906761 Eh/α   predicted     0.0000000E+00 (-100.00%)
   displ. norm   :     0.3601712 α      lambda       -0.1046781E+00
   maximum displ.:     0.3600870 α      in ANC's #2, #1, #3, ...

........................................................................
.............................. CYCLE    2 ..............................
........................................................................
   1     -6.1006620 -0.610066E+01  0.235E+00    0.65       0.0  T
   2     -6.0995682  0.109382E-02  0.173E+00    0.65       1.0  T
   3     -6.0970786  0.248952E-02  0.141E+00    0.66       1.0  T
   4     -6.1023666 -0.528798E-02  0.224E-01    0.67       1.0  T
   5     -6.1023929 -0.262779E-04  0.564E-02    0.67       1.0  T
   6     -6.1023143  0.785550E-04  0.114E-01    0.67       1.0  T
   7     -6.1024024 -0.880662E-04  0.462E-03    0.67      12.5  T
   8     -6.1024024 -0.115617E-08  0.482E-04    0.67     119.7  T
   9     -6.1024024 -0.217906E-09  0.156E-04    0.67     370.1  T
     SCC iter.                  ...        0 min,  0.001 sec
     gradient                   ...        0 min,  0.000 sec
 * total energy  :    -6.0124106 Eh     change       -0.8725963E-01 Eh
   gradient norm :     0.1516502 Eh/α   predicted    -0.5912866E-01 ( -32.24%)
   displ. norm   :     0.3793171 α      lambda       -0.5444885E-01
   maximum displ.:     0.3505287 α      in ANC's #2, #1, #3, ...

........................................................................
.............................. CYCLE    3 ..............................
........................................................................
   1     -6.2316132 -0.623161E+01  0.202E+00    0.48       0.0  T
   2     -6.2318419 -0.228661E-03  0.128E+00    0.48       1.0  T
   3     -6.2311593  0.682598E-03  0.576E-01    0.48       1.0  T
   4     -6.2320234 -0.864139E-03  0.801E-02    0.48       1.0  T
   5     -6.2320232  0.206360E-06  0.170E-02    0.48       3.4  T
   6     -6.2320154  0.783107E-05  0.369E-02    0.48       1.6  T
   7     -6.2320244 -0.902313E-05  0.135E-03    0.48      42.9  T
   8     -6.2320244 -0.758522E-10  0.744E-05    0.48     776.4  T
   9     -6.2320244 -0.137668E-12  0.108E-05    0.48    5364.9  T
     SCC iter.                  ...        0 min,  0.000 sec
     gradient                   ...        0 min,  0.000 sec
 * total energy  :    -6.0185955 Eh     change       -0.6184852E-02 Eh
   gradient norm :     0.1891696 Eh/α   predicted    -0.3114151E-01 ( 403.51%)
   displ. norm   :     0.4151223 α      lambda       -0.4434254E-01
   maximum displ.:     0.4116409 α      in ANC's #1, #2, #3, ...

........................................................................
.............................. CYCLE    4 ..............................
........................................................................
   1     -6.1585701 -0.615857E+01  0.254E+00    0.05       0.0  T
   2     -6.1590742 -0.504117E-03  0.131E+00    0.07       1.0  T
   3     -6.1592469 -0.172703E-03  0.107E+00    0.08       1.0  T
   4     -6.1612197 -0.197279E-02  0.229E-01    0.08       1.0  T
   5     -6.1612203 -0.557820E-06  0.339E-02    0.08       1.7  T
   6     -6.1612105  0.980942E-05  0.389E-02    0.08       1.5  T
   7     -6.1612198 -0.937170E-05  0.183E-02    0.08       3.1  T
   8     -6.1612209 -0.106668E-05  0.119E-03    0.08      48.7  T
   9     -6.1612209 -0.206493E-10  0.788E-04    0.08      73.3  T
  10     -6.1612209 -0.115200E-09  0.180E-05    0.08    3214.1  T
     SCC iter.                  ...        0 min,  0.000 sec
     gradient                   ...        0 min,  0.000 sec
 * total energy  :    -6.0376749 Eh     change       -0.1907940E-01 Eh
   gradient norm :     0.0527520 Eh/α   predicted    -0.2599196E-01 (  36.23%)
   displ. norm   :     0.1100953 α      lambda       -0.2713122E-02
   maximum displ.:     0.0859491 α      in ANC's #1, #2, #3, ...

........................................................................
.............................. CYCLE    5 ..............................
........................................................................
   1     -6.1675065 -0.616751E+01  0.160E+00    0.02       0.0  T
   2     -6.1675776 -0.711015E-04  0.439E-01    0.04       1.0  T
   3     -6.1675742  0.336737E-05  0.144E-01    0.05       1.0  T
   4     -6.1675751 -0.897165E-06  0.825E-02    0.05       1.0  T
   5     -6.1675868 -0.116614E-04  0.101E-02    0.05       5.7  T
   6     -6.1675854  0.137509E-05  0.148E-02    0.05       3.9  T
   7     -6.1675870 -0.156482E-05  0.408E-03    0.05      14.1  T
   8     -6.1675870 -0.336152E-08  0.273E-04    0.05     211.9  T
   9     -6.1675870 -0.520473E-11  0.123E-04    0.05     468.9  T
     SCC iter.                  ...        0 min,  0.000 sec
     gradient                   ...        0 min,  0.000 sec
 * total energy  :    -6.0400051 Eh     change       -0.2330252E-02 Eh
   gradient norm :     0.0410522 Eh/α   predicted    -0.1373003E-02 ( -41.08%)
   displ. norm   :     0.2259999 α      lambda       -0.5266450E-02
   maximum displ.:     0.1664130 α      in ANC's #2, #1, #3, ...

........................................................................
.............................. CYCLE    6 ..............................
........................................................................
   1     -6.1803973 -0.618040E+01  0.261E+00    0.03       0.0  T
   2     -6.1805916 -0.194339E-03  0.657E-01    0.00       1.0  T
   3     -6.1805983 -0.669946E-05  0.236E-01    0.01       1.0  T
   4     -6.1805743  0.240342E-04  0.921E-02    0.01       1.0  T
   5     -6.1806015 -0.272066E-04  0.869E-03    0.01       6.6  T
   6     -6.1805985  0.302920E-05  0.201E-02    0.01       2.9  T
   7     -6.1806015 -0.303281E-05  0.394E-03    0.01      14.7  T
   8     -6.1806016 -0.571047E-07  0.211E-04    0.01     273.6  T
   9     -6.1806016 -0.169624E-10  0.312E-05    0.01    1849.9  T
     SCC iter.                  ...        0 min,  0.001 sec
     gradient                   ...        0 min,  0.000 sec
 * total energy  :    -6.0433800 Eh     change       -0.3374843E-02 Eh
   gradient norm :     0.0146743 Eh/α   predicted    -0.2767721E-02 ( -17.99%)
   displ. norm   :     0.1029698 α      lambda       -0.8956392E-03
   maximum displ.:     0.0806337 α      in ANC's #2, #1, #3, ...

........................................................................
.............................. CYCLE    7 ..............................
........................................................................
   1     -6.1833757 -0.618338E+01  0.580E-01    0.01       0.0  T
   2     -6.1833835 -0.782491E-05  0.214E-01    0.00       1.0  T
   3     -6.1833840 -0.483838E-06  0.946E-02    0.00       1.0  T
   4     -6.1833840 -0.296065E-07  0.623E-03    0.00       9.3  T
   5     -6.1833841 -0.225062E-07  0.380E-03    0.00      15.2  T
   6     -6.1833832  0.904363E-06  0.110E-02    0.00       5.3  T
   7     -6.1833841 -0.944247E-06  0.472E-04    0.00     122.3  T
   8     -6.1833841 -0.804046E-09  0.589E-05    0.00     980.4  T
     SCC iter.                  ...        0 min,  0.000 sec
     gradient                   ...        0 min,  0.000 sec
 * total energy  :    -6.0439550 Eh     change       -0.5750226E-03 Eh
   gradient norm :     0.0075224 Eh/α   predicted    -0.4525661E-03 ( -21.30%)
   displ. norm   :     0.0353041 α      lambda       -0.2469177E-03
   maximum displ.:     0.0348099 α      in ANC's #2, #1, #3, ...

........................................................................
.............................. CYCLE    8 ..............................
........................................................................
   1     -6.1922639 -0.619226E+01  0.142E-01    0.00       0.0  T
   2     -6.1922671 -0.317583E-05  0.910E-02    0.00       1.0  T
   3     -6.1922676 -0.497806E-06  0.579E-02    0.00       1.0  T
   4     -6.1922719 -0.430193E-05  0.862E-03    0.00       6.7  T
   5     -6.1922719  0.473611E-08  0.354E-03    0.00      16.3  T
   6     -6.1922716  0.301194E-06  0.629E-03    0.00       9.2  T
   7     -6.1922719 -0.309564E-06  0.119E-04    0.00     485.4  T
   8     -6.1922719 -0.133031E-10  0.556E-05    0.00    1037.5  T
     SCC iter.                  ...        0 min,  0.000 sec
     gradient                   ...        0 min,  0.000 sec
 * total energy  :    -6.0438998 Eh     change        0.5524449E-04 Eh
   gradient norm :     0.0148971 Eh/α   predicted    -0.1236141E-03 (-323.76%)
   displ. norm   :     0.0522160 α      lambda       -0.3498165E-03
   maximum displ.:     0.0452592 α      in ANC's #1, #2, #3, ...

........................................................................
.............................. CYCLE    9 ..............................
........................................................................
   1     -6.1855051 -0.618551E+01  0.171E-01    0.00       0.0  T
   2     -6.1855070 -0.190123E-05  0.109E-01    0.00       1.0  T
   3     -6.1855002  0.679601E-05  0.688E-02    0.00       1.0  T
   4     -6.1855103 -0.100981E-04  0.572E-03    0.00      10.1  T
   5     -6.1855103 -0.645667E-08  0.234E-03    0.00      24.6  T
   6     -6.1855102  0.585859E-07  0.280E-03    0.00      20.7  T
   7     -6.1855103 -0.615530E-07  0.197E-04    0.00     293.6  T
   8     -6.1855103 -0.779572E-10  0.900E-05    0.00     641.7  T
     SCC iter.                  ...        0 min,  0.000 sec
     gradient                   ...        0 min,  0.000 sec
 * total energy  :    -6.0440318 Eh     change       -0.1320831E-03 Eh
   gradient norm :     0.0023628 Eh/α   predicted    -0.1753854E-03 (  32.78%)
   displ. norm   :     0.0271939 α      lambda       -0.3686627E-04
   maximum displ.:     0.0201751 α      in ANC's #2, #1, #3, ...

........................................................................
.............................. CYCLE   10 ..............................
........................................................................
   1     -6.1863810 -0.618638E+01  0.853E-02    0.00       0.0  T
   2     -6.1863811 -0.699560E-07  0.519E-02    0.00       1.1  T
   3     -6.1863807  0.393438E-06  0.131E-02    0.00       4.4  T
   4     -6.1863811 -0.448109E-06  0.296E-03    0.00      19.5  T
   5     -6.1863811 -0.133847E-07  0.984E-04    0.00      58.7  T
   6     -6.1863810  0.742276E-07  0.310E-03    0.00      18.6  T
   7     -6.1863811 -0.754405E-07  0.358E-05    0.00    1612.0  T
     SCC iter.                  ...        0 min,  0.000 sec
     gradient                   ...        0 min,  0.000 sec
 * total energy  :    -6.0440469 Eh     change       -0.1508226E-04 Eh
   gradient norm :     0.0002253 Eh/α   predicted    -0.1844645E-04 (  22.31%)
   displ. norm   :     0.0065093 α      lambda       -0.9658781E-06
   maximum displ.:     0.0051831 α      in ANC's #2, #1, #3, ...

........................................................................
.............................. CYCLE   11 ..............................
........................................................................
   1     -6.1863807 -0.618638E+01  0.201E-02    0.00       0.0  T
   2     -6.1863807 -0.231356E-08  0.123E-02    0.00       4.7  T
   3     -6.1863807 -0.140652E-08  0.545E-04    0.00     105.9  T
   4     -6.1863807  0.316907E-09  0.257E-04    0.00     224.5  T
     SCC iter.                  ...        0 min,  0.000 sec
     gradient                   ...        0 min,  0.000 sec
 * total energy  :    -6.0440473 Eh     change       -0.3791510E-06 Eh
   gradient norm :     0.0001106 Eh/α   predicted    -0.4834643E-06 (  27.51%)
   displ. norm   :     0.0021016 α      lambda       -0.1517356E-06
   maximum displ.:     0.0017084 α      in ANC's #2, #1, #3, ...

   *** GEOMETRY OPTIMIZATION CONVERGED AFTER 11 ITERATIONS ***

------------------------------------------------------------------------
 total energy gain   :        -0.1188963 Eh      -74.6086 kcal/mol
 total RMSD          :         0.7794568 a0        0.4125 Å
 total power (kW/mol):       -28.3783809 (step)********** (real)
------------------------------------------------------------------------

 ANCopt (total)                0 d,  0 h,  0 min,  0.018 sec
 optimizer setup                ...        0 min,  0.000 sec (  0.361%)
 model hessian                  ...        0 min,  0.000 sec (  0.197%)
 ANC generation                 ...        0 min,  0.000 sec (  0.612%)
 coordinate transformation      ...        0 min,  0.000 sec (  0.146%)
 single point calculation       ...        0 min,  0.017 sec ( 94.378%)
 optimization log               ...        0 min,  0.000 sec (  1.086%)
 hessian update                 ...        0 min,  0.000 sec (  0.120%)
 rational function              ...        0 min,  0.000 sec (  1.090%)

================
 final structure:
================
3
 xtb: 6.2.2 (9d81278992624c895f80dd42a50cac0aa55982e2)
C         0.00000184881857   -0.00090821388273    0.00000000000000
C        -1.27215564558279   -0.00165815318624    0.00000000000000
C         1.27215479676422    0.00256636706897    0.00000000000000

 Bond Distances (Angstroems)
 ---------------------------
C1-C2=1.2722         C1-C3=1.2722         C2-C1=1.2722         C3-C1=1.2722         
 C  C  Rav=1.2722 sigma=0.0000  Rmin=1.2722  Rmax=1.2722     2

 selected bond angles (degree)
 --------------------
C3-C1-C2=179.88                

 selected dihedral angles (degree)
 ---------------------------------

           -------------------------------------------------
          |                Final Singlepoint                |
           -------------------------------------------------

          ...................................................
          :                      SETUP                      :
          :.................................................:
          :  # basis functions                  12          :
          :  # atomic orbitals                  12          :
          :  # shells                            6          :
          :  # electrons                        12          :
          :  max. iterations                   250          :
          :  Hamiltonian                  GFN2-xTB          :
          :  restarted?                      false          :
          :  GBSA solvation                  false          :
          :  PC potential                    false          :
          :  electronic temp.          300.0000000     K    :
          :  accuracy                    1.0000000          :
          :  -> integral cutoff          0.2500000E+02      :
          :  -> integral neglect         0.1000000E-07      :
          :  -> SCF convergence          0.1000000E-05 Eh   :
          :  -> wf. convergence          0.1000000E-03 e    :
          :  Broyden damping             0.4000000          :
          ...................................................

 iter      E             dE          RMSdq      gap      omega  full diag
   1     -6.1863807 -0.618638E+01  0.715E-04    0.00       0.0  T
   2     -6.1863806  0.837853E-07  0.332E-03    0.00      17.4  T
   3     -6.1863807 -0.877100E-07  0.492E-05    0.00    1172.8  T
   4     -6.1863807 -0.882316E-11  0.272E-05    0.00    2124.2  T

   *** convergence criteria satisfied after 4 iterations ***

         #    Occupation            Energy/Eh            Energy/eV
      -------------------------------------------------------------
         1        2.0000           -0.6853456             -18.6492
         2        2.0000           -0.6503724             -17.6975
         3        2.0000           -0.5114418             -13.9170
         4        2.0000           -0.5114416             -13.9170
         5        2.0000           -0.4961205             -13.5001
         6        1.0000           -0.4391184             -11.9490
         7        0.5000           -0.3899954             -10.6123 (HOMO)
         8        0.5000           -0.3899954             -10.6123 (LUMO)
         9                         -0.1761774              -4.7940
        10                         -0.1761768              -4.7940
        11                          0.3242572               8.8235
        12                          1.1119963              30.2590
      -------------------------------------------------------------
                  HL-Gap            0.0000001 Eh            0.0000 eV
             Fermi-level           -0.4288052 Eh          -11.6684 eV

 transition dipole moment (au) for excitation:           6           7
     X       Y       Z   
  -0.0000   0.0000  -0.2827  total (au/Debye):    0.283   0.719
 dE (eV)             :    1.337
 oscillator strength :  0.37012E-02

 SCC (total)                   0 d,  0 h,  0 min,  0.002 sec
 SCC setup                      ...        0 min,  0.000 sec (  2.545%)
 Dispersion                     ...        0 min,  0.000 sec (  0.344%)
 integral evaluation            ...        0 min,  0.001 sec ( 31.623%)
 zeroth order Hamiltonian       ...        0 min,  0.000 sec (  0.344%)
 iterations                     ...        0 min,  0.000 sec ( 12.806%)
 molecular gradient             ...        0 min,  0.000 sec ( 26.781%)
 printout                       ...        0 min,  0.000 sec ( 25.144%)

         :::::::::::::::::::::::::::::::::::::::::::::::::::::
         ::                     SUMMARY                     ::
         :::::::::::::::::::::::::::::::::::::::::::::::::::::
         :: total energy              -6.044047299212 Eh    ::
         :: gradient norm              0.000110654200 Eh/a0 ::
         :: HOMO-LUMO gap              0.000001430082 eV    ::
         ::.................................................::
         :: SCC energy                -6.186380667346 Eh    ::
         :: -> isotropic ES           -0.011279031395 Eh    ::
         :: -> anisotropic ES          0.000140058174 Eh    ::
         :: -> anisotropic XC          0.008448673294 Eh    ::
         :: -> dispersion             -0.001033229966 Eh    ::
         :: repulsion energy           0.142333372344 Eh    ::
         :: add. restraining           0.000000000000 Eh    ::
         :::::::::::::::::::::::::::::::::::::::::::::::::::::

           ------------------------------------------------- 
          |                Numerical Hessian                |
           ------------------------------------------------- 
step length          :   0.00500
SCC accuracy         :   0.30000
Hessian scale factor :   1.00000
frozen atoms in %    :   0.00000    0
RMS gradient         :   0.00011
estimated CPU  time      0.00 min
estimated wall time      0.00 min

writing file <hessian>.

 vibrational frequencies (cm-1)
eigval :        0.00     0.00     0.00     0.00     0.00   333.45
eigval :      333.50  1342.00  1686.37
           -------------------------------------------------
          |                Property Printout                |
           -------------------------------------------------

    * Orbital Energies and Occupations

         #    Occupation            Energy/Eh            Energy/eV
      -------------------------------------------------------------
         1        2.0000           -0.6853456             -18.6492
         2        2.0000           -0.6503724             -17.6975
         3        2.0000           -0.5114417             -13.9170
         4        2.0000           -0.5114416             -13.9170
         5        2.0000           -0.4961205             -13.5001
         6        1.0000           -0.4391184             -11.9490
         7        0.5000           -0.3899955             -10.6123 (HOMO)
         8        0.5000           -0.3899954             -10.6123 (LUMO)
         9                         -0.1761774              -4.7940
        10                         -0.1761768              -4.7940
        11                          0.3242572               8.8235
        12                          1.1119963              30.2590
      -------------------------------------------------------------
                  HL-Gap            0.0000001 Eh            0.0000 eV
             Fermi-level           -0.4288052 Eh          -11.6684 eV

     #   Z        covCN         q      C6AA      α(0)
     1   6 C      1.962     0.091    28.798     8.666
     2   6 C      0.983    -0.046    37.329    10.263
     3   6 C      0.983    -0.046    37.329    10.263

 Mol. C6AA /au·bohr⁶  :        309.218947
 Mol. C8AA /au·bohr⁸  :       8943.149295
 Mol. α(0) /au        :         29.192228


Wiberg/Mayer (AO) data.
largest (>0.10) Wiberg bond orders for each atom
          total WBO             WBO to atom ...
Molecule has the following symmetry elements: (i) (Cinf) (C2) 2*(sigma) 
It seems to be the Dinfh point group
     1  C   3.853        C    2 1.926    C    3 1.926
     2  C   2.192        C    1 1.926    C    3 0.265
     3  C   2.192        C    1 1.926    C    2 0.265

MOs/occ written to file <molden.input>


molecular dipole:
                 x           y           z       tot (Debye)
 q only:        0.000      -0.000       0.000
   full:        0.000      -0.000       0.000       0.001
molecular quadrupole (traceless):
                xx          xy          yy          xz          yz          zz
 q only:       -0.527      -0.001       0.263       0.000       0.000       0.263
  q+dip:        0.665       0.002      -0.332      -0.000      -0.000      -0.332
   full:       -2.149      -0.005       1.075       0.000      -0.000       1.075

           -------------------------------------------------
          |                Geometry Summary                 |
           -------------------------------------------------

      molecular mass/u    :       36.0322077
   center of mass at/Å    :        0.0000003      -0.0000000      -0.0000000
  moments of inertia/u·Å² :        0.1486067E-04   0.3887595E+02   0.3887597E+02
rotational constants/cm⁻¹ :        0.1134379E+07   0.4336262E+00   0.4336261E+00

           -------------------------------------------------
          |               Frequency Printout                |
           -------------------------------------------------
 vibrational frequencies (cm-1)
eigval :        0.00     0.00     0.00     0.00     0.00   333.45
eigval :      333.50  1342.00  1686.37
 reduced masses (amu)
   1: 12.01   2: 12.01   3: 12.01   4: 12.01   5: 12.01   6: 12.01   7: 12.01   8: 12.01
   9: 12.01
 IR intensities (amu)
   1:  0.00   2:  0.00   3:  0.00   4:  0.00   5:  0.00   6:  0.12   7:  0.12   8:  0.00
   9:  1.94
 Raman intensities (amu)
   1:  0.00   2:  0.00   3:  0.00   4:  0.00   5:  0.00   6:  0.00   7:  0.00   8:  0.00
   9:  0.00
 output can be read by thermo (or use thermo option).
 writing <g98.out> molden fake output.
 recommended (thermochemical) frequency scaling factor: 1.0
           -------------------------------------------------
          |             Thermodynamic Functions             |
           -------------------------------------------------

din symmetry found (for desy threshold:  0.10E+00) used in thermo

          ...................................................
          :                      SETUP                      :
          :.................................................:
          :  # frequencies                           4      :
          :  # imaginary freq.                       0      :
          :  linear?                              true      :
          :  only rotor calc.                    false      :
          :  symmetry                              din      :
          :  rotational number                       2      :
          :  scaling factor                  1.0000000      :
          :  rotor cutoff                   50.0000000 cm⁻¹ :
          :  imag. cutoff                  -20.0000000 cm⁻¹ :
          :.................................................:

    mode    ω/cm⁻¹     T·S(HO)/kcal·mol⁻¹    T·S(FR)/kcal·mol⁻¹   T·S(vib)
   ------------------------------------------------------------------------
   ------------------------------------------------------------------------

   temp. (K)  partition function   enthalpy   heat capacity  entropy
                                   cal/mol     cal/K/mol   cal/K/mol   J/K/mol
 298.15  VIB   1.57                  484.180      3.385      2.515
         ROT   239.                  592.502      1.987     12.870
         INT   374.                 1076.681      5.372     15.385
         TR   0.209E+27             1481.254      4.968     36.659
         TOT                        2557.9354    10.3400    52.0437   217.7510

   temp. (K)  partition function   enthalpy   heat capacity  entropy
                                   cal/mol     cal/K/mol   cal/K/mol   J/K/mol
 120.00  VIB   1.04                   35.640      1.210      0.371
         ROT   96.2                  238.471      1.987     11.061
         INT   99.8                  274.111      3.197     11.432
         TR   0.534E+26              596.178      4.968     32.139
         TOT                         870.2895     8.1652    43.5719   182.3047

   temp. (K)  partition function   enthalpy   heat capacity  entropy
                                   cal/mol     cal/K/mol   cal/K/mol   J/K/mol
 100.00  VIB   1.02                   15.856      0.767      0.192
         ROT   80.1                  198.726      1.987     10.699
         INT   81.5                  214.582      2.754     10.891
         TR   0.406E+26              496.815      4.968     31.234
         TOT                         711.3973     7.7225    42.1250   176.2509

   temp. (K)  partition function   enthalpy   heat capacity  entropy
                                   cal/mol     cal/K/mol   cal/K/mol   J/K/mol
  80.00  VIB   1.00                    4.751      0.357      0.070
         ROT   64.1                  158.981      1.987     10.256
         INT   64.4                  163.731      2.344     10.325
         TR   0.291E+26              397.452      4.968     30.126
         TOT                         561.1834     7.3124    40.4511   169.2474

   temp. (K)  partition function   enthalpy   heat capacity  entropy
                                   cal/mol     cal/K/mol   cal/K/mol   J/K/mol
  60.00  VIB   1.00                    0.642      0.086      0.012
         ROT   48.1                  119.236      1.987      9.684
         INT   48.1                  119.878      2.073      9.696
         TR   0.189E+26              298.089      4.968     28.697
         TOT                         417.9667     7.0410    38.3934   160.6378

   temp. (K)  partition function   enthalpy   heat capacity  entropy
                                   cal/mol     cal/K/mol   cal/K/mol   J/K/mol
  40.00  VIB   1.00                    0.012      0.004     -0.000
         ROT   32.1                   79.490      1.987      8.878
         INT   32.1                   79.502      1.991      8.878
         TR   0.103E+26              198.726      4.968     26.684
         TOT                         278.2282     6.9589    35.5620   148.7916

   temp. (K)  partition function   enthalpy   heat capacity  entropy
                                   cal/mol     cal/K/mol   cal/K/mol   J/K/mol
  20.00  VIB   1.00                    0.000      0.000     -0.001
         ROT   16.0                   39.745      1.987      7.501
         INT   16.0                   39.745      1.987      7.500
         TR   0.364E+25               99.363      4.968     23.242
         TOT                         139.1082     6.9554    30.7416   128.6228

   temp. (K)  partition function   enthalpy   heat capacity  entropy
                                   cal/mol     cal/K/mol   cal/K/mol   J/K/mol
  10.00  VIB   1.00                    0.000      0.000     -0.002
         ROT   8.01                   19.873      1.987      6.123
         INT   8.01                   19.873      1.987      6.121
         TR   0.129E+25               49.681      4.968     19.800
         TOT                          69.5541     6.9554    25.9215   108.4554

       T/K    H(0)-H(T)+PV         H(T)/Eh          T*S/Eh         G(T)/Eh
   ------------------------------------------------------------------------
    298.15    0.407633E-02    0.124949E-01    0.247277E-01   -0.122328E-01
    120.00    0.138689E-02    0.980547E-02    0.833235E-02    0.147313E-02
    100.00    0.113368E-02    0.955226E-02    0.671304E-02    0.283922E-02
     80.00    0.894303E-03    0.931288E-02    0.515704E-02    0.415584E-02
     60.00    0.666072E-03    0.908465E-02    0.367102E-02    0.541363E-02
     40.00    0.443385E-03    0.886196E-02    0.226687E-02    0.659509E-02
     20.00    0.221683E-03    0.864026E-02    0.979797E-03    0.766046E-02
     10.00    0.110842E-03    0.852942E-02    0.413085E-03    0.811633E-02 (used)
   ------------------------------------------------------------------------

         :::::::::::::::::::::::::::::::::::::::::::::::::::::
         ::                  THERMODYNAMIC                  ::
         :::::::::::::::::::::::::::::::::::::::::::::::::::::
         :: total free energy          -6.035930965482 Eh   ::
         ::.................................................::
         :: total energy               -6.044047298932 Eh   ::
         :: zero point energy           0.008418576608 Eh   ::
         :: G(RRHO) w/o ZPVE           -0.000302243157 Eh   ::
         :: G(RRHO) contrib.            0.008116333450 Eh   ::
         :::::::::::::::::::::::::::::::::::::::::::::::::::::

optimized geometry written to: xtbopt.xyz


           -------------------------------------------------
          | TOTAL ENERGY               -6.044047298932 Eh   |
          | TOTAL ENTHALPY             -6.035517880811 Eh   |
          | TOTAL FREE ENERGY          -6.035930965482 Eh   |
          | GRADIENT NORM               0.000110651582 Eh/α |
          | HOMO-LUMO GAP               0.000001431438 eV   |
           -------------------------------------------------

------------------------------------------------------------------------
 * finished run on 2020/05/12 at 11:44:25.329     
------------------------------------------------------------------------
 total:
 * wall-time:     0 d,  0 h,  0 min,  0.065 sec
 *  cpu-time:     0 d,  0 h,  0 min,  0.065 sec
 * ratio c/w:     0.999 speedup
 SCF:
 * wall-time:     0 d,  0 h,  0 min,  0.004 sec
 *  cpu-time:     0 d,  0 h,  0 min,  0.004 sec
 * ratio c/w:     1.000 speedup
 ANC optimizer:
 * wall-time:     0 d,  0 h,  0 min,  0.021 sec
 *  cpu-time:     0 d,  0 h,  0 min,  0.021 sec
 * ratio c/w:     0.999 speedup
 numerical hessian:
 * wall-time:     0 d,  0 h,  0 min,  0.025 sec
 *  cpu-time:     0 d,  0 h,  0 min,  0.025 sec
 * ratio c/w:     0.999 speedup

