3
 energy: -6.044047299212 gnorm: 0.000110654200 xtb: 6.2.2 (9d81278992624c895f80dd42a50cac0aa55982e2)
C         0.00000184406318   -0.00090821389240    0.00000000157868
C        -1.27215565423966   -0.00165149219483    0.00000444355495
C         1.27215481017648    0.00255970608199   -0.00000444513712
