3
 energy: -5.925150999467 gnorm: 0.290676074354 xtb: 6.2.2 (9d81278992624c895f80dd42a50cac0aa55982e2)
C        -0.00096700000000    0.58274700000000    0.00000000000000
C        -1.23568100000000   -0.29342600000000    0.00000000000000
C         1.23664900000000   -0.28932100000000    0.00000000000000
3
 energy: -6.012410625774 gnorm: 0.151650182581 xtb: 6.2.2 (9d81278992624c895f80dd42a50cac0aa55982e2)
C        -0.00075645895778    0.45669954644360    0.00000000000000
C        -1.15674769963307   -0.23027150186543    0.00000000000000
C         1.15750515859085   -0.22642804457818    0.00000000000000
3
 energy: -6.018595478256 gnorm: 0.189169608833 xtb: 6.2.2 (9d81278992624c895f80dd42a50cac0aa55982e2)
C        -0.00049368392658    0.29815726425989    0.00000000000000
C        -1.12091158513117   -0.15094050047758    0.00000000000000
C         1.12140626905775   -0.14721676378231    0.00000000000000
3
 energy: -6.037674880762 gnorm: 0.052752017777 xtb: 6.2.2 (9d81278992624c895f80dd42a50cac0aa55982e2)
C        -0.00034702798898    0.20923612756762    0.00000000000000
C        -1.25588442337839   -0.10670358062573    0.00000000000000
C         1.25623245136738   -0.10253254694190    0.00000000000000
3
 energy: -6.040005132863 gnorm: 0.041052195376 xtb: 6.2.2 (9d81278992624c895f80dd42a50cac0aa55982e2)
C        -0.00027084375763    0.16311599296488    0.00000000000000
C        -1.26601228876877   -0.08366013424567    0.00000000000000
C         1.26628413252640   -0.07945585871921    0.00000000000000
3
 energy: -6.043379976226 gnorm: 0.014674316752 xtb: 6.2.2 (9d81278992624c895f80dd42a50cac0aa55982e2)
C        -0.00010919979094    0.06590683213282    0.00000000000000
C        -1.27410101575208   -0.03506894939683    0.00000000000000
C         1.27421121554302   -0.03083788273599    0.00000000000000
3
 energy: -6.043954998787 gnorm: 0.007522427426 xtb: 6.2.2 (9d81278992624c895f80dd42a50cac0aa55982e2)
C        -0.00003523337274    0.02142822127202    0.00000000000000
C        -1.27501945253642   -0.01283115487518    0.00000000000000
C         1.27505568590916   -0.00859706639684    0.00000000000000
3
 energy: -6.043899754295 gnorm: 0.014897120097 xtb: 6.2.2 (9d81278992624c895f80dd42a50cac0aa55982e2)
C        -0.00001792175493    0.01097540558898    0.00000000000000
C        -1.26540704526072   -0.00758875844820    0.00000000000000
C         1.26542596701565   -0.00338664714079    0.00000000000000
3
 energy: -6.044031837364 gnorm: 0.002362808156 xtb: 6.2.2 (9d81278992624c895f80dd42a50cac0aa55982e2)
C         0.00001659451040   -0.00980140380617    0.00000000000000
C        -1.27303960766807    0.00278699217459    0.00000000000000
C         1.27302401315768    0.00701441163158    0.00000000000000
3
 energy: -6.044046919627 gnorm: 0.000225277906 xtb: 6.2.2 (9d81278992624c895f80dd42a50cac0aa55982e2)
C        -0.00000282455307    0.00190427555697    0.00000000000000
C        -1.27214989828910   -0.00306439055743    0.00000000000000
C         1.27215372284217    0.00116011500046    0.00000000000000
3
 energy: -6.044047298778 gnorm: 0.000110570458 xtb: 6.2.2 (9d81278992624c895f80dd42a50cac0aa55982e2)
C         0.00000184881857   -0.00090821388273    0.00000000000000
C        -1.27215564558279   -0.00165815318624    0.00000000000000
C         1.27215479676422    0.00256636706897    0.00000000000000
