$hessian                                                                        
        0.8617333265   0.0013723379  -0.0000255700  -0.4308723203  -0.0002213622
        0.0000007487  -0.4308684324  -0.0011300145   0.0000007634
        0.0013723379   0.0336987083  -0.0000000431   0.0000889167  -0.0168450872
        0.0000000002  -0.0014612457  -0.0168502362   0.0000000030
       -0.0000255700  -0.0000000431   0.0337119726   0.0000129073   0.0000000071
       -0.0168489848   0.0000126627   0.0000000360  -0.0168491925
       -0.4308723203   0.0000889167   0.0000129073   0.6247330800   0.0004025456
       -0.0000011269  -0.1938570204  -0.0005183276   0.0000003728
       -0.0002213622  -0.0168450872   0.0000000071   0.0004025456   0.0084170843
       -0.0000000017  -0.0001811842   0.0084261303   0.0000000012
        0.0000007487   0.0000000002  -0.0168489848  -0.0000011269  -0.0000000017
        0.0084161913   0.0000003782   0.0000000014   0.0084260028
       -0.4308684324  -0.0014612457   0.0000126627  -0.1938570204  -0.0001811842
        0.0000003782   0.6247291398   0.0016483340  -0.0000011362
       -0.0011300145  -0.0168502362   0.0000000360  -0.0005183276   0.0084261303
        0.0000000014   0.0016483340   0.0084225938  -0.0000000041
        0.0000007634   0.0000000030  -0.0168491925   0.0000003728   0.0000000012
        0.0084260028  -0.0000011362  -0.0000000041   0.0084161849
