4
 energy: -8.200617970626 gnorm: 0.000300186442 xtb: 6.2.2 (9d81278992624c895f80dd42a50cac0aa55982e2)
C         1.82721847820902   -0.00307218545926   -0.15201048551146
C         0.66218823854190    0.00479137560431    0.18127155280789
C        -0.66217977229002   -0.00408929632512   -0.18124667254522
C        -1.82722694446440    0.00237010617829    0.15198460524878
