 Entering Gaussian System
 *********************************************
 Gaussian 98:
 frequency output generated by the xtb code
 *********************************************
                         Standard orientation:
 --------------------------------------------------------------------
  Center     Atomic     Atomic              Coordinates (Angstroms)
  Number     Number      Type              X           Y           Z
 --------------------------------------------------------------------
    1          6             0        1.827218   -0.003072   -0.152010
    2          6             0        0.662188    0.004791    0.181272
    3          6             0       -0.662180   -0.004089   -0.181247
    4          6             0       -1.827227    0.002370    0.151985
 --------------------------------------------------------------------
     1 basis functions        1 primitive gaussians
     1 alpha electrons        1 beta electrons

 Harmonic frequencies (cm**-1), IR intensities (KM/Mole),
 Raman scattering activities (A**4/amu), Raman depolarization ratios,
 reduced masses (AMU), force constants (mDyne/A) and normal coordinates:
                      1                      2                      3
                        a                      a                      a 
 Frequencies --   239.4732               247.0609               334.4980
 Red. masses --    12.0107                12.0107                12.0107
 Frc consts  --     0.0000                 0.0000                 0.0000
 IR Inten    --     0.3875                 0.0698                 0.0003
 Raman Activ --     0.0000                 0.0000                 0.0000
 Depolar     --     0.0000                 0.0000                 0.0000
 Atom AN      X      Y      Z        X      Y      Z        X      Y      Z
   1   6     0.14   0.01   0.48    -0.00  -0.50   0.01     0.34   0.00   0.19
   2   6    -0.14  -0.01  -0.48     0.00   0.50  -0.01     0.19  -0.01  -0.56
   3   6    -0.14  -0.01  -0.48    -0.00   0.50  -0.01    -0.19   0.01   0.56
   4   6     0.14   0.01   0.48     0.00  -0.50   0.01    -0.34  -0.00  -0.19
                      4                      5                      6
                        a                      a                      a 
 Frequencies --  1024.0416              1914.4634              2096.3739
 Red. masses --    12.0107                12.0107                12.0107
 Frc consts  --     0.0000                 0.0000                 0.0000
 IR Inten    --     0.0001                 0.0006                 1.8449
 Raman Activ --     0.0000                 0.0000                 0.0000
 Depolar     --     0.0000                 0.0000                 0.0000
 Atom AN      X      Y      Z        X      Y      Z        X      Y      Z
   1   6     0.44  -0.00  -0.13     0.43  -0.00  -0.11    -0.48   0.00   0.14
   2   6     0.40   0.01   0.36    -0.55   0.00   0.05     0.48  -0.00  -0.14
   3   6    -0.40  -0.01  -0.36     0.55  -0.00  -0.05     0.48  -0.00  -0.14
   4   6    -0.44   0.00   0.13    -0.43   0.00   0.11    -0.48   0.00   0.14
