4
 energy: -8.009100249668 gnorm: 0.327516386351 xtb: 6.2.2 (9d81278992624c895f80dd42a50cac0aa55982e2)
C         1.54674500000000    0.56096900000000   -0.18161700000000
C         0.67431000000000   -0.56253100000000    0.34625900000000
C        -0.67478400000000   -0.55932700000000   -0.35049900000000
C        -1.54627100000000    0.56088900000000    0.18585600000000
4
 energy: -8.120224440342 gnorm: 0.188946678885 xtb: 6.2.2 (9d81278992624c895f80dd42a50cac0aa55982e2)
C         1.50439180731482    0.49314621302684   -0.13460942148405
C         0.65762941721736   -0.49446337068736    0.24105485004824
C        -0.65804616659661   -0.49207045552334   -0.24478340968898
C        -1.50397505793556    0.49338761318386    0.13833698112479
4
 energy: -8.142724835171 gnorm: 0.170949428560 xtb: 6.2.2 (9d81278992624c895f80dd42a50cac0aa55982e2)
C         1.46815211824502    0.43194696329599   -0.06713334598054
C         0.67045781747652   -0.43298599093834    0.10253325937181
C        -0.67082289308962   -0.43163023087755   -0.10580082763925
C        -1.46778704263192    0.43266925851990    0.07039991424798
4
 energy: -8.159970699850 gnorm: 0.080015117123 xtb: 6.2.2 (9d81278992624c895f80dd42a50cac0aa55982e2)
C         1.63791021324213    0.43060212393899   -0.04379715843897
C         0.70332767062675   -0.43150393055922    0.01976015483300
C        -0.70368935724463   -0.43074319095462   -0.02301797396654
C        -1.63754852662425    0.43164499757484    0.04705397757252
4
 energy: -8.160044590218 gnorm: 0.135183408909 xtb: 6.2.2 (9d81278992624c895f80dd42a50cac0aa55982e2)
C         1.73723456090084    0.33226492515840   -0.10439137968043
C         0.63116743752648   -0.33323000556939    0.09384477813322
C        -0.63144510551096   -0.33197138263969   -0.09635734747534
C        -1.73695689291636    0.33293646305067    0.10690294902254
4
 energy: -8.167268077450 gnorm: 0.059187756817 xtb: 6.2.2 (9d81278992624c895f80dd42a50cac0aa55982e2)
C         1.72235103824182    0.33531471138150   -0.08137773518091
C         0.66292164329939   -0.33625191392932    0.06155251283545
C        -0.66320226405374   -0.33520983452005   -0.06408848577946
C        -1.72207041748746    0.33614703706787    0.08391270812491
4
 energy: -8.183502252943 gnorm: 0.116478099089 xtb: 6.2.2 (9d81278992624c895f80dd42a50cac0aa55982e2)
C         1.81256498438559    0.23984640276415   -0.09515286479962
C         0.68432342275643   -0.24084653420815    0.07911507200914
C        -0.68452237610562   -0.23965270834361   -0.08092811735307
C        -1.81236603103640    0.24065283978760    0.09696491014355
4
 energy: -8.161354183767 gnorm: 0.194123329859 xtb: 6.2.2 (9d81278992624c895f80dd42a50cac0aa55982e2)
C         2.01346780788884    0.02665694228337   -0.12152845533675
C         0.73912804516242   -0.02779739475898    0.11204805406330
C        -0.73913854187171   -0.02629908718391   -0.11224483751752
C        -2.01345731117955    0.02743953965950    0.12172423879096
4
 energy: -8.164075640175 gnorm: 0.247466030378 xtb: 6.2.2 (9d81278992624c895f80dd42a50cac0aa55982e2)
C         1.93576357904823    0.13476688464037   -0.03690681004460
C         0.82334358439936   -0.13578353593295   -0.01677096145279
C        -0.82338488428897   -0.13511923576399    0.01577260126350
C        -1.93572227915862    0.13613588705656    0.03790417023388
4
 energy: -8.181489190095 gnorm: 0.164733239981 xtb: 6.2.2 (9d81278992624c895f80dd42a50cac0aa55982e2)
C         1.82335827278124    0.20169689215798   -0.10511766931703
C         0.65069021260012   -0.20245037009403    0.08163513464232
C        -0.65119634672497   -0.20157068614410   -0.08323497420415
C        -1.82285213865638    0.20232416408014    0.10671650887886
4
 energy: -8.189270091903 gnorm: 0.093548473692 xtb: 6.2.2 (9d81278992624c895f80dd42a50cac0aa55982e2)
C         1.91068700748462    0.12564846743375   -0.08977037223886
C         0.71952186102473   -0.12688295355472    0.05742033087884
C        -0.71921190629869   -0.12550795776196   -0.05829847605086
C        -1.91099696221065    0.12674244388291    0.09064751741087
4
 energy: -8.190414470000 gnorm: 0.045667499071 xtb: 6.2.2 (9d81278992624c895f80dd42a50cac0aa55982e2)
C         1.86896131207768    0.17063527626273   -0.08487605804041
C         0.71909919459218   -0.17015778919715    0.05909269205312
C        -0.72145856592987   -0.17147697824973   -0.06103119488956
C        -1.86660194073999    0.17099949118414    0.08681356087685
4
 energy: -8.191178160649 gnorm: 0.064121728082 xtb: 6.2.2 (9d81278992624c895f80dd42a50cac0aa55982e2)
C         1.86043784347668    0.16185806268791   -0.08872225762685
C         0.71278143868179   -0.16976190622638    0.05953720682323
C        -0.70199190185174   -0.15821353918567   -0.05806271598902
C        -1.87122738030673    0.16611738272413    0.08724676679263
4
 energy: -8.186141778603 gnorm: 0.167580297913 xtb: 6.2.2 (9d81278992624c895f80dd42a50cac0aa55982e2)
C         1.88549520233788    0.12952584416862   -0.09004161432941
C         0.64909549008333   -0.11101619881501    0.04583731778766
C        -0.67943658841143   -0.14004262275347   -0.05464151808348
C        -1.85515410400977    0.12153297739984    0.09884481462522
4
 energy: -8.192714208412 gnorm: 0.063132623509 xtb: 6.2.2 (9d81278992624c895f80dd42a50cac0aa55982e2)
C         1.87336585880326    0.14205418431094   -0.08666537832243
C         0.69815220693886   -0.14159411925713    0.05097334112528
C        -0.70015717384038   -0.14319854272795   -0.05281483268279
C        -1.87136089190173    0.14273847767412    0.08850586987994
4
 energy: -8.193438468499 gnorm: 0.049293064117 xtb: 6.2.2 (9d81278992624c895f80dd42a50cac0aa55982e2)
C         1.87088244991104    0.13494436747866   -0.08485801209396
C         0.70134180121194   -0.13720603544195    0.04671528682200
C        -0.69913033898980   -0.13457770022205   -0.04737745952625
C        -1.87309391213318    0.13683936818531    0.08551918479821
4
 energy: -8.195401120097 gnorm: 0.022600724967 xtb: 6.2.2 (9d81278992624c895f80dd42a50cac0aa55982e2)
C         1.87096094713227    0.10078733464940   -0.08069774351296
C         0.70023836483037   -0.10383643374819    0.03569221497032
C        -0.69632623212521   -0.10055909872959   -0.03601755424080
C        -1.87487307983744    0.10360819782837    0.08102208278344
4
 energy: -8.196708049408 gnorm: 0.023582214747 xtb: 6.2.2 (9d81278992624c895f80dd42a50cac0aa55982e2)
C         1.88165895139065    0.05425144142354   -0.08152439414652
C         0.69250579117717   -0.05438114152020    0.03299342000600
C        -0.69174714025443   -0.05732840015846   -0.03495940660834
C        -1.88241760231338    0.05745810025510    0.08348938074885
4
 energy: -8.197423784960 gnorm: 0.020739383114 xtb: 6.2.2 (9d81278992624c895f80dd42a50cac0aa55982e2)
C         1.87918796123314    0.02597479624743   -0.08569856527755
C         0.68532862521624   -0.02188998851107    0.04310394367538
C        -0.68930171185730   -0.03365134587863   -0.04769085664566
C        -1.87521487459208    0.02956653814225    0.09028447824783
4
 energy: -8.198408397202 gnorm: 0.020084809172 xtb: 6.2.2 (9d81278992624c895f80dd42a50cac0aa55982e2)
C         1.87208443349403   -0.00724352336901   -0.10003224983084
C         0.68081432856095    0.01087814887102    0.07505439758099
C        -0.68358198781827   -0.00078333147010   -0.07958554914982
C        -1.86931677423671   -0.00285129403193    0.10456240139966
4
 energy: -8.193140383029 gnorm: 0.090141298741 xtb: 6.2.2 (9d81278992624c895f80dd42a50cac0aa55982e2)
C         1.81822190178286   -0.10270892109358   -0.17342189859499
C         0.65911773314216    0.10541271349252    0.24575492943951
C        -0.65897718173188    0.09349429669263   -0.25049238255177
C        -1.81836245319314   -0.09619808909159    0.17815835170724
4
 energy: -8.198500545330 gnorm: 0.019464953418 xtb: 6.2.2 (9d81278992624c895f80dd42a50cac0aa55982e2)
C         1.78745787432271   -0.07155994956098   -0.16984235809336
C         0.64597129337554    0.07414739398371    0.23784208396226
C        -0.64604219436089    0.06260452254115   -0.24103099342242
C        -1.78738697333735   -0.06519196696390    0.17303026755351
4
 energy: -8.199500928613 gnorm: 0.012399879211 xtb: 6.2.2 (9d81278992624c895f80dd42a50cac0aa55982e2)
C         1.79372010840280   -0.04259516178884   -0.16799961308533
C         0.64524643730290    0.04504326146492    0.22959573983811
C        -0.64530636955189    0.03390369803893   -0.23140281431248
C        -1.79366017615380   -0.03635179771503    0.16980568755970
4
 energy: -8.200206141544 gnorm: 0.019229705080 xtb: 6.2.2 (9d81278992624c895f80dd42a50cac0aa55982e2)
C         1.81082495837942   -0.00087623465218   -0.16382933078604
C         0.64948327123959    0.00307240144868    0.21332995835716
C        -0.64944548967075   -0.00730327577599   -0.21313496719839
C        -1.81086273994826    0.00510710897946    0.16363333962726
4
 energy: -8.200453340874 gnorm: 0.005763937702 xtb: 6.2.2 (9d81278992624c895f80dd42a50cac0aa55982e2)
C         1.81297896292508    0.00372428232426   -0.15982130024339
C         0.65351484661792   -0.00166785050395    0.20302019602235
C        -0.65346879805520   -0.01157337827990   -0.20260654288648
C        -1.81302501148780    0.00951694645956    0.15940664710751
4
 energy: -8.200557046344 gnorm: 0.003201435929 xtb: 6.2.2 (9d81278992624c895f80dd42a50cac0aa55982e2)
C         1.82001240505206    0.00867920737905   -0.15576893159744
C         0.65905126796226   -0.00678251047401    0.19185673542551
C        -0.65901772359458   -0.01617039573680   -0.19122081361670
C        -1.82004594941974    0.01427369883173    0.15513200978863
4
 energy: -8.200588671225 gnorm: 0.004345484784 xtb: 6.2.2 (9d81278992624c895f80dd42a50cac0aa55982e2)
C         1.82361254244355    0.00642206865736   -0.15381516443363
C         0.66149970555222   -0.00460047047843    0.18652463822805
C        -0.66146241280714   -0.01374776089296   -0.18600010499743
C        -1.82364983518862    0.01192616271400    0.15328963120300
4
 energy: -8.200612047515 gnorm: 0.002906643579 xtb: 6.2.2 (9d81278992624c895f80dd42a50cac0aa55982e2)
C         1.82716560313950    0.00122905942421   -0.15209239351466
C         0.66308981645885    0.00051739008778    0.18166300683739
C        -0.66306781831605   -0.00840153553582   -0.18140624638938
C        -1.82718760128230    0.00665508602380    0.15183463306664
4
 energy: -8.200617487376 gnorm: 0.000993396419 xtb: 6.2.2 (9d81278992624c895f80dd42a50cac0aa55982e2)
C         1.82769058792202   -0.00236143977038   -0.15179051599881
C         0.66282949720283    0.00409119003453    0.18075371448057
C        -0.66281103638353   -0.00478242542769   -0.18067938705186
C        -1.82770904874132    0.00305267516352    0.15171518857008
4
 energy: -8.200617970601 gnorm: 0.000300277081 xtb: 6.2.2 (9d81278992624c895f80dd42a50cac0aa55982e2)
C         1.82721902487546   -0.00306235286841   -0.15200411265980
C         0.66218758068412    0.00479452643117    0.18127387264801
C        -0.66217911819516   -0.00409244715108   -0.18124899113044
C        -1.82722748736442    0.00236027358830    0.15197823114222
