[Molden Format]
[Title]
[Atoms] AU
C      1     6  0.34529421733070E+01 -0.58055885834088E-02 -0.28725815903627E+00
C      2     6  0.12513542976921E+01  0.90543868122920E-02  0.34255355721047E+00
C      3     6 -0.12513382987962E+01 -0.77276493799429E-02 -0.34250654033248E+00
C      4     6 -0.34529581722094E+01  0.44788511477125E-02  0.28720925243231E+00
[GTO]
           1 0
 s           4   1.0000000000000000     
   51.049363095579913      -0.16312063210127389     
   8.7911227406887544      -0.19911024581000730     
  0.70640422258929825       0.31882047753655751     
  0.26922813413411617       0.12706504184240380     
 p           4   1.0000000000000000     
   5.8263656140800002       0.73716451545209605     
   1.5106896018720002       0.68216371614850257     
  0.53256483288000001       0.35783053929253711     
  0.21202323690600003        5.3983030275847881E-002

           2 0
 s           4   1.0000000000000000     
   51.049363095579913      -0.16312063210127389     
   8.7911227406887544      -0.19911024581000730     
  0.70640422258929825       0.31882047753655751     
  0.26922813413411617       0.12706504184240380     
 p           4   1.0000000000000000     
   5.8263656140800002       0.73716451545209605     
   1.5106896018720002       0.68216371614850257     
  0.53256483288000001       0.35783053929253711     
  0.21202323690600003        5.3983030275847881E-002

           3 0
 s           4   1.0000000000000000     
   51.049363095579913      -0.16312063210127389     
   8.7911227406887544      -0.19911024581000730     
  0.70640422258929825       0.31882047753655751     
  0.26922813413411617       0.12706504184240380     
 p           4   1.0000000000000000     
   5.8263656140800002       0.73716451545209605     
   1.5106896018720002       0.68216371614850257     
  0.53256483288000001       0.35783053929253711     
  0.21202323690600003        5.3983030275847881E-002

           4 0
 s           4   1.0000000000000000     
   51.049363095579913      -0.16312063210127389     
   8.7911227406887544      -0.19911024581000730     
  0.70640422258929825       0.31882047753655751     
  0.26922813413411617       0.12706504184240380     
 p           4   1.0000000000000000     
   5.8263656140800002       0.73716451545209605     
   1.5106896018720002       0.68216371614850257     
  0.53256483288000001       0.35783053929253711     
  0.21202323690600003        5.3983030275847881E-002

[MO]
Sym=     1a
Ene=  -0.67610789353834999     
Spin= Alpha
Occup=     2.00000000
           1 -0.27687320662607146     
           2  0.14095145320057370     
           3  -5.1375410455147810E-004
           4  -2.1969608746386583E-002
           5 -0.44054701786608297     
           6   1.8528705263978016E-002
           7   1.5652191016382177E-003
           8   6.4223512858142887E-002
           9 -0.44050912053819463     
          10  -1.8554844927252363E-002
          11  -1.3992425075987503E-003
          12  -6.4210901550749211E-002
          13 -0.27681967341759611     
          14 -0.14093339205891983     
          15   3.7630121635731954E-004
          16   2.1960301744917584E-002
Sym=     2a
Ene=  -0.66351186448557509     
Spin= Alpha
Occup=     2.00000000
           1 -0.37665779181784931     
           2  0.13118737085057486     
           3  -7.7006273088609987E-004
           4  -3.1980340156070097E-002
           5 -0.29083675164495104     
           6 -0.21155585105858946     
           7   1.1373623367334951E-003
           8   5.0228411422883770E-002
           9  0.29090063343125483     
          10 -0.21155366070028331     
          11   9.9123521913060757E-004
          12   5.0232186116759260E-002
          13  0.37669242768751676     
          14  0.13120968986686421     
          15  -5.8797426141817379E-004
          16  -3.1976821542416128E-002
Sym=     3a
Ene=  -0.59864315932413403     
Spin= Alpha
Occup=     2.00000000
           1  0.36861025697891031     
           2   1.9265295992144164E-002
           3   9.6989716274336832E-004
           4   4.0620988443263013E-002
           5 -0.17970286634100591     
           6  0.39804415480465616     
           7   6.5041765546944318E-004
           8   2.7133252153225467E-002
           9 -0.17969819464948875     
          10 -0.39804257741853311     
          11  -9.3064865169180660E-004
          12  -2.7143289168347746E-002
          13  0.36860698667788616     
          14  -1.9257860428595227E-002
          15  -9.1154265445009264E-004
          16  -4.0619227139710376E-002
Sym=     4a
Ene=  -0.51426325552997654     
Spin= Alpha
Occup=     2.00000000
           1  0.10781093898916594     
           2   3.0453606096870001E-003
           3  -7.2893126814176064E-003
           4 -0.31693968387508586     
           5 -0.18836618250558465     
           6  -4.0140038566671265E-003
           7  -1.0848912505056560E-002
           8 -0.47215478556669488     
           9  0.18834536217258854     
          10  -3.9888860990113595E-003
          11  -1.0837929030700468E-002
          12 -0.47214510182983643     
          13 -0.10780587905310432     
          14   3.0602515952598973E-003
          15  -7.2631953322906942E-003
          16 -0.31692349445284951     
Sym=     5a
Ene=  -0.51207665241228517     
Spin= Alpha
Occup=     2.00000000
           1   4.5268378589046383E-006
           2  -2.0832786676542540E-006
           3 -0.32872911661283444     
           4   7.5356831391962826E-003
           5  -1.5195908593227544E-004
           6   1.5659972310318099E-005
           7 -0.49876129833754645     
           8   1.1448028076467377E-002
           9  -1.5267537523981116E-004
          10   4.0408261315400451E-004
          11 -0.49875245233097343     
          12   1.1457204137545340E-002
          13   4.9035411768176316E-006
          14   2.7883177551340339E-004
          15 -0.32871551423593481     
          16   7.5607642529948076E-003
Sym=     6a
Ene=  -0.45656075648789385     
Spin= Alpha
Occup=     2.00000000
           1 -0.24293007609125117     
           2 -0.12181099365057182     
           3   1.0862567863462652E-002
           4  0.47327348246057832     
           5  0.12412737116095733     
           6  0.11116645303300685     
           7   7.6271454609487654E-003
           8  0.33374402275929110     
           9  0.12398076119287713     
          10 -0.11112856555214541     
          11  -7.7958465746405230E-003
          12 -0.33386119308721923     
          13 -0.24255544120281397     
          14  0.12146240575439711     
          15  -1.0769993269715070E-002
          16 -0.47328701301589282     
Sym=     7a
Ene=  -0.45282141022145744     
Spin= Alpha
Occup=     2.00000000
           1  0.46326137251598620     
           2  0.47886610267813862     
           3  -1.2452090485133274E-003
           4   1.2447263196268474E-002
           5 -0.18233914719402522     
           6  -2.9186644203295711E-002
           7   1.5526120789883578E-003
           8  0.11827582559681001     
           9  0.18244514311753859     
          10  -2.9270697483262231E-002
          11   3.8468094790379643E-003
          12  0.11795254883382955     
          13 -0.46345073413153498     
          14  0.47894499641862875     
          15   2.2096987716172336E-003
          16   1.2005194453693920E-002
Sym=     8a
Ene=  -0.44601751426442970     
Spin= Alpha
Occup=     2.00000000
           1  -1.2937608385649047E-003
           2  -1.5212534356659482E-003
           3 -0.52781200100335313     
           4   1.2129640927247125E-002
           5   4.5242107685897312E-004
           6   1.2745343471500534E-004
           7 -0.38477812617636326     
           8   8.5048204598813116E-003
           9  -4.5229257803224297E-004
          10  -1.9631335623027023E-004
          11  0.38477742412773897     
          12  -9.1645531787101775E-003
          13   1.2936250914319452E-003
          14  -1.9653953085262289E-003
          15  0.52781263799478872     
          16  -1.2108068823311934E-002
Sym=     9a
Ene=  -0.40730433964675189     
Spin= Alpha
Occup=     0.00000000
           1 -0.32047933444957633     
           2 -0.52084343931791466     
           3  -3.8343117523312593E-003
           4 -0.17195042267002361     
           5  -6.7970629046716566E-002
           6  0.23428985224249899     
           7  -4.1839913426448107E-003
           8 -0.18030176044037405     
           9  -6.7955400408844721E-002
          10 -0.23429166525073214     
          11   3.8984420959075339E-003
          12  0.18029816139130966     
          13 -0.32049646589838759     
          14  0.52084291825003182     
          15   4.5007289249137817E-003
          16  0.17197876449937258     
Sym=    10a
Ene=  -0.28835509273157922     
Spin= Alpha
Occup=     0.00000000
           1   5.6127951574346351E-002
           2  -6.9698343596452800E-002
           3  -1.4629793359179225E-002
           4 -0.63226799052553184     
           5  0.21314210697895572     
           6 -0.10695022159436159     
           7   8.9294852438549926E-003
           8  0.38540083942815340     
           9 -0.21312908519645374     
          10 -0.10697891651408739     
          11   8.6776722442265322E-003
          12  0.38536336285526079     
          13  -5.6125587612828258E-002
          14  -6.9639250952787835E-002
          15  -1.4462625570254300E-002
          16 -0.63224205432994318     
Sym=    11a
Ene=  -0.26682978310615785     
Spin= Alpha
Occup=     0.00000000
           1   3.2995649274905770E-005
           2  -1.8058167801210905E-004
           3 -0.65400387435652907     
           4   1.4954337564571070E-002
           5   6.1520567227129193E-005
           6   4.4858189681444261E-005
           7  0.44562579090696702     
           8  -1.0184323139398273E-002
           9   6.1579961711526510E-005
          10  -4.1976815082010467E-004
          11  0.44559672042233883     
          12  -1.0278594884401472E-002
          13   3.3078335115457828E-005
          14   7.3091083409010220E-004
          15 -0.65398779477468905     
          16   1.5077848233967631E-002
Sym=    12a
Ene=  -0.15556209844651242     
Spin= Alpha
Occup=     0.00000000
           1   1.0713195885745385E-003
           2  -5.0132983324890121E-002
           3  -1.1876563129904150E-002
           4 -0.52049425540097771     
           5  0.15904401798179110     
           6   6.0563119526072018E-002
           7   1.5456468819338966E-002
           8  0.67663530559632923     
           9  0.15902467825984251     
          10  -6.0540432684584429E-002
          11  -1.5667003583456150E-002
          12 -0.67667474906639380     
          13   1.0759833159027551E-003
          14   5.0129658720752715E-002
          15   1.2068172785805830E-002
          16  0.52054082533676771     
Sym=    13a
Ene=  -0.12205376436857213     
Spin= Alpha
Occup=     0.00000000
           1   3.8034447281344831E-005
           2  -2.2756487881511533E-004
           3  0.51451546143052884     
           4  -1.1974739617689779E-002
           5  -3.9305181458292862E-004
           6   2.2031330519525790E-004
           7 -0.72756322054710099     
           8   1.6929283265184846E-002
           9   3.9313858349992244E-004
          10  -3.9191619657887017E-004
          11  0.72758927462007905     
          12  -1.6481578448468294E-002
          13  -3.8006808502570206E-005
          14   2.0540491703750972E-004
          15 -0.51454770520579518     
          16   1.1652953739163197E-002
Sym=    14a
Ene=   0.25708195960560842     
Spin= Alpha
Occup=     0.00000000
           1 -0.20300523853607547     
           2  0.43980213558822090     
           3   1.4341480791305896E-003
           4   5.3600984156893572E-002
           5  0.91450206912673004     
           6 -0.42365847394919065     
           7  -8.3377705247884796E-003
           8 -0.33504224428225393     
           9 -0.91452735064929869     
          10 -0.42363386625580546     
          11  -7.4037788708364990E-003
          12 -0.33503257656961083     
          13  0.20301260361299767     
          14  0.43981040690129003     
          15   1.3975058391611642E-003
          16   5.3608967930126164E-002
Sym=    15a
Ene=    1.0143436828616217     
Spin= Alpha
Occup=     0.00000000
           1  0.68934054329358552     
           2 -0.71644265490902237     
           3   4.4357984222482983E-003
           4  0.18622056492833380     
           5 -0.75847064037760681     
           6 -0.70446522343113860     
           7   7.0100171138238613E-003
           8  0.30317812826969204     
           9 -0.75838392497421714     
          10  0.70397684012185158     
          11  -6.3191878910058156E-003
          12 -0.30315630548653189     
          13  0.68903075038727934     
          14  0.71616995690910679     
          15  -3.5094701356664631E-003
          16 -0.18606828211577067     
Sym=    16a
Ene=    1.1273368641464756     
Spin= Alpha
Occup=     0.00000000
           1 -0.68571718679800009     
           2  0.61852868281067286     
           3  -6.1766665050165181E-003
           4 -0.26205970862100719     
           5  0.14982294204196600     
           6   1.1361187961021724     
           7   4.9767583446917024E-004
           8   2.1517482995898781E-002
           9 -0.15018586417339957     
          10   1.1364535497389610     
          11   1.4442271613759770E-003
          12   2.1408941094288984E-002
          13  0.68604793598764369     
          14  0.61888274132214616     
          15  -5.3377875587877896E-003
          16 -0.26212107947014790     
