[Molden Format]
[Title]
[Atoms] AU
N      1     7 -0.20230348522266E+01  0.14943150294652E+01 -0.90628408688419E-01
C      2     6  0.47289213783128E+00  0.14621989170038E+01  0.34530873875973E-01
C      3     6  0.70303957147438E+00 -0.18245641947217E+01 -0.60956423767356E+00
C      4     6  0.24721141867712E+01 -0.16156609662240E+00  0.38904212087779E+00
C      5     6 -0.16250110438602E+01 -0.97038554485087E+00  0.27661965161151E+00
[GTO]
           1 0
 s           4   1.0000000000000000     
   63.594024466941008      -0.19234388414721629     
   10.951417231523665      -0.23478107924953728     
  0.87999310257376984       0.37593753901700888     
  0.33538715296521110       0.14982889271862770     
 p           4   1.0000000000000000     
   7.2965040481495080       0.97658666315667420     
   1.8918745450712575       0.90372226730345739     
  0.66694432110824120       0.47404958461536373     
  0.26552202674130870        7.1516067715011844E-002

           2 0
 s           4   1.0000000000000000     
   51.049363095579913      -0.16312063210127389     
   8.7911227406887544      -0.19911024581000730     
  0.70640422258929825       0.31882047753655751     
  0.26922813413411617       0.12706504184240380     
 p           4   1.0000000000000000     
   5.8263656140800002       0.73716451545209605     
   1.5106896018720002       0.68216371614850257     
  0.53256483288000001       0.35783053929253711     
  0.21202323690600003        5.3983030275847881E-002

           3 0
 s           4   1.0000000000000000     
   51.049363095579913      -0.16312063210127389     
   8.7911227406887544      -0.19911024581000730     
  0.70640422258929825       0.31882047753655751     
  0.26922813413411617       0.12706504184240380     
 p           4   1.0000000000000000     
   5.8263656140800002       0.73716451545209605     
   1.5106896018720002       0.68216371614850257     
  0.53256483288000001       0.35783053929253711     
  0.21202323690600003        5.3983030275847881E-002

           4 0
 s           4   1.0000000000000000     
   51.049363095579913      -0.16312063210127389     
   8.7911227406887544      -0.19911024581000730     
  0.70640422258929825       0.31882047753655751     
  0.26922813413411617       0.12706504184240380     
 p           4   1.0000000000000000     
   5.8263656140800002       0.73716451545209605     
   1.5106896018720002       0.68216371614850257     
  0.53256483288000001       0.35783053929253711     
  0.21202323690600003        5.3983030275847881E-002

           5 0
 s           4   1.0000000000000000     
   51.049363095579913      -0.16312063210127389     
   8.7911227406887544      -0.19911024581000730     
  0.70640422258929825       0.31882047753655751     
  0.26922813413411617       0.12706504184240380     
 p           4   1.0000000000000000     
   5.8263656140800002       0.73716451545209605     
   1.5106896018720002       0.68216371614850257     
  0.53256483288000001       0.35783053929253711     
  0.21202323690600003        5.3983030275847881E-002

[MO]
Sym=     1a
Ene=  -0.75873678757172458     
Spin= Alpha
Occup=     2.00000000
           1  0.28113744132157398     
           2  0.15594761985495917     
           3 -0.13062174801444346     
           4   1.7937942664617988E-002
           5  0.32398537401362149     
           6  -9.6400011408872652E-002
           7 -0.12593277979983827     
           8  -6.6125791291857152E-004
           9  0.21973183381157774     
          10  -4.5746659549050259E-002
          11  0.10789186943086067     
          12   4.0360563913928373E-002
          13  0.16201884836737435     
          14  -9.7073268645102018E-002
          15   4.3791593855040016E-003
          16  -2.0071975146192730E-002
          17  0.30064499185329802     
          18  0.10022836813979008     
          19  0.11595037992746444     
          20  -2.9644079949513121E-002
Sym=     2a
Ene=  -0.69565086181617786     
Spin= Alpha
Occup=     2.00000000
           1 -0.38964758246123293     
           2  -7.2189702604210843E-002
           3   7.4141031104117058E-002
           4  -3.0091144245692768E-002
           5   3.7936890492612188E-002
           6  0.27911301558600510     
           7 -0.13210148005154776     
           8  -1.5111089316346621E-003
           9  0.30287572758273151     
          10   8.9602284155454792E-002
          11   8.1988589179457463E-002
          12   5.3958128170958602E-002
          13  0.36536393309099385     
          14 -0.10331961011268614     
          15  -2.3138353082200590E-002
          16  -4.8026220424595541E-002
          17  -9.8157130184198263E-002
          18  0.13166328237631991     
          19 -0.16649085217738155     
          20   1.9048984903585585E-004
Sym=     3a
Ene=  -0.64895622703956668     
Spin= Alpha
Occup=     2.00000000
           1  0.11713901499972078     
           2  0.18581595960883870     
           3  0.22231663875380023     
           4   2.9995637817100618E-002
           5  0.43412282853887463     
           6   4.6435507057815059E-002
           7  0.13864058459293696     
           8   2.8158530547690568E-002
           9 -0.27413156765800900     
          10  0.20490315829539021     
          11   7.0927270723415009E-002
          12  -2.8318250372807833E-002
          13  0.19724230718516364     
          14  -2.3662294983357056E-002
          15  0.14751642944546250     
          16  -6.9681333687213447E-003
          17 -0.42674318558362490     
          18  -1.9361746816819247E-002
          19  0.13440733484675804     
          20   7.6617954899991736E-002
Sym=     4a
Ene=  -0.60184281149231300     
Spin= Alpha
Occup=     2.00000000
           1  -6.5852847880884496E-002
           2  0.29179988131123752     
           3  0.29984699972232753     
           4 -0.23716996623590564     
           5  0.12562101931288361     
           6 -0.20255703514944176     
           7  0.14567605920026311     
           8 -0.21510605541174463     
           9  0.24689022195821722     
          10 -0.14952788286190058     
          11  -6.0390183512400296E-002
          12  -8.3328024924573710E-002
          13 -0.26049441414338614     
          14  -2.1748627603626450E-002
          15  -6.4710223254138916E-002
          16  -7.5048181778598511E-002
          17 -0.15514877337031904     
          18  0.25249170347703731     
          19 -0.22041122445744371     
          20 -0.17833993400281592     
Sym=     5a
Ene=  -0.58504146397246692     
Spin= Alpha
Occup=     2.00000000
           1 -0.21715588587371434     
           2  0.16805376071602704     
           3  0.12810094829987018     
           4  0.36385941324305687     
           5  0.11510132921294908     
           6  -5.6620519631451892E-002
           7   6.5584307424529989E-002
           8  0.36140987774425903     
           9  -5.9792208447802121E-002
          10 -0.19468247281978723     
          11 -0.10340559329685561     
          12  0.21742380466244429     
          13 -0.12501008461359808     
          14  -7.3460968686193978E-002
          15   7.1915673549687725E-002
          16  0.21659322795707581     
          17  0.12941173187267799     
          18  0.18570755339589134     
          19 -0.15826056602168151     
          20  0.28235178269176786     
Sym=     6a
Ene=  -0.57252671558379720     
Spin= Alpha
Occup=     2.00000000
           1  0.24878833967090788     
           2  -1.1845842593796979E-002
           3  0.17589091699282255     
           4  0.17364837732257285     
           5 -0.24050712995656359     
           6 -0.26480873340384681     
           7   6.1790773972407072E-003
           8   9.7726527366114604E-002
           9  0.28648937916641842     
          10  0.33078672291397559     
          11 -0.10285787871173149     
          12  0.11375010813022526     
          13  0.11617198490654444     
          14   3.1558401630565232E-002
          15 -0.42343030212595228     
          16  -6.8848526378935898E-003
          17 -0.17648397574723954     
          18   4.9231612583881305E-002
          19   6.9368471413616781E-002
          20  0.16229571458979489     
Sym=     7a
Ene=  -0.51314603608134113     
Spin= Alpha
Occup=     2.00000000
           1 -0.44522189965248687     
           2  0.30176235057004719     
           3 -0.29075473722701345     
           4   4.0159070043604514E-002
           5 -0.13924132941968650     
           6 -0.18385751178805107     
           7 -0.32730242160072781     
           8  -5.2092704650197684E-002
           9 -0.20509646181669275     
          10   8.5498766373869370E-002
          11  0.24576779777692936     
          12  -3.2235865273718370E-002
          13 -0.23916693702751754     
          14 -0.11201760677379952     
          15 -0.11047315419960657     
          16  -5.6139924034126640E-002
          17 -0.22986855201732437     
          18  0.19761373068506993     
          19  0.28925448793775294     
          20   5.3441580175866941E-002
Sym=     8a
Ene=  -0.47512509456542362     
Spin= Alpha
Occup=     2.00000000
           1  0.12091196955447098     
           2  -2.1790684887904452E-002
           3   5.0594640131774685E-002
           4 -0.52470623202395938     
           5 -0.13075036544304336     
           6  -7.3738189184420183E-002
           7 -0.12382364968957313     
           8   9.7490679428756839E-003
           9 -0.30164350176619897     
          10  -8.5524583861890130E-002
          11   8.3790578116487019E-002
          12  0.45564943558378246     
          13  0.23169587263100369     
          14   5.0285568737053053E-002
          15  -8.5274886491705087E-002
          16  0.44079735103601647     
          17  -7.4285234719137769E-002
          18  0.13538402252397444     
          19  -1.2015739080671542E-002
          20 -0.10555139675532840     
Sym=     9a
Ene=  -0.45787996781407125     
Spin= Alpha
Occup=     2.00000000
           1  0.35782655641875999     
           2 -0.44131212312620832     
           3  0.28110861927834124     
           4   8.6818094107904809E-002
           5 -0.12032882517803059     
           6   8.7827104509072246E-002
           7 -0.25226643029899459     
           8  0.14946351145307610     
           9   4.6964406294803702E-002
          10 -0.14855248917056099     
          11  0.17723047551226334     
          12  -8.4112798440284645E-002
          13 -0.31882565587549688     
          14 -0.38813815764503790     
          15  0.12976265784201094     
          16   4.7984716513532703E-003
          17 -0.28844222986978174     
          18  0.23631501466876115     
          19  0.10745490452632292     
          20  -8.3127177124885931E-002
Sym=    10a
Ene=  -0.43867742862040093     
Spin= Alpha
Occup=     1.99999985
           1   5.1119020151230529E-002
           2  -8.8331771824551583E-002
           3  0.17039328162181250     
           4  -5.7720669180734104E-002
           5   4.6917272555484606E-002
           6   3.2959754428769257E-002
           7   1.6092364336580081E-002
           8 -0.43811656335674853     
           9 -0.23855516591066336     
          10   6.3952480587019869E-002
          11  0.24488550366176301     
          12  0.34100313266897053     
          13 -0.19566799430077975     
          14 -0.19996742728577835     
          15  -7.2390976720263706E-002
          16 -0.30296832034711169     
          17  0.25633056376836871     
          18 -0.11500837346919852     
          19 -0.19977274447003843     
          20  0.47451490036782401     
Sym=    11a
Ene=  -0.40886343462712954     
Spin= Alpha
Occup=     1.00000015
           1  0.10652385031660426     
           2   3.7387350145357467E-003
           3  0.26496830295135843     
           4  0.28650787207805012     
           5 -0.25801999508172274     
           6 -0.13497397990634841     
           7 -0.18207137944211763     
           8 -0.11621404643666866     
           9 -0.18442449136415812     
          10 -0.25702711631968450     
          11  0.34184593330369473     
          12 -0.14765540285989007     
          13  0.36768986646442375     
          14  0.54800604404625897     
          15  0.10484292479991572     
          16 -0.15607557605870492     
          17   4.7052563684260237E-002
          18  0.24389198667009881     
          19  -7.4651529806257999E-002
          20   4.5167288562187401E-002
Sym=    12a
Ene=  -0.34847166946282770     
Spin= Alpha
Occup=     0.00000000
           1  0.11281542353960496     
           2 -0.11085406948088310     
           3 -0.21229694615970515     
           4  -9.4968718971908395E-002
           5  -6.2854514414403557E-003
           6  0.15676330105086891     
           7  -4.3361003863834950E-002
           8 -0.30147328696019204     
           9  0.18797788943446148     
          10  -6.9789889561431617E-002
          11 -0.52592556320106854     
          12  0.16963405136170501     
          13  -2.7810339903366343E-002
          14  0.22244623222079485     
          15  0.27922771186781870     
          16  -9.9013702376043150E-002
          17 -0.19650632356743042     
          18  0.45126144683975405     
          19  0.32620603636826839     
          20  0.38269812229481004     
Sym=    13a
Ene=  -0.30057346573919835     
Spin= Alpha
Occup=     0.00000000
           1   6.9837248151653625E-002
           2  0.18677412462184512     
           3  0.18435756357045952     
           4 -0.42757071929366841     
           5 -0.11608523388123340     
           6 -0.18294105696457549     
           7 -0.52788151404785255     
           8  0.18735488422158905     
           9   5.4621079935117958E-002
          10  0.12273746974587565     
          11 -0.18898335959937010     
          12 -0.45695931839705400     
          13   6.1177360756989187E-002
          14  -5.8203829020763757E-002
          15  0.24567635095678958     
          16   8.9942500189201857E-002
          17  0.11415798670023043     
          18 -0.21104503393201718     
          19 -0.20377983894042534     
          20  0.47595700689768805     
Sym=    14a
Ene=  -0.25593738440505681     
Spin= Alpha
Occup=     0.00000000
           1  -1.1368191527084730E-002
           2   2.5637534466838075E-002
           3   7.2439424398945865E-002
           4  0.43837669491353887     
           5   4.6078346726500907E-002
           6   1.3983431227580851E-002
           7 -0.18960132324699427     
           8 -0.72426657060455402     
           9   6.9228752681751160E-002
          10  -5.0480440463930923E-002
          11 -0.10482058257605342     
          12 -0.18432508631695244     
          13   8.0685860678305618E-002
          14 -0.16391925915269659     
          15  -4.5020377899842985E-002
          16  0.68726362656316087     
          17  -7.4636786323108745E-002
          18 -0.18752725172221213     
          19  -1.5797005631690800E-002
          20   2.0839588872133964E-003
Sym=    15a
Ene=  -0.23265853430760672     
Spin= Alpha
Occup=     0.00000000
           1  -8.9355554638871418E-002
           2 -0.21441505561644020     
           3  -9.9860968849600454E-002
           4 -0.27322196182331066     
           5   7.9616171734211219E-002
           6  0.11924467957959335     
           7  0.52387343780478168     
           8   3.5706538393207421E-002
           9  0.14455060215961360     
          10  -5.9313642628038371E-002
          11  0.43680185235588043     
          12 -0.47934433568007223     
          13  -4.0645412005015535E-002
          14   6.1464731484381745E-002
          15 -0.25582421453111487     
          16  0.35624334606302083     
          17  0.12987809127890032     
          18  0.27111195441793395     
          19  0.18673478657349132     
          20  0.46782265057536920     
Sym=    16a
Ene=    9.6406091677015693E-002
Spin= Alpha
Occup=     0.00000000
           1  0.14132953450967289     
           2  0.53394987912018554     
           3  0.18215398604543628     
           4   1.2744723558236439E-002
           5 -0.91494911036473159     
           6  0.16933112968071551     
           7  0.43900300127684116     
           8  -7.0008390011803534E-002
           9  0.34275148814231493     
          10  0.25428046863862186     
          11  0.26305362026368168     
          12  0.16413924376765940     
          13   6.0956006998197046E-002
          14 -0.25784496904329007     
          15  0.62874522991066739     
          16  0.11221229850975484     
          17  0.22693621598994940     
          18  -2.2900944258357717E-002
          19  0.28402114920220822     
          20  -5.7629009536389476E-002
Sym=    17a
Ene=   0.23847201902733442     
Spin= Alpha
Occup=     0.00000000
           1 -0.44126519024339589     
           2  -6.8708303318846366E-003
           3  0.81712728361980458     
           4  -8.2213885455338725E-002
           5  0.14336784311411041     
           6  0.34863643651845466     
           7 -0.20273729034917534     
           8   2.6262090155405905E-003
           9 -0.24503682663317569     
          10  0.15805797320669843     
          11 -0.30937524825487994     
          12  -6.7191786441412812E-002
          13 -0.16673207395012765     
          14  0.12787947662033600     
          15 -0.27720631870161438     
          16  -2.1517147804153507E-003
          17  0.77425893008467706     
          18   9.8573532737784422E-002
          19  0.74734169430772801     
          20 -0.22488739452023934     
Sym=    18a
Ene=   0.28096162642743205     
Spin= Alpha
Occup=     0.00000000
           1 -0.26406703661294961     
           2 -0.47072630309579977     
           3  -2.6490620841336240E-002
           4   5.2457672212624776E-002
           5  0.32529457405553996     
           6 -0.46210641358212023     
           7  -6.5450537176051260E-002
           8  -6.1447235871495517E-002
           9  0.18282743233050078     
          10  0.90405314852322427     
          11  0.23952442955511369     
          12  0.13601850061610088     
          13 -0.44596050708851659     
          14  0.39300339618970082     
          15  0.57745383908230408     
          16  0.28808693745334824     
          17  0.29101652264170841     
          18  0.28539605681313135     
          19 -0.25408643919136725     
          20 -0.21775301497683339     
Sym=    19a
Ene=   0.32546948472437970     
Spin= Alpha
Occup=     0.00000000
           1 -0.51765411782522797     
           2 -0.24238900371662964     
           3  0.27416285629883047     
           4 -0.12514712311874551     
           5  0.21588071290123714     
           6 -0.42993195062683176     
           7  -3.0173379487270079E-002
           8   4.2850567124355539E-002
           9  0.73501578176271121     
          10 -0.50765211863310911     
          11  0.28122603736438156     
          12  0.38044795774906776     
          13  -5.4335274892418413E-002
          14  0.24223196063286062     
          15  0.22018731006863446     
          16  -9.9350445380087665E-003
          17 -0.34740813606277260     
          18 -0.76043553537170094     
          19  0.53392509392045673     
          20  0.18371192581610435     
Sym=    20a
Ene=   0.57740768345979343     
Spin= Alpha
Occup=     0.00000000
           1  0.51212850543983413     
           2  0.49580524530813563     
           3  -3.6409558589587970E-002
           4   1.7006351012796357E-002
           5  0.17426844170844166     
           6  0.92776527523009455     
           7 -0.42230871652707569     
           8  0.14176624698001916     
           9  0.41721810927480557     
          10  0.10525960482169233     
          11  0.36766444404344617     
          12  0.20396709032533764     
          13 -0.82239948611580205     
          14  0.70626820450375782     
          15 -0.23566139008774259     
          16  0.22001812009824159     
          17 -0.22305718477372899     
          18 -0.21813213404775172     
          19 -0.16075183504928975     
          20   5.9219685938931961E-002
