$hessian                                                                        
        0.4730761385  -0.2024292484   0.0412394953  -0.3398206960   0.0014316615
       -0.0211222587  -0.0551130107   0.0059922244  -0.0173381256  -0.0522729423
        0.0601934545   0.0128345797  -0.0258694895   0.1348119081  -0.0156136907
       -0.2024292484   0.3641180882  -0.0391775263   0.1164952662  -0.0089183659
        0.0028167201   0.0738721943  -0.0380107443   0.0006369952  -0.0144991155
       -0.0093337774  -0.0107247329   0.0265609034  -0.3078552005   0.0464485440
        0.0412394953  -0.0391775263   0.0338022087  -0.0331077974  -0.0172858379
       -0.0190078901   0.0226145185   0.0016206794   0.0187166497   0.0032966366
        0.0052115668  -0.0041596520  -0.0340428530   0.0496311180  -0.0293513163
       -0.3398206960   0.1164952662  -0.0331077974   0.5535944115  -0.0853308042
        0.0280403509   0.0218545282   0.0522510759   0.0143686364  -0.2078234329
        0.1039973335  -0.0384186946  -0.0278048107  -0.1874128714   0.0291175047
        0.0014316615  -0.0089183659  -0.0172858379  -0.0853308042   0.2430249905
       -0.0102332865  -0.0310496183  -0.0944739140  -0.0536255910   0.1858601922
       -0.0782619675   0.0507608961  -0.0709114312  -0.0613707431   0.0303838194
       -0.0211222587   0.0028167201  -0.0190078901   0.0280403509  -0.0102332865
        0.0332353087  -0.0165820785  -0.0125588122   0.0053334718  -0.0151607077
        0.0170557094  -0.0184879445   0.0248246940   0.0029196693  -0.0010729458
       -0.0551130107   0.0738721943   0.0226145185   0.0218545282  -0.0310496183
       -0.0165820785   0.3214258907   0.0221594890   0.0141872565  -0.1337551306
       -0.1031111745  -0.0669176658  -0.1544122776   0.0381291095   0.0466979693
        0.0059922244  -0.0380107443   0.0016206794   0.0522510759  -0.0944739140
       -0.0125588122   0.0221594890   0.2308856818   0.1112022973  -0.2055930426
       -0.0970893510  -0.0706575979   0.1251902534  -0.0013116725  -0.0296065666
       -0.0173381256   0.0006369952   0.0187166497   0.0143686364  -0.0536255910
        0.0053334718   0.0141872565   0.1112022973   0.1117465114  -0.0880085988
       -0.0578970889  -0.0691872249   0.0767908314  -0.0003166126  -0.0666094080
       -0.0522729423  -0.0144991155   0.0032966366  -0.2078234329   0.1858601922
       -0.0151607077  -0.1337551306  -0.2055930426  -0.0880085988   0.4565103871
       -0.0165864154   0.1165131175  -0.0626588812   0.0508183812  -0.0166404476
        0.0601934545  -0.0093337774   0.0052115668   0.1039973335  -0.0782619675
        0.0170557094  -0.1031111745  -0.0970893510  -0.0578970889  -0.0165864154
        0.2105136962   0.0349778698  -0.0444931981  -0.0258286003   0.0006519428
        0.0128345797  -0.0107247329  -0.0041596520  -0.0384186946   0.0507608961
       -0.0184879445  -0.0669176658  -0.0706575979  -0.0691872249   0.1165131175
        0.0349778698   0.0671663504  -0.0240113368  -0.0043564351   0.0246684711
       -0.0258694895   0.0265609034  -0.0340428530  -0.0278048107  -0.0709114312
        0.0248246940  -0.1544122776   0.1251902534   0.0767908314  -0.0626588812
       -0.0444931981  -0.0240113368   0.2707454590  -0.0363465274  -0.0435613356
        0.1348119081  -0.3078552005   0.0496311180  -0.1874128714  -0.0613707431
        0.0029196693   0.0381291095  -0.0013116725  -0.0003166126   0.0508183812
       -0.0258286003  -0.0043564351  -0.0363465274   0.3963662164  -0.0478777396
       -0.0156136907   0.0464485440  -0.0293513163   0.0291175047   0.0303838194
       -0.0010729458   0.0466979693  -0.0296065666  -0.0666094080  -0.0166404476
        0.0006519428   0.0246684711  -0.0435613356  -0.0478777396   0.0723651990
