5
 energy: -10.987846457935 gnorm: 0.209162402103 xtb: 6.2.2 (9d81278992624c895f80dd42a50cac0aa55982e2)
N        -0.97995500000000    0.78071800000000    0.18497600000000
C         0.35147000000000    0.72332800000000   -0.40402000000000
C         0.35571200000000   -0.78693200000000   -0.42212400000000
C         1.30424600000000   -0.04488700000000    0.49063000000000
C        -1.03147300000000   -0.67222800000000    0.15053800000000
5
 energy: -11.042018417972 gnorm: 0.142912704066 xtb: 6.2.2 (9d81278992624c895f80dd42a50cac0aa55982e2)
N        -1.05861979228417    0.77563075545472    0.10321222392993
C         0.31054454214533    0.71830235471162   -0.28763384478387
C         0.37294874645849   -0.80257996576812   -0.39399784877159
C         1.34235050433429   -0.09650415961277    0.41669790534250
C        -0.96722400065394   -0.59484998478546    0.16172156428304
5
 energy: -11.070437783717 gnorm: 0.123819491565 xtb: 6.2.2 (9d81278992624c895f80dd42a50cac0aa55982e2)
N        -1.08517970191374    0.76274476346257    0.07021251071255
C         0.22906402696623    0.68753966591802   -0.15853401154753
C         0.40756680370442   -0.87171014512005   -0.31686636833971
C         1.34471457791389   -0.10321953596784    0.30598993655404
C        -0.89616570667080   -0.47535574829270    0.09919793262065
5
 energy: -11.078170001020 gnorm: 0.062919662808 xtb: 6.2.2 (9d81278992624c895f80dd42a50cac0aa55982e2)
N        -1.13459706668753    0.79021302680748   -0.00152623359815
C         0.24726869951778    0.72039317880390   -0.09085963735073
C         0.39011984040931   -0.87598193083647   -0.33157833574956
C         1.36482176940850   -0.13434644334282    0.27839517062601
C        -0.86761324264806   -0.50027883143209    0.14556903607242
5
 energy: -11.082823250003 gnorm: 0.040612724604 xtb: 6.2.2 (9d81278992624c895f80dd42a50cac0aa55982e2)
N        -1.10409977529613    0.79129301415791    0.00726351001976
C         0.24944805254423    0.72882204074285   -0.08111494595450
C         0.37763130620262   -0.89929707631295   -0.31991018976895
C         1.35392195890913   -0.10755509591946    0.26690894254867
C        -0.87690154235985   -0.51326388266835    0.12685268315501
5
 energy: -11.085521400242 gnorm: 0.051392545749 xtb: 6.2.2 (9d81278992624c895f80dd42a50cac0aa55982e2)
N        -1.04536111880575    0.79859959037121   -0.02135940318012
C         0.25262343177917    0.76553406482025   -0.02412604117252
C         0.35446332100044   -0.95142905481202   -0.33116067827454
C         1.28242618643580   -0.07812073827656    0.23586192515414
C        -0.84415182040966   -0.53458486210288    0.14078419747304
5
 energy: -11.087522117378 gnorm: 0.020431456713 xtb: 6.2.2 (9d81278992624c895f80dd42a50cac0aa55982e2)
N        -1.07275893290263    0.79945579165856   -0.03375019195979
C         0.24481558497682    0.76596449245124    0.00384298538814
C         0.36396862645485   -0.96249439702948   -0.31160016608206
C         1.32431367348775   -0.08274718533991    0.21317656790493
C        -0.86033895201680   -0.52017970174041    0.12833080474879
5
 energy: -11.087896089847 gnorm: 0.009836485803 xtb: 6.2.2 (9d81278992624c895f80dd42a50cac0aa55982e2)
N        -1.07165611301429    0.79627374931581   -0.03710806732494
C         0.24828108059546    0.76813036478765    0.00223849811070
C         0.36806291628899   -0.95993401627499   -0.32139743354185
C         1.31272978792949   -0.08603572909373    0.21652220045446
C        -0.85741767179965   -0.51843536873473    0.13974480230163
5
 energy: -11.088031489578 gnorm: 0.003206646716 xtb: 6.2.2 (9d81278992624c895f80dd42a50cac0aa55982e2)
N        -1.07009945150723    0.79301012266453   -0.04377299342893
C         0.25006039203573    0.77252454646027    0.01155848390513
C         0.37148221973848   -0.96486972174613   -0.32523700052684
C         1.30606708143084   -0.08556013830011    0.21122335365882
C        -0.85751024169783   -0.51510580907855    0.14622815639182
5
 energy: -11.088047217072 gnorm: 0.000943845919 xtb: 6.2.2 (9d81278992624c895f80dd42a50cac0aa55982e2)
N        -1.07071884956429    0.79168342227165   -0.04626057077958
C         0.24999459693239    0.77361969213667    0.01569817336258
C         0.37237644953149   -0.96622352855857   -0.32421014574067
C         1.30667220817443   -0.08568126511014    0.20809268023853
C        -0.85832440507402   -0.51339932073961    0.14667986291914
5
 energy: -11.088049794884 gnorm: 0.001188282443 xtb: 6.2.2 (9d81278992624c895f80dd42a50cac0aa55982e2)
N        -1.07073621189451    0.79085779692589   -0.04774466863683
C         0.25018254285351    0.77411507226583    0.01818593727678
C         0.37217742947659   -0.96634794765121   -0.32282095923788
C         1.30785547866072   -0.08545339120930    0.20600361498479
C        -0.85947923909631   -0.51317253033121    0.14637607561314
5
 energy: -11.088051297831 gnorm: 0.000892802032 xtb: 6.2.2 (9d81278992624c895f80dd42a50cac0aa55982e2)
N        -1.07054801295460    0.79075201121159   -0.04796084978317
C         0.25023965057296    0.77376369484270    0.01827517719681
C         0.37203873550993   -0.96551537030005   -0.32256791957058
C         1.30818634076892   -0.08549061399197    0.20587666077477
C        -0.85991671389721   -0.51351072176226    0.14637693138218
