$hessian                                                                        
        0.6862328265   0.4380770350   0.0250806959  -0.0520664351  -0.0234499877
       -0.0008990288  -0.4767006523  -0.2556655480  -0.0080596486  -0.1441273200
       -0.1491326834  -0.0154321200  -0.0133384191  -0.0098288159  -0.0006898985
        0.4380770350   0.5804815258   0.0518379288   0.1318424888  -0.2849985672
       -0.0516067382  -0.4309790301  -0.0663398409   0.0213087523  -0.1462579321
       -0.2254719763  -0.0206863129   0.0073174385  -0.0036711414  -0.0008536300
        0.0250806959   0.0518379288   0.0619666156   0.0232684443  -0.0409233443
       -0.0198684238  -0.0353257230   0.0092566381  -0.0092421689  -0.0149655768
       -0.0204754950  -0.0312928267   0.0019421596   0.0003042724  -0.0015631963
       -0.0520664351   0.1318424888   0.0232684443   0.1810434671  -0.2383936118
       -0.0492640147  -0.1181251363   0.1043615725   0.0241443040   0.0003754192
       -0.0134228406  -0.0016107432  -0.0112273150   0.0156123912   0.0034620095
       -0.0234499877  -0.2849985672  -0.0409233443  -0.2383936118   0.4508245737
        0.0859931081   0.2667134407  -0.1543514704  -0.0419274080   0.0028312236
       -0.0131571650  -0.0033728259  -0.0077010647   0.0016826289   0.0002304700
       -0.0008990288  -0.0516067382  -0.0198684238  -0.0492640147   0.0859931081
        0.0208188461   0.0494252839  -0.0307319206  -0.0114188691   0.0009164112
       -0.0022687946   0.0068481312  -0.0001786516  -0.0013856547   0.0036203155
       -0.4767006523  -0.4309790301  -0.0353257230  -0.1181251363   0.2667134407
        0.0494252839   0.9543046406   0.1954424045  -0.0326818163  -0.0058281297
       -0.0009452510   0.0004358590  -0.3536507224  -0.0302315639   0.0181463964
       -0.2556655480  -0.0663398409   0.0092566381   0.1043615725  -0.1543514704
       -0.0307319206   0.1954424045   0.2489283030   0.0211575642  -0.0158426017
       -0.0048567063  -0.0000816616  -0.0282958274  -0.0233802854   0.0003993799
       -0.0080596486   0.0213087523  -0.0092421689   0.0241443040  -0.0419274080
       -0.0114188691  -0.0326818163   0.0211575642   0.0329740787  -0.0019074343
       -0.0010995815   0.0026453879   0.0185045952   0.0005606731  -0.0149584287
       -0.1441273200  -0.1462579321  -0.0149655768   0.0003754192   0.0028312236
        0.0009164112  -0.0058281297  -0.0158426017  -0.0019074343   0.1496184839
        0.1626137685   0.0162493857  -0.0000384535  -0.0033444583  -0.0002927858
       -0.1491326834  -0.2254719763  -0.0204754950  -0.0134228406  -0.0131571650
       -0.0022687946  -0.0009452510  -0.0048567063  -0.0010995815   0.1626137685
        0.2420784682   0.0241888834   0.0008870065   0.0014073795  -0.0003450122
       -0.0154321200  -0.0206863129  -0.0312928267  -0.0016107432  -0.0033728259
        0.0068481312   0.0004358590  -0.0000816616   0.0026453879   0.0162493857
        0.0241888834   0.0186314247   0.0003576184  -0.0000480831   0.0031678828
       -0.0133384191   0.0073174385   0.0019421596  -0.0112273150  -0.0077010647
       -0.0001786516  -0.3536507224  -0.0282958274   0.0185045952  -0.0000384535
        0.0008870065   0.0003576184   0.3782549098   0.0277924470  -0.0206257216
       -0.0098288159  -0.0036711414   0.0003042724   0.0156123912   0.0016826289
       -0.0013856547  -0.0302315639  -0.0233802854   0.0005606731  -0.0033444583
        0.0014073795  -0.0000480831   0.0277924470   0.0239614184   0.0005687923
       -0.0006898985  -0.0008536300  -0.0015631963   0.0034620095   0.0002304700
        0.0036203155   0.0181463964   0.0003993799  -0.0149584287  -0.0002927858
       -0.0003450122   0.0031678828  -0.0206257216   0.0005687923   0.0097334266
