 Entering Gaussian System
 *********************************************
 Gaussian 98:
 frequency output generated by the xtb code
 *********************************************
                         Standard orientation:
 --------------------------------------------------------------------
  Center     Atomic     Atomic              Coordinates (Angstroms)
  Number     Number      Type              X           Y           Z
 --------------------------------------------------------------------
    1          6             0       -0.550834   -0.346857   -0.016387
    2          7             0       -0.575674    1.019166    0.198129
    3          6             0        0.630461    0.221571   -0.008934
    4          1             0       -1.185875   -1.193637   -0.105199
    5          1             0        1.681922    0.299757   -0.067608
 --------------------------------------------------------------------
     1 basis functions        1 primitive gaussians
     1 alpha electrons        1 beta electrons

 Harmonic frequencies (cm**-1), IR intensities (KM/Mole),
 Raman scattering activities (A**4/amu), Raman depolarization ratios,
 reduced masses (AMU), force constants (mDyne/A) and normal coordinates:
                      1                      2                      3
                        a                      a                      a 
 Frequencies --   352.4256               513.0819               749.6940
 Red. masses --    12.1677                 4.0414                 3.3406
 Frc consts  --     0.0000                 0.0000                 0.0000
 IR Inten    --     0.6035                 0.1133                 0.0261
 Raman Activ --     0.0000                 0.0000                 0.0000
 Depolar     --     0.0000                 0.0000                 0.0000
 Atom AN      X      Y      Z        X      Y      Z        X      Y      Z
   1   6     0.07  -0.57  -0.09     0.01  -0.03   0.20     0.03  -0.07   0.44
   2   7     0.43   0.30   0.02     0.01  -0.01   0.06    -0.01   0.02  -0.11
   3   6    -0.50   0.30   0.08    -0.03   0.07  -0.47    -0.00   0.00  -0.01
   4   1     0.00  -0.13  -0.02    -0.01   0.02  -0.12    -0.06   0.13  -0.85
   5   1    -0.12  -0.06  -0.00     0.06  -0.13   0.83    -0.02   0.04  -0.22
                      4                      5                      6
                        a                      a                      a 
 Frequencies --   814.7031               905.5193              1265.2305
 Red. masses --     2.9688                 2.2751                13.0247
 Frc consts  --     0.0000                 0.0000                 0.0000
 IR Inten    --     0.0384                 0.0269                 0.4407
 Raman Activ --     0.0000                 0.0000                 0.0000
 Depolar     --     0.0000                 0.0000                 0.0000
 Atom AN      X      Y      Z        X      Y      Z        X      Y      Z
   1   6    -0.19   0.00   0.01     0.16  -0.18  -0.04    -0.43   0.21   0.06
   2   7     0.22   0.04  -0.01     0.01  -0.17  -0.03     0.39  -0.61  -0.12
   3   6    -0.05  -0.28  -0.04     0.04   0.14   0.02    -0.01   0.47   0.07
   4   1     0.08  -0.10  -0.02    -0.74   0.53   0.13     0.04  -0.06  -0.01
   5   1    -0.08   0.89   0.14     0.00   0.22   0.03     0.00  -0.02  -0.00
                      7                      8                      9
                        a                      a                      a 
 Frequencies --  1747.7554              3232.0389              3301.0246
 Red. masses --    10.9411                 1.9521                 2.1841
 Frc consts  --     0.0000                 0.0000                 0.0000
 IR Inten    --     0.1962                 0.1164                 0.1200
 Raman Activ --     0.0000                 0.0000                 0.0000
 Depolar     --     0.0000                 0.0000                 0.0000
 Atom AN      X      Y      Z        X      Y      Z        X      Y      Z
   1   6     0.50   0.42   0.03     0.19   0.22   0.02    -0.07  -0.09  -0.01
   2   7     0.11  -0.27  -0.05     0.01  -0.01  -0.00    -0.00   0.02   0.00
   3   6    -0.59  -0.18   0.01     0.03   0.00  -0.00     0.30   0.03  -0.02
   4   1     0.14   0.20   0.02    -0.56  -0.74  -0.08     0.12   0.16   0.02
   5   1    -0.23  -0.02   0.01    -0.23  -0.02   0.01    -0.92  -0.07   0.05
