3
 energy: -5.322975957170 gnorm: 0.000295189856 xtb: 6.2.2 (9d81278992624c895f80dd42a50cac0aa55982e2)
C        -0.06859429506631    0.43850488821746   -0.00000052588751
N         0.99909537801333   -0.14200201915288   -0.00000323967223
H        -0.93050008294178   -0.29650186906982    0.00000376555450
