[Molden Format]
[Title]
[Atoms] AU
C      1     6 -0.12962441936056E+00  0.82865406615822E+00 -0.99378326975578E-06
N      2     7  0.18880164616547E+01 -0.26834490044579E+00 -0.61220926713465E-05
H      3     1 -0.17583901525583E+01 -0.56030727599637E+00  0.71158660465203E-05
[GTO]
           1 0
 s           4   1.0000000000000000     
   51.049363095579913      -0.16312063210127389     
   8.7911227406887544      -0.19911024581000730     
  0.70640422258929825       0.31882047753655751     
  0.26922813413411617       0.12706504184240380     
 p           4   1.0000000000000000     
   5.8263656140800002       0.73716451545209605     
   1.5106896018720002       0.68216371614850257     
  0.53256483288000001       0.35783053929253711     
  0.21202323690600003        5.3983030275847881E-002

           2 0
 s           4   1.0000000000000000     
   63.594024466941008      -0.19234388414721629     
   10.951417231523665      -0.23478107924953728     
  0.87999310257376984       0.37593753901700888     
  0.33538715296521110       0.14982889271862770     
 p           4   1.0000000000000000     
   7.2965040481495080       0.97658666315667420     
   1.8918745450712575       0.90372226730345739     
  0.66694432110824120       0.47404958461536373     
  0.26552202674130870        7.1516067715011844E-002

           3 0
 s           3   1.0000000000000000     
   3.3702276975336001       0.27359110588908298     
  0.61389118221497996       0.26460540653860526     
  0.16614291148415999        8.2465947534082318E-002

[MO]
Sym=     1a
Ene=  -0.66354930203814277     
Spin= Alpha
Occup=     2.00000000
           1 -0.46441346637829833     
           2 -0.17172918160963441     
           3  0.12570851131065444     
           4   3.8049836661711210E-007
           5 -0.52855929555088632     
           6  0.20490285756693546     
           7  -8.6603404812975113E-002
           8  -5.6557246476671219E-007
           9 -0.11631550697816689     
Sym=     2a
Ene=  -0.56719746533003035     
Spin= Alpha
Occup=     2.00000000
           1  0.34914511207919557     
           2 -0.37582347970537189     
           3  -6.5565399974883212E-002
           4   1.4363358154270760E-006
           5 -0.48575497386923078     
           6 -0.25808519954174847     
           7  -8.0760824151271726E-002
           8   1.0499893244818346E-006
           9  0.39268543797755573     
Sym=     3a
Ene=  -0.50362550810094064     
Spin= Alpha
Occup=     2.00000000
           1  0.33812689390954626     
           2  0.16074505776603037     
           3  0.43905010187437943     
           4  -1.3737348632183664E-006
           5 -0.36204681795875648     
           6  -7.0024081292023199E-002
           7  0.59783325824071742     
           8  -8.5431505195510745E-007
           9 -0.15651609456979701     
Sym=     4a
Ene=  -0.49570630683028888     
Spin= Alpha
Occup=     2.00000000
           1   1.9303217487208865E-008
           2   1.9377923201913723E-006
           3   9.9275557045035792E-007
           4  0.55040859764934480     
           5  -2.4063180652681790E-008
           6   2.4875909784158405E-006
           7   1.2995617587590415E-006
           8  0.71642040691899811     
           9  -2.6122866436611843E-008
Sym=     5a
Ene=  -0.45229431027986422     
Spin= Alpha
Occup=     1.00000000
           1  0.19028383007479524     
           2 -0.32445054623951475     
           3  0.30336779627452742     
           4   6.1207900722033986E-007
           5  0.35236211365199549     
           6  0.71539020931594943     
           7   9.9361418335045193E-002
           8  -2.6632017711566612E-006
           9  0.28501437631110293     
Sym=     6a
Ene=  -0.31964867463501789     
Spin= Alpha
Occup=     1.00000000
           1 -0.40770810332851931     
           2   5.9743660563479156E-002
           3 -0.60078189525435521     
           4   8.4488250210203317E-007
           5 -0.10153319130910735     
           6  0.20067480780041272     
           7  0.72080958023094421     
           8  -1.9615496959999424E-006
           9  0.35417707491597367     
Sym=     7a
Ene=  -0.25787097044885332     
Spin= Alpha
Occup=     0.00000000
           1   5.7090799292165832E-009
           2   3.0288119262751917E-006
           3   1.5155825704379938E-006
           4  0.86860834215315696     
           5   1.3916701463848200E-009
           6  -2.5768000100384975E-006
           7  -1.2878144638551753E-006
           8 -0.73768006410260789     
           9  -1.0944603816243740E-008
Sym=     8a
Ene=   0.12342333599566475     
Spin= Alpha
Occup=     0.00000000
           1 -0.57249601379575532     
           2  0.73811657584864332     
           3  0.60516967679592137     
           4  -3.6247657160132134E-006
           5  -7.9162126756079212E-002
           6 -0.12670940573817729     
           7 -0.21658183861285529     
           8   8.1805077233653158E-007
           9   1.0652788002183444     
Sym=     9a
Ene=   0.59115428175285278     
Spin= Alpha
Occup=     0.00000000
           1  0.82113850965865609     
           2  0.88487526976076225     
           3 -0.50103959899972772     
           4  -2.2123511772599269E-006
           5 -0.84738906696871330     
           6  0.84222115729725322     
           7 -0.45847439189144340     
           8  -2.1377437414217081E-006
           9  -1.5641142241175684E-002
