 Entering Gaussian System
 *********************************************
 Gaussian 98:
 frequency output generated by the xtb code
 *********************************************
                         Standard orientation:
 --------------------------------------------------------------------
  Center     Atomic     Atomic              Coordinates (Angstroms)
  Number     Number      Type              X           Y           Z
 --------------------------------------------------------------------
    1          7             0        0.265725   -0.972275    0.022796
    2          6             0       -0.687157   -0.221523   -0.695720
    3          6             0       -0.279010    1.020859   -0.023918
    4          6             0       -0.235155   -0.058879    0.972892
    5          6             0        0.935597    0.231820   -0.276048
 --------------------------------------------------------------------
     1 basis functions        1 primitive gaussians
     1 alpha electrons        1 beta electrons

 Harmonic frequencies (cm**-1), IR intensities (KM/Mole),
 Raman scattering activities (A**4/amu), Raman depolarization ratios,
 reduced masses (AMU), force constants (mDyne/A) and normal coordinates:
                      1                      2                      3
                        a                      a                      a 
 Frequencies --   404.9420               405.5647               821.7648
 Red. masses --    12.3669                12.3666                12.3803
 Frc consts  --     0.0000                 0.0000                 0.0000
 IR Inten    --     0.8704                 0.8661                 0.1273
 Raman Activ --     0.0000                 0.0000                 0.0000
 Depolar     --     0.0000                 0.0000                 0.0000
 Atom AN      X      Y      Z        X      Y      Z        X      Y      Z
   1   7     0.35   0.10   0.22     0.21   0.05  -0.36     0.11  -0.41   0.01
   2   6    -0.08  -0.06   0.11    -0.42  -0.09   0.44     0.31   0.09   0.31
   3   6     0.39   0.11   0.25     0.24   0.06  -0.41    -0.12   0.44  -0.01
   4   6    -0.56  -0.15  -0.14    -0.16  -0.09  -0.05     0.11   0.02  -0.44
   5   6    -0.12  -0.02  -0.44     0.11   0.07   0.41    -0.42  -0.11   0.12
                      4                      5                      6
                        a                      a                      a 
 Frequencies --   848.9083               848.9635              1039.1270
 Red. masses --    12.4748                12.4748                12.1542
 Frc consts  --     0.0000                 0.0000                 0.0000
 IR Inten    --     0.1573                 0.1573                 1.0450
 Raman Activ --     0.0000                 0.0000                 0.0000
 Depolar     --     0.0000                 0.0000                 0.0000
 Atom AN      X      Y      Z        X      Y      Z        X      Y      Z
   1   7    -0.46  -0.13  -0.05     0.05   0.00  -0.48    -0.16  -0.04   0.21
   2   6     0.17  -0.47   0.03     0.11  -0.37   0.05    -0.23  -0.06   0.15
   3   6     0.39   0.11   0.04    -0.04  -0.00   0.40    -0.19  -0.05   0.25
   4   6     0.05  -0.08   0.00    -0.17   0.60   0.03     0.03   0.03  -0.64
   5   6    -0.11   0.58  -0.01     0.05  -0.23   0.04     0.57   0.12   0.00
                      7                      8                      9
                        a                      a                      a 
 Frequencies --  1039.8210              1277.8647              1393.7622
 Red. masses --    12.1543                12.6512                12.5461
 Frc consts  --     0.0000                 0.0000                 0.0000
 IR Inten    --     1.0390                 0.9399                 0.2317
 Raman Activ --     0.0000                 0.0000                 0.0000
 Depolar     --     0.0000                 0.0000                 0.0000
 Atom AN      X      Y      Z        X      Y      Z        X      Y      Z
   1   7     0.20   0.06   0.17    -0.15   0.55  -0.01    -0.14   0.50  -0.01
   2   6    -0.44  -0.17  -0.49     0.10  -0.36   0.02     0.25   0.08   0.25
   3   6     0.24   0.07   0.20    -0.13   0.49  -0.01     0.15  -0.56   0.01
   4   6     0.30   0.09  -0.21     0.10  -0.36  -0.00     0.08   0.02  -0.35
   5   6    -0.32  -0.06   0.33     0.09  -0.36   0.01    -0.34  -0.08   0.10
