[Molden Format]
[Title]
[Atoms] AU
N      1     7  0.50214745763251E+00 -0.18373342318896E+01  0.43077372141500E-01
C      2     6 -0.12985375469890E+01 -0.41861826283036E+00 -0.13147202243048E+01
C      3     6 -0.52725199685094E+00  0.19291429732484E+01 -0.45198162097945E-01
C      4     6 -0.44437796382657E+00 -0.11126597848340E+00  0.18384986075686E+01
C      5     6  0.17680219397665E+01  0.43807549994838E+00 -0.52165570358791E+00
[GTO]
           1 0
 s           4   1.0000000000000000     
   63.594024466941008      -0.19234388414721629     
   10.951417231523665      -0.23478107924953728     
  0.87999310257376984       0.37593753901700888     
  0.33538715296521110       0.14982889271862770     
 p           4   1.0000000000000000     
   7.2965040481495080       0.97658666315667420     
   1.8918745450712575       0.90372226730345739     
  0.66694432110824120       0.47404958461536373     
  0.26552202674130870        7.1516067715011844E-002

           2 0
 s           4   1.0000000000000000     
   51.049363095579913      -0.16312063210127389     
   8.7911227406887544      -0.19911024581000730     
  0.70640422258929825       0.31882047753655751     
  0.26922813413411617       0.12706504184240380     
 p           4   1.0000000000000000     
   5.8263656140800002       0.73716451545209605     
   1.5106896018720002       0.68216371614850257     
  0.53256483288000001       0.35783053929253711     
  0.21202323690600003        5.3983030275847881E-002

           3 0
 s           4   1.0000000000000000     
   51.049363095579913      -0.16312063210127389     
   8.7911227406887544      -0.19911024581000730     
  0.70640422258929825       0.31882047753655751     
  0.26922813413411617       0.12706504184240380     
 p           4   1.0000000000000000     
   5.8263656140800002       0.73716451545209605     
   1.5106896018720002       0.68216371614850257     
  0.53256483288000001       0.35783053929253711     
  0.21202323690600003        5.3983030275847881E-002

           4 0
 s           4   1.0000000000000000     
   51.049363095579913      -0.16312063210127389     
   8.7911227406887544      -0.19911024581000730     
  0.70640422258929825       0.31882047753655751     
  0.26922813413411617       0.12706504184240380     
 p           4   1.0000000000000000     
   5.8263656140800002       0.73716451545209605     
   1.5106896018720002       0.68216371614850257     
  0.53256483288000001       0.35783053929253711     
  0.21202323690600003        5.3983030275847881E-002

           5 0
 s           4   1.0000000000000000     
   51.049363095579913      -0.16312063210127389     
   8.7911227406887544      -0.19911024581000730     
  0.70640422258929825       0.31882047753655751     
  0.26922813413411617       0.12706504184240380     
 p           4   1.0000000000000000     
   5.8263656140800002       0.73716451545209605     
   1.5106896018720002       0.68216371614850257     
  0.53256483288000001       0.35783053929253711     
  0.21202323690600003        5.3983030275847881E-002

[MO]
Sym=     1a
Ene=  -0.79415410273337905     
Spin= Alpha
Occup=     2.00000000
           1 -0.29293183978913068     
           2   6.1629062640741368E-002
           3 -0.22549633031248406     
           4   5.2858950388720970E-003
           5 -0.24140478442176361     
           6  -9.3943463766675062E-002
           7  -1.3185392853083296E-002
           8  -9.1134655577044352E-002
           9 -0.20804893275392192     
          10  -3.4461535356160769E-002
          11  0.12609114829039167     
          12  -2.9549079204332176E-003
          13 -0.24140769057942743     
          14  -3.4974621816566534E-002
          15   8.0338077957960163E-003
          16  0.12656044226733867     
          17 -0.24140410384399444     
          18  0.11776546484736247     
          19   4.5958905168524695E-002
          20  -3.6382784512590402E-002
Sym=     2a
Ene=  -0.67609900387642985     
Spin= Alpha
Occup=     2.00000000
           1  0.50435330090485442     
           2   1.2767477541508268E-003
           3  -4.6745718135908863E-003
           4   1.1189672708428942E-004
           5  -4.3472808216482695E-002
           6   6.2812908221915487E-002
           7 -0.24329378682117125     
           8   2.2530995298699428E-003
           9 -0.44917816035052704     
          10  -1.4375424317244211E-002
          11   5.2599102079389295E-002
          12  -1.2327204492251788E-003
          13  -4.3471431420619031E-002
          14   6.5039993688997530E-002
          15 -0.24250009144321080     
          16   1.0465124350943822E-002
          17  -4.3472476509454579E-002
          18   7.0799963838613825E-002
          19 -0.24106082690349132     
          20   4.3187848801840437E-003
Sym=     3a
Ene=  -0.66460008521493219     
Spin= Alpha
Occup=     2.00000000
           1  -8.8889848002301099E-007
           2   8.0766543481311945E-002
           3   1.1585657658156626E-002
           4 -0.44741505834528972     
           5  0.25793271304138954     
           6  0.14522101757733297     
           7  -5.0883866755277798E-003
           8 -0.14396292173449121     
           9  -4.4682233433823578E-006
          10   3.9787900140149740E-002
          11   5.7100658258469120E-003
          12 -0.22041330715702362     
          13 -0.46344825544129969     
          14  -3.3242795291083628E-002
          15   6.5144684158077060E-002
          16  -6.8583610766850874E-003
          17  0.20552187384750500     
          18  -4.7321529957958935E-002
          19  -5.0783940359061197E-002
          20 -0.20734704153974023     
Sym=     4a
Ene=  -0.66459886231608867     
Spin= Alpha
Occup=     2.00000000
           1  -4.4537810604959261E-007
           2  0.43121551908358657     
           3  0.11975020081431910     
           4   8.0943151117557011E-002
           5 -0.38622506541693397     
           6   7.5429010463016102E-002
           7   8.0340193026573012E-002
           8  -9.6859979901052481E-002
           9  -7.2829746643888811E-007
          10  0.21243333396472897     
          11   5.8994136908430528E-002
          12   3.9875719887368780E-002
          13  -3.0258378323910276E-002
          14  0.22376696443736652     
          15   6.7372577256999341E-002
          16   5.7982719281280182E-002
          17  0.41648506471779123     
          18   4.6018532926221191E-002
          19  -5.1845397553265948E-002
          20  0.10367713269424675     
Sym=     5a
Ene=  -0.55990651194933350     
Spin= Alpha
Occup=     2.00000000
           1   5.2273908586777879E-006
           2   7.2375567998754456E-002
           3   9.6214848509233886E-003
           4 -0.43327283032446923     
           5  -8.9491872907624281E-002
           6   5.9454627103469285E-002
           7 -0.23663015394666764     
           8   6.2207658752412041E-002
           9   2.5939005441974164E-006
          10  -7.8148652135212798E-002
          11  -1.0393121651926284E-002
          12  0.46783996048511889     
          13  0.15745693161889066     
          14 -0.12482471770631479     
          15  0.41460731406232748     
          16   5.2279281728421799E-002
          17  -6.7968763579452696E-002
          18   3.6509152756324229E-002
          19 -0.18182385056004960     
          20   5.8302882447566248E-002
Sym=     6a
Ene=  -0.55990299317929548     
Spin= Alpha
Occup=     2.00000000
           1   1.9408737264560833E-006
           2  0.41762688346276788     
           3  0.11583339978314652     
           4   7.2334265114571181E-002
           5  0.13014957939059582     
           6 -0.15040706055458830     
           7  0.32825761007512355     
           8  -2.2264285293391046E-002
           9   9.7104734553094165E-007
          10 -0.45094149940068667     
          11 -0.12507503481917431     
          12  -7.8104515345053444E-002
          13   1.2425955257371129E-002
          14  -6.0220656358190891E-002
          15   1.8647868569818767E-002
          16  -8.9003430520914542E-003
          17 -0.14257661062329841     
          18   4.4077670517343584E-002
          19 -0.39310275105337078     
          20   2.3176827845719393E-003
Sym=     7a
Ene=  -0.53143455010776941     
Spin= Alpha
Occup=     2.00000000
           1 -0.57607955221037366     
           2 -0.15054252116490272     
           3  0.55082685866908643     
           4  -1.2912053637779751E-002
           5   9.2556984740634424E-002
           6   9.4674400175433979E-003
           7  -6.5343883702751807E-002
           8  -6.3357921155769428E-003
           9 -0.50008336480650939     
          10   7.1595677986335607E-002
          11 -0.26197029158732360     
          12   6.1437256138961388E-003
          13   9.2561566675529214E-002
          14   1.4539168439499664E-002
          15  -6.3516890368204376E-002
          16   1.2394475061931075E-002
          17   9.2555845322468411E-002
          18   2.7679772778215886E-002
          19  -6.0257057883513640E-002
          20  -1.6254971656533912E-003
Sym=     8a
Ene=  -0.47870640525454278     
Spin= Alpha
Occup=     2.00000000
           1   3.5617240672844150E-002
           2   6.8408258030881033E-002
           3 -0.25029554960973371     
           4   5.8631624770726443E-003
           5  0.41342819697158362     
           6 -0.26318323840191910     
           7  -6.3517599848534056E-002
           8 -0.26158162759607467     
           9  -9.3290322573364254E-002
          10   2.3722409724852962E-002
          11  -8.6780046484920659E-002
          12   2.0218200758687871E-003
          13  0.41350868667368579     
          14  -9.3612189392563411E-002
          15  -2.5041612121158379E-003
          16  0.36471743458435457     
          17  0.41341452556521996     
          18  0.34571172206944117     
          19  0.10658966829724974     
          20 -0.10409524870506166     
Sym=     9a
Ene=  -0.46990421993352793     
Spin= Alpha
Occup=     2.00000000
           1   1.1520621616468928E-006
           2  -5.7295699556862666E-002
           3  -1.5851831479544519E-002
           4  -7.8408891117904018E-003
           5 -0.36556949292363899     
           6   5.6488197624733796E-002
           7   7.4900466317763911E-002
           8  0.45416363631245077     
           9  -3.7289037823714620E-006
          10 -0.12087028284515802     
          11  -3.3426800695480388E-002
          12  -1.6541008700734047E-002
          13  -5.1252045751762162E-002
          14 -0.42056359614572303     
          15 -0.11189182678267924     
          16 -0.16194375887931114     
          17  0.41686255404926892     
          18  0.35743748196005731     
          19   3.5157739627614870E-002
          20 -0.29312795950661524     
Sym=    10a
Ene=  -0.46990371479537624     
Spin= Alpha
Occup=     2.00000000
           1   4.5237906489040067E-006
           2  -7.9103163572052885E-003
           3  -8.0351040822250800E-004
           4   5.9429374513778020E-002
           5  0.27031230277785284     
           6 -0.43117084937646788     
           7 -0.15206148829086910     
           8   7.9569845146425830E-002
           9  -1.4375502598313227E-005
          10  -1.6700542450050627E-002
          11  -1.6439605829100556E-003
          12  0.12536465925601722     
          13 -0.45167062624905985     
          14  0.14276117723789872     
          15   8.9219136381335190E-002
          16 -0.43174324034602024     
          17  0.18151873106453664     
          18  0.28748893440058526     
          19   6.2759599077992737E-002
          20  0.35906705444113524     
Sym=    11a
Ene=  -0.42871278828510662     
Spin= Alpha
Occup=     1.00000000
           1  0.14676514504109137     
           2  0.12086795313657876     
           3 -0.44224419909767915     
           4   1.0364621481389724E-002
           5  -7.5138938708344691E-002
           6   2.9423961780089838E-002
           7  0.19572679775827392     
           8   7.3138888184665019E-002
           9 -0.39663356326472587     
          10  0.18801990547550210     
          11 -0.68794450209148428     
          12   1.6121648223062189E-002
          13  -7.5134465945771653E-002
          14  -2.0702757782062566E-002
          15  0.17769246446997927     
          16 -0.11189741971385017     
          17  -7.5139912073278345E-002
          18 -0.15053241967618619     
          19  0.14545253401741079     
          20   2.6599505591662569E-002
Sym=    12a
Ene=  -0.31270393756437731     
Spin= Alpha
Occup=     0.00000000
           1   6.6858540475654244E-007
           2  -7.5329192735623579E-002
           3  -1.0169389328455963E-002
           4  0.44451858191402921     
           5   4.6928721138376407E-002
           6  0.18290762175795969     
           7  -6.3305371930283804E-003
           8 -0.51968391133263869     
           9   3.4474958860255933E-007
          10  -7.8924059568636434E-002
          11  -1.0654800945713593E-002
          12  0.46573136640491469     
          13  -8.2886740338303413E-002
          14   3.6953882722412311E-002
          15   7.8279705204479050E-002
          16 -0.41706077887012855     
          17   3.5951552144098620E-002
          18   3.5445870442566994E-002
          19  -3.7483635954619281E-002
          20 -0.56982411846339664     
Sym=    13a
Ene=  -0.31269696852799789     
Spin= Alpha
Occup=     0.00000000
           1   2.2159022079546928E-007
           2 -0.42845989253288969     
           3 -0.11886578065813448     
           4  -7.5327351362109884E-002
           5  -6.8602522550029646E-002
           6  0.45034076565869852     
           7  0.18747378710029866     
           8  -5.9064796867678944E-003
           9   5.9420256393677443E-008
          10 -0.44890541765531961     
          11 -0.12453801085999559     
          12  -7.8921745795496046E-002
          13  -6.3372175933018911E-003
          14  0.56617853101353799     
          15  0.16336761844430295     
          16  0.11380214843345730     
          17   7.4938079374959124E-002
          18  0.43560034116626589     
          19   5.2013932336989352E-002
          20  0.14740058778524329     
Sym=    14a
Ene=  -0.24784203371811031     
Spin= Alpha
Occup=     0.00000000
           1   4.6849877734519117E-009
           2   2.4975329923115426E-005
           3   7.0745102381197737E-006
           4   1.0374958517905749E-005
           5   2.6890780202935250E-006
           6 -0.45567266294298392     
           7 -0.11314791124922143     
           8  0.48607938315370058     
           9   5.7821109152489314E-009
          10   2.5138803993298067E-005
          11   7.1059743961883675E-006
          12   1.0408331467163351E-005
          13  -3.6868600105970846E-007
          14  0.63154239717440064     
          15  0.17643216777249893     
          16  0.16332490776241032     
          17  -2.2726295470659705E-006
          18 -0.17593792907877442     
          19  -6.3303561640133330E-002
          20 -0.64943275900874853     
Sym=    15a
Ene=   -1.6446319202221415E-003
Spin= Alpha
Occup=     0.00000000
           1  -7.7994565619593926E-006
           2 -0.52140956646159764     
           3 -0.14455053575125751     
           4  -8.7071799306217487E-002
           5   7.0304565507670488E-002
           6 -0.16101006418175756     
           7  0.66898409533213776     
           8   1.2503954929484940E-002
           9   6.5610197054082116E-006
          10  0.70292415459335389     
          11  0.19485887894374826     
          12  0.11738152982318865     
          13   7.2380157938403194E-003
          14  -2.6848461124196071E-002
          15   6.5844140000563559E-002
          16  -7.4001746372184827E-003
          17  -7.7542164543758688E-002
          18  0.23420236457494495     
          19 -0.72200381740842456     
          20   2.6329950479203807E-003
Sym=    16a
Ene=   -1.6305287520066792E-003
Spin= Alpha
Occup=     0.00000000
           1  -2.6929903212192828E-005
           2  -8.7230833655403961E-002
           3  -1.1182652129818520E-002
           4  0.54093602755778003     
           5  -4.8951806487534347E-002
           6  0.10411831599913607     
           7 -0.46776847156630669     
           8  -1.8646738445922000E-004
           9   2.2213401765845601E-005
          10  0.11761218684548259     
          11   1.5035043006383730E-002
          12 -0.72925613145457380     
          13   8.5370745648366983E-002
          14 -0.20912160449257761     
          15  0.80674329559243863     
          16  -5.9457464090463791E-002
          17  -3.6417087767411788E-002
          18  0.11278086243850254     
          19 -0.33805627701363961     
          20   1.1555395646118601E-002
Sym=    17a
Ene=    6.6988992226995697E-002
Spin= Alpha
Occup=     0.00000000
           1  -1.6082785935010123E-005
           2 -0.56525528724363949     
           3 -0.15586610711446239     
           4  -5.8210704033239517E-002
           5 -0.56314401444674589     
           6 -0.46460658897271789     
           7  -5.6102370061415031E-002
           8 -0.37651954097332563     
           9   2.0470390789115601E-006
          10 -0.43177281717693872     
          11 -0.11904700038206995     
          12  -4.4466967074389352E-002
          13 -0.10384701412470175     
          14 -0.10718151657302531     
          15  -1.2587432687119662E-002
          16   8.5849430920601114E-002
          17  0.66700437387833067     
          18 -0.63693039214585312     
          19 -0.26460052315404514     
          20  0.16619023048173295     
Sym=    18a
Ene=    6.6990515177954457E-002
Spin= Alpha
Occup=     0.00000000
           1   6.2521443651097271E-005
           2   5.9651542197901600E-002
           3   2.6187443938274373E-003
           4 -0.58621789072287966     
           5 -0.44506763201558480     
           6 -0.29535758437213588     
           7  -2.6458993711446218E-002
           8 -0.37421697741113003     
           9  -1.5252641001438669E-005
          10   4.5571087319559452E-002
          11   1.9630780236814466E-003
          12 -0.44776884128573885     
          13  0.71021398626510968     
          14  0.19310380236249916     
          15  -6.4763551300417457E-002
          16 -0.72675816947367666     
          17 -0.26519076981451345     
          18  0.22980583570953747     
          19   9.6806697231429956E-002
          20 -0.15253036509626855     
Sym=    19a
Ene=    9.2023592280050498E-002
Spin= Alpha
Occup=     0.00000000
           1  0.78929326282055512     
           2 -0.16497561489491191     
           3  0.60354459545669825     
           4  -1.4087597621938829E-002
           5  -7.8990927289191021E-002
           6 -0.23955439067143117     
           7  0.49700181899214019     
           8 -0.10887339365060933     
           9 -0.49640115226394771     
          10  -8.4357822881476419E-002
          11  0.30866822801553412     
          12  -7.2322677004090213E-003
          13  -7.9059907497920912E-002
          14 -0.17688743824635647     
          15  0.51962512275876360     
          16  0.12265757159460658     
          17  -7.8983750561129926E-002
          18  -1.4451937982816096E-002
          19  0.55987186362220742     
          20  -5.0654941166600811E-002
Sym=    20a
Ene=   0.36646745268752839     
Spin= Alpha
Occup=     0.00000000
           1 -0.43114082457536845     
           2  0.13812742115583282     
           3 -0.50538049931619677     
           4   1.1835355200572944E-002
           5  0.42180076685765944     
           6  0.25661957711616906     
           7  0.23856483400096415     
           8  0.29609732296335994     
           9 -0.80066151188749113     
          10 -0.22080411031975131     
          11  0.80792799851123520     
          12  -1.8949874144834997E-002
          13  0.42184216652453849     
          14   6.2078687341049023E-002
          15  0.16857031814460594     
          16 -0.42214303855497526     
          17  0.42179115214863472     
          18 -0.44183053008865691     
          19   4.3438317058495136E-002
          20  0.11546106854509774     
