$hessian                                                                        
        0.1783700874  -0.1205266995   0.0028689428  -0.0958047631   0.0895575089
       -0.0815479018  -0.0149400804   0.0288556429  -0.0006231442  -0.0198329388
        0.0663885138   0.0565387478  -0.0477923051  -0.0642749661   0.0227633553
       -0.1205266995   0.5870662849  -0.0105323951   0.1026041651  -0.1155750101
        0.0668289157   0.0289097271  -0.1123463802   0.0022688180   0.0706949851
       -0.1453113470  -0.1030545646  -0.0816821778  -0.2138335476   0.0444892260
        0.0028689428  -0.0105323951   0.1458177225  -0.0783696867   0.0541154290
       -0.0478011395  -0.0006788258   0.0024716439  -0.0070220604   0.0517214754
       -0.0856420514  -0.0937461533   0.0244580943   0.0395873736   0.0027516306
       -0.0958047631   0.1026041651  -0.0783696867   0.2413695793   0.0077538646
        0.1645410216  -0.0085275353  -0.0492311180  -0.0434173112  -0.0273341013
       -0.0244886477   0.0037911105  -0.1097031796  -0.0366382641  -0.0465451342
        0.0895575089  -0.1155750101   0.0541154290   0.0077538646   0.2393942352
        0.0469546277  -0.0290396853  -0.1796398731  -0.0748452701  -0.0273307159
        0.0285746084  -0.0030681571  -0.0409409723   0.0272460396  -0.0231566295
       -0.0815479018   0.0668289157  -0.0478011395   0.1645410216   0.0469546277
        0.2332039707  -0.0387260205  -0.0938510769  -0.0326769742  -0.0521663716
       -0.0129632586  -0.1181995005   0.0078992722  -0.0069692080  -0.0345263565
       -0.0149400804   0.0289097271  -0.0006788258  -0.0085275353  -0.0290396853
       -0.0387260205   0.1511280838  -0.1099996686   0.0025777339   0.0197687509
        0.0222168438  -0.0014874336  -0.1474292190   0.0879127830   0.0383145459
        0.0288556429  -0.1123463802   0.0024716439  -0.0492311180  -0.1796398731
       -0.0938510769  -0.1099996686   0.5238404896  -0.0094454692   0.0154625285
       -0.1415978613   0.1206509218   0.1149126152  -0.0902563749  -0.0198260196
       -0.0006231442   0.0022688180  -0.0070220604  -0.0434173112  -0.0748452701
       -0.0326769742   0.0025777339  -0.0094454692   0.1213517614   0.0058219050
        0.0944977279  -0.0987570992   0.0356408165  -0.0124758066   0.0171043724
       -0.0198329388   0.0706949851   0.0517214754  -0.0273341013  -0.0273307159
       -0.0521663716   0.0197687509   0.0154625285   0.0058219050   0.0987717262
       -0.0383893533  -0.0776881956  -0.0713734370  -0.0204374444   0.0723111867
        0.0663885138  -0.1453113470  -0.0856420514  -0.0244886477   0.0285746084
       -0.0129632586   0.0222168438  -0.1415978613   0.0944977279  -0.0383893533
        0.2247298016  -0.0206232757  -0.0257273566   0.0336047982   0.0247308578
        0.0565387478  -0.1030545646  -0.0937461533   0.0037911105  -0.0030681571
       -0.1181995005  -0.0014874336   0.1206509218  -0.0987570992  -0.0776881956
       -0.0206232757   0.3900530733   0.0188457708   0.0060950755  -0.0793503202
       -0.0477923051  -0.0816821778   0.0244580943  -0.1097031796  -0.0409409723
        0.0078992722  -0.1474292190   0.1149126152   0.0356408165  -0.0713734370
       -0.0257273566   0.0188457708   0.3762981407   0.0334378916  -0.0868439537
       -0.0642749661  -0.2138335476   0.0395873736  -0.0366382641   0.0272460396
       -0.0069692080   0.0879127830  -0.0902563749  -0.0124758066  -0.0204374444
        0.0336047982   0.0060950755   0.0334378916   0.2432390847  -0.0262374346
        0.0227633553   0.0444892260   0.0027516306  -0.0465451342  -0.0231566295
       -0.0345263565   0.0383145459  -0.0198260196   0.0171043724   0.0723111867
        0.0247308578  -0.0793503202  -0.0868439537  -0.0262374346   0.0940206737
