5
 energy: -10.893351780460 gnorm: 0.290050584286 xtb: 6.2.2 (9d81278992624c895f80dd42a50cac0aa55982e2)
N        -1.18951100000000    0.42767600000000   -0.73995400000000
C        -0.38691000000000    0.10849600000000    0.44967900000000
C         0.97423800000000   -0.38981100000000    0.01035900000000
C        -1.41424000000000   -0.82207700000000   -0.00003600000000
C         2.01642200000000    0.67571600000000    0.27995200000000
5
 energy: -10.975550995781 gnorm: 0.204498806183 xtb: 6.2.2 (9d81278992624c895f80dd42a50cac0aa55982e2)
N        -1.21126442939121    0.38902088187410   -0.70625724192819
C        -0.36826345071261    0.06587784363555    0.40849899771043
C         0.99493548764742   -0.25987823552942    0.07599139356199
C        -1.43591771500368   -0.79709539972110   -0.03014745959396
C         2.02050910746008    0.60207490974088    0.25191431024973
5
 energy: -10.933588496212 gnorm: 0.781194832036 xtb: 6.2.2 (9d81278992624c895f80dd42a50cac0aa55982e2)
N        -1.28889955875135    0.30536823307279   -0.67205720950716
C        -0.27044176242064    0.00290022045358    0.32243732735833
C         1.07419979568245   -0.08982459359811    0.12714585546894
C        -1.46103535632781   -0.70225050588239   -0.04109801649345
C         1.94617588181735    0.48380664595414    0.26357204317334
5
 energy: -11.020801971652 gnorm: 0.085425344339 xtb: 6.2.2 (9d81278992624c895f80dd42a50cac0aa55982e2)
N        -1.31691072234347    0.31483619974251   -0.69160438585666
C        -0.31576766628855    0.00401919709625    0.33091517043427
C         1.00220007700463   -0.10554148656240    0.11749346104893
C        -1.46746617959703   -0.74179691975665   -0.03810601682846
C         2.09794349122440    0.52848300948029    0.28130177120191
5
 energy: -11.028164234075 gnorm: 0.071907731048 xtb: 6.2.2 (9d81278992624c895f80dd42a50cac0aa55982e2)
N        -1.45220369515748    0.30901691339161   -0.69857537898310
C        -0.32204180268241    0.00626518769397    0.26852196100002
C         1.03997673020464   -0.02017420707248    0.16335981145651
C        -1.47301606850993   -0.76537471820102   -0.03921129861496
C         2.20728383614519    0.47026682418791    0.30590490514152
5
 energy: -11.031124302406 gnorm: 0.054566902326 xtb: 6.2.2 (9d81278992624c895f80dd42a50cac0aa55982e2)
N        -1.49471649463260    0.33652481560254   -0.69952552330324
C        -0.29088352497388   -0.00002532815795    0.23329062957500
C         1.04669039775287   -0.03101513827038    0.20381055161092
C        -1.44682669908435   -0.76778343017383   -0.03744581494157
C         2.18573532093796    0.46229908099961    0.29987015705888
5
 energy: -11.033728603811 gnorm: 0.023601852857 xtb: 6.2.2 (9d81278992624c895f80dd42a50cac0aa55982e2)
N        -1.50421260750814    0.32033628851609   -0.70218021306544
C        -0.27987812737328   -0.03300720681623    0.22072813129673
C         1.03873637138311    0.01798629012521    0.21253635881113
C        -1.45144029210046   -0.74778762132828   -0.03318437535793
C         2.19679365559877    0.44247224950321    0.30210009831550
5
 energy: -11.034570707804 gnorm: 0.014125438216 xtb: 6.2.2 (9d81278992624c895f80dd42a50cac0aa55982e2)
N        -1.51651011225009    0.32240494061729   -0.70640350142807
C        -0.28288613843283   -0.06179090228024    0.20724198503473
C         1.04365913525179    0.05125200700432    0.23151553274095
C        -1.45770940351955   -0.74225666316982   -0.02918760052877
C         2.21344551895068    0.43039061782846    0.29683358418116
5
 energy: -11.034917358617 gnorm: 0.018136542814 xtb: 6.2.2 (9d81278992624c895f80dd42a50cac0aa55982e2)
N        -1.53689940473999    0.30762493713936   -0.72215875526049
C        -0.27139206513989   -0.07941107231703    0.17073125716297
C         1.04323188102733    0.10281259302539    0.19723858400364
C        -1.46532536078784   -0.73479596568627    0.01424046048374
C         2.23038394964039    0.40376950783855    0.33994845361014
5
 energy: -11.035010922337 gnorm: 0.034467129176 xtb: 6.2.2 (9d81278992624c895f80dd42a50cac0aa55982e2)
N        -1.50838285495800    0.31844820295741   -0.72435144943211
C        -0.26685555838707   -0.12236702399219    0.16709755582648
C         1.04600234693873    0.10824651294931    0.21196295154831
C        -1.48517321056368   -0.72146148915210    0.02121319403566
C         2.21440827697003    0.41713379723758    0.32407774802166
5
 energy: -11.035255817183 gnorm: 0.009800403125 xtb: 6.2.2 (9d81278992624c895f80dd42a50cac0aa55982e2)
N        -1.50917038756007    0.31697234736703   -0.72024066700366
C        -0.27152766342176   -0.11293094038898    0.17068201745393
C         1.03586136575848    0.11010700452045    0.21575949017606
C        -1.47296763700348   -0.72590816437234    0.01390353005460
C         2.21780332222682    0.41175975287384    0.31989562931908
5
 energy: -11.035355359081 gnorm: 0.005737778155 xtb: 6.2.2 (9d81278992624c895f80dd42a50cac0aa55982e2)
N        -1.51341141696703    0.31180237758997   -0.72057310272686
C        -0.26640489547961   -0.11376562627464    0.15942044658120
C         1.03854769225469    0.11435924728052    0.20543251728099
C        -1.48129707302780   -0.72404573706619    0.02325764757955
C         2.22256469321975    0.41164973847034    0.33246249128511
5
 energy: -11.035451163901 gnorm: 0.006616197600 xtb: 6.2.2 (9d81278992624c895f80dd42a50cac0aa55982e2)
N        -1.51426206844120    0.31187364276197   -0.71999171599641
C        -0.26156758596447   -0.12464597729043    0.14462654200112
C         1.03866808692000    0.12115479548427    0.20505127609376
C        -1.48631972344563   -0.71997170440649    0.03230128696523
C         2.22348029093131    0.41158924345067    0.33801261093631
5
 energy: -11.035643945485 gnorm: 0.007644004925 xtb: 6.2.2 (9d81278992624c895f80dd42a50cac0aa55982e2)
N        -1.51708942602627    0.31485674523041   -0.71471610325514
C        -0.24856418314250   -0.15578619809788    0.09924344596869
C         1.03742254576034    0.13627430760420    0.21070148603739
C        -1.49610121318879   -0.70824917485981    0.05506764259206
C         2.22433127659722    0.41290432012308    0.34970352865699
5
 energy: -11.035717279340 gnorm: 0.004120083375 xtb: 6.2.2 (9d81278992624c895f80dd42a50cac0aa55982e2)
N        -1.51827134237958    0.31860688580302   -0.70891320279701
C        -0.24431138685443   -0.16467452178175    0.08052697170535
C         1.03558294873153    0.13460085136161    0.21810208714398
C        -1.49495388577804   -0.70447137049446    0.05989570227140
C         2.22195266628052    0.41593815511159    0.35038844167628
5
 energy: -11.035773973929 gnorm: 0.002874084114 xtb: 6.2.2 (9d81278992624c895f80dd42a50cac0aa55982e2)
N        -1.52255462112737    0.32476253666572   -0.70029760498363
C        -0.24005936779356   -0.17289822075726    0.05773322280720
C         1.03600797221801    0.12689465637829    0.23039984852825
C        -1.49380702923034   -0.70109564263721    0.06271989536472
C         2.22041204593326    0.42233667035046    0.34944463828345
5
 energy: -11.035806767249 gnorm: 0.005369284146 xtb: 6.2.2 (9d81278992624c895f80dd42a50cac0aa55982e2)
N        -1.52509343746095    0.33279596199690   -0.69057226034517
C        -0.23705229883636   -0.17499549424667    0.04046378730871
C         1.03752216153021    0.10864755382601    0.24311261951772
C        -1.49173631817438   -0.69990243059407    0.06125212949438
C         2.21635889294148    0.43345440901783    0.34574372402436
5
 energy: -11.035821086370 gnorm: 0.003466395449 xtb: 6.2.2 (9d81278992624c895f80dd42a50cac0aa55982e2)
N        -1.52458348163404    0.33413907629812   -0.69022446521623
C        -0.23706167421347   -0.17533123884709    0.04020981994521
C         1.03864697837578    0.10505972028190    0.24393950995903
C        -1.49326015737194   -0.70011304517139    0.06096993099849
C         2.21625733484367    0.43624548743844    0.34510520431350
5
 energy: -11.035843773625 gnorm: 0.001858324878 xtb: 6.2.2 (9d81278992624c895f80dd42a50cac0aa55982e2)
N        -1.51854737053069    0.33756788177338   -0.69212224035341
C        -0.24129267213793   -0.17012832226998    0.05678771087625
C         1.04097847889066    0.09207614303454    0.24551125778796
C        -1.49566879431059   -0.70360847914261    0.05264280959372
C         2.21452935808855    0.44409277660467    0.33718046209548
5
 energy: -11.035848502525 gnorm: 0.002165218377 xtb: 6.2.2 (9d81278992624c895f80dd42a50cac0aa55982e2)
N        -1.51734138438895    0.33728383989777   -0.69433320468794
C        -0.24156160884494   -0.17188808698329    0.06179856886810
C         1.04100411824325    0.09372249908164    0.24560262946227
C        -1.49666502373489   -0.70299464058091    0.05146339882515
C         2.21456289872553    0.44387638858479    0.33546860753242
5
 energy: -11.035853288489 gnorm: 0.001491506731 xtb: 6.2.2 (9d81278992624c895f80dd42a50cac0aa55982e2)
N        -1.51618975072066    0.33917878143259   -0.69400375735152
C        -0.24075357229121   -0.17531858726965    0.06209283756437
C         1.04106609545000    0.09049423241672    0.24924442763711
C        -1.49742916490622   -0.70147903741762    0.05008796034703
C         2.21330539246809    0.44712461083795    0.33257853180301
5
 energy: -11.035822813494 gnorm: 0.002259038497 xtb: 6.2.2 (9d81278992624c895f80dd42a50cac0aa55982e2)
N        -1.51584325377311    0.34002814989655   -0.69339526389971
C        -0.23914699443504   -0.17999538491623    0.05706033739419
C         1.04589514437132    0.07693920464080    0.23205355820812
C        -1.50007364346719   -0.69503252617526    0.05835536378620
C         2.20916774730402    0.45806055655414    0.34592600451120
5
 energy: -11.035853514239 gnorm: 0.000720563696 xtb: 6.2.2 (9d81278992624c895f80dd42a50cac0aa55982e2)
N        -1.51580710744131    0.33975791308820   -0.69364625233400
C        -0.23976357412627   -0.17835546947087    0.05926931479062
C         1.04306097123560    0.08404239049817    0.24133175987980
C        -1.49867369934123   -0.69803082504479    0.05422368741078
C         2.21118240967321    0.45258599092929    0.33882149025279
5
 energy: -11.035856823138 gnorm: 0.000474129374 xtb: 6.2.2 (9d81278992624c895f80dd42a50cac0aa55982e2)
N        -1.51570019053268    0.33977983234587   -0.69382116824369
C        -0.23999656462138   -0.17812537526846    0.06044668282775
C         1.04102017201610    0.08916186721397    0.24834852882831
C        -1.49807481114446   -0.69986902503752    0.05141657087200
C         2.21275039428242    0.44905270074613    0.33360938571562
