      -----------------------------------------------------------      
     |                   =====================                   |     
     |                           x T B                           |     
     |                   =====================                   |     
     |                         S. Grimme                         |     
     |          Mulliken Center for Theoretical Chemistry        |     
     |                    University of Bonn                     |     
      -----------------------------------------------------------      

   * xtb version 6.2.2 (9d81278992624c895f80dd42a50cac0aa55982e2) compiled by '@Darwin' on 04/03/2020

   xtb is free software: you can redistribute it and/or modify it under
   the terms of the GNU Lesser General Public License as published by
   the Free Software Foundation, either version 3 of the License, or
   (at your option) any later version.
   
   xtb is distributed in the hope that it will be useful,
   but WITHOUT ANY WARRANTY; without even the implied warranty of
   MERCHANTABILITY or FITNESS FOR A PARTICULAR PURPOSE.  See the
   GNU Lesser General Public License for more details.
   
   Cite this work as:
   * S. Grimme, C. Bannwarth, P. Shushkov, J. Chem. Theory Comput., 2017,
     13, 1989-2009. DOI: 10.1021/acs.jctc.7b00118
   * C. Bannwarth, S. Ehlert and S. Grimme., J. Chem. Theory Comput., 2019,
     15, 1652-1671. DOI: 10.1021/acs.jctc.8b01176
   * P. Pracht, E. Caldeweyher, S. Ehlert, S. Grimme, ChemRxiv, 2019, preprint.
     DOI: 10.26434/chemrxiv.8326202.v1
   
   for DFT-D4:
   * E. Caldeweyher, C. Bannwarth and S. Grimme, J. Chem. Phys., 2017,
     147, 034112. DOI: 10.1063/1.4993215
   * E. Caldeweyher, S. Ehlert, A. Hansen, H. Neugebauer, S. Spicher,
     C. Bannwarth and S. Grimme, J. Chem. Phys., 2019, 150, 154122.
     DOI: 10.1063/1.5090222
   
   for sTDA-xTB:
   * S. Grimme and C. Bannwarth, J. Chem. Phys., 2016, 145, 054103.
     DOI: 10.1063/1.4959605
   
   in the mass-spec context:
   * V. Asgeirsson, C. Bauer and S. Grimme, Chem. Sci., 2017, 8, 4879.
     DOI: 10.1039/c7sc00601b
   
   for metadynamics refer to:
   * S. Grimme, J. Chem. Theory Comput., 2019, 155, 2847-2862
     DOI: 10.1021/acs.jctc.9b00143
   
   with help from (in alphabetical order)
   C. Bannwarth, F. Bohle, G. Brandenburg, E. Caldeweyher, M. Checinski,
   S. Dohm, S. Ehlert, S. Ehrlich, F. März, H. Neugebauer, J. Pisarek,
   P. Pracht, P. Shushkov, and S. Spicher.
   
 * started run on 2020/05/12 at 11:44:06.319     

           -------------------------------------------------
          |                Calculation Setup                |
           -------------------------------------------------

          program call               : xtb --input C4N1_19_S_3.input C4N1_19_S_3.xyz --ohess --molden --namespace C4N1_19_S_3 output.out
          calculation namespace      : C4N1_19_S_3
          coordinate file            : C4N1_19_S_3.xyz
          number of atoms            :                     5
          number of electrons        :                    21
          charge                     :                     0
          spin                       :                   1.5
          first test random number   :      0.34753545208882

   ID    Z sym.   atoms
    1    7 N      1
    2    6 C      2-5

           -------------------------------------------------
          |                 G F N 2 - x T B                 |
           -------------------------------------------------

        Reference                      10.1021/acs.jctc.8b01176
      * Hamiltonian:
        H0-scaling (s, p, d)           1.850000    2.230000    2.230000
        zeta-weighting                 0.500000
      * Dispersion:
        s8                             2.700000
        a1                             0.520000
        a2                             5.000000
        s9                             5.000000
      * Repulsion:
        kExp                           1.500000    1.000000
        rExp                           1.000000
      * Coulomb:
        alpha                          2.000000
        third order                    shell-resolved
        anisotropic                    true
        a3                             3.000000
        a5                             4.000000
        cn-shift                       1.200000
        cn-exp                         4.000000
        max-rad                        5.000000


          ...................................................
          :                      SETUP                      :
          :.................................................:
          :  # basis functions                  20          :
          :  # atomic orbitals                  20          :
          :  # shells                           10          :
          :  # electrons                        21          :
          :  max. iterations                   250          :
          :  Hamiltonian                  GFN2-xTB          :
          :  restarted?                      false          :
          :  GBSA solvation                  false          :
          :  PC potential                    false          :
          :  electronic temp.          300.0000000     K    :
          :  accuracy                    1.0000000          :
          :  -> integral cutoff          0.2500000E+02      :
          :  -> integral neglect         0.1000000E-07      :
          :  -> SCF convergence          0.1000000E-05 Eh   :
          :  -> wf. convergence          0.1000000E-03 e    :
          :  Broyden damping             0.4000000          :
          ...................................................

 iter      E             dE          RMSdq      gap      omega  full diag
   1    -10.8419183 -0.108419E+02  0.101E+01    1.35       0.0  T
   2     -9.6704497  0.117147E+01  0.110E+01    1.29       1.0  T
   3     -8.6681942  0.100226E+01  0.127E+01    0.74       1.0  T
   4    -10.8163469 -0.214815E+01  0.502E+00    1.15       1.0  T
   5    -10.8432211 -0.268742E-01  0.425E+00    0.80       1.0  T
   6    -10.9331391 -0.899180E-01  0.267E+00    0.98       1.0  T
   7    -10.9387540 -0.561494E-02  0.245E+00    1.01       1.0  T
   8    -10.9507437 -0.119897E-01  0.199E+00    1.08       1.0  T
   9    -10.9590478 -0.830407E-02  0.145E+00    1.06       1.0  T
  10    -10.9628350 -0.378722E-02  0.491E-01    1.08       1.0  T
  11    -10.9639795 -0.114452E-02  0.259E-01    1.08       1.0  T
  12    -10.9642909 -0.311388E-03  0.115E-01    1.08       1.0  T
  13    -10.9642566  0.343379E-04  0.114E-01    1.08       1.0  T
  14    -10.9643472 -0.906649E-04  0.275E-02    1.08       1.6  T
  15    -10.9643518 -0.457737E-05  0.148E-02    1.08       3.0  T
  16    -10.9643537 -0.191616E-05  0.252E-03    1.08      17.8  T
  17    -10.9643537 -0.244593E-07  0.867E-04    1.08      51.6  T
  18    -10.9643537 -0.175596E-08  0.391E-04    1.08     114.2  T

   *** convergence criteria satisfied after 18 iterations ***

         #    Occupation            Energy/Eh            Energy/eV
      -------------------------------------------------------------
         1        2.0000           -0.7397571             -20.1298
       ...           ...                  ...                  ...
         6        2.0000           -0.5338900             -14.5279
         7        2.0000           -0.5207851             -14.1713
         8        2.0000           -0.4949604             -13.4686
         9        1.9983           -0.4752155             -12.9313
        10        1.0017           -0.4630876             -12.6013
        11        1.0000           -0.4463054             -12.1446
        12        1.0000           -0.4099662             -11.1557 (HOMO)
        13                         -0.3703256             -10.0771 (LUMO)
        14                         -0.3583199              -9.7504
        15                         -0.3338454              -9.0844
        16                         -0.1377419              -3.7481
        17                          0.0188415               0.5127
       ...                                ...                  ...
        20                          0.2066538               5.6233
      -------------------------------------------------------------
                  HL-Gap            0.0396406 Eh            1.0787 eV
             Fermi-level           -0.4296487 Eh          -11.6913 eV

 SCC (total)                   0 d,  0 h,  0 min,  0.005 sec
 SCC setup                      ...        0 min,  0.000 sec (  1.675%)
 Dispersion                     ...        0 min,  0.000 sec (  0.453%)
 integral evaluation            ...        0 min,  0.001 sec ( 29.340%)
 zeroth order Hamiltonian       ...        0 min,  0.000 sec (  0.414%)
 iterations                     ...        0 min,  0.002 sec ( 39.857%)
 molecular gradient             ...        0 min,  0.001 sec ( 26.138%)
 printout                       ...        0 min,  0.000 sec (  1.921%)

         :::::::::::::::::::::::::::::::::::::::::::::::::::::
         ::                     SUMMARY                     ::
         :::::::::::::::::::::::::::::::::::::::::::::::::::::
         :: total energy             -10.893351780263 Eh    ::
         :: gradient norm              0.290049684674 Eh/a0 ::
         :: HOMO-LUMO gap              1.078676533610 eV    ::
         ::.................................................::
         :: SCC energy               -10.964353735453 Eh    ::
         :: -> isotropic ES           -0.015078144222 Eh    ::
         :: -> anisotropic ES          0.000998172672 Eh    ::
         :: -> anisotropic XC          0.011348072561 Eh    ::
         :: -> dispersion             -0.002873181845 Eh    ::
         :: repulsion energy           0.071001938383 Eh    ::
         :: add. restraining           0.000000000000 Eh    ::
         :::::::::::::::::::::::::::::::::::::::::::::::::::::

      ----------------------------------------------------------- 
     |                   =====================                   |
     |                        A N C O P T                        |
     |                   =====================                   |
     |               Approximate Normal Coordinate               |
     |                Rational Function Optimizer                |
      ----------------------------------------------------------- 

          ...................................................
          :                      SETUP                      :
          :.................................................:
          :   optimization level            normal          :
          :   max. optcycles                   200          :
          :   ANC micro-cycles                  20          :
          :   degrees of freedom                 9          :
          :.................................................:
          :   RF solver                   davidson          :
          :   write xtbopt.log                true          :
          :   linear?                        false          :
          :   energy convergence         0.5000000E-05 Eh   :
          :   grad. convergence          0.1000000E-02 Eh/α :
          :   maximium RF displ.         1.0000000          :
          :   Hlow (freq-cutoff)         0.1000000E-01      :
          :   Hmax (freq-cutoff)         5.0000000          :
          :   S6 in model hess.         20.0000000          :
          ...................................................

generating ANC from model Hessian ...
Using Lindh-Hessian (1995)
 Shifting diagonal of input Hessian by    0.0000000000000000     
 Lowest  eigenvalues of input Hessian
   -0.000000   -0.000000   -0.000000    0.000000    0.000000    0.000000
    0.010168    0.039697    0.076772    0.102079    0.690611    0.817519
    0.833136    0.977733    1.465446
 Highest eigenvalues
    0.102079    0.690611    0.817519    0.833136    0.977733    1.465446


........................................................................
.............................. CYCLE    1 ..............................
........................................................................
   1    -10.9643537 -0.109644E+02  0.155E-04    1.08       0.0  T
   2    -10.9643537  0.181685E-08  0.367E-04    1.08     122.0  T
   3    -10.9643537 -0.133419E-08  0.231E-04    1.08     193.7  T
     SCC iter.                  ...        0 min,  0.001 sec
     gradient                   ...        0 min,  0.001 sec
 * total energy  :   -10.8933518 Eh     change       -0.1969180E-09 Eh
   gradient norm :     0.2900506 Eh/α   predicted     0.0000000E+00 (-100.00%)
   displ. norm   :     0.3625504 α      lambda       -0.9472793E-01
   maximum displ.:     0.2215336 α      in ANC's #6, #5, #3, ...

........................................................................
.............................. CYCLE    2 ..............................
........................................................................
   1    -11.0144278 -0.110144E+02  0.365E+00    1.67       0.0  T
   2     -9.6381692  0.137626E+01  0.102E+01    0.51       1.0  T
   3    -11.0968214 -0.145865E+01  0.142E+00    1.47       1.0  T
   4    -11.0572830  0.395383E-01  0.207E+00    1.61       1.0  T
   5    -11.0938954 -0.366124E-01  0.107E+00    1.43       1.0  T
   6    -11.0971407 -0.324523E-02  0.744E-01    1.43       1.0  T
   7    -11.0976364 -0.495715E-03  0.569E-01    1.41       1.0  T
   8    -11.0981004 -0.463991E-03  0.324E-01    1.43       1.0  T
   9    -11.0982624 -0.162061E-03  0.175E-01    1.42       1.0  T
  10    -11.0983131 -0.506347E-04  0.905E-02    1.43       1.0  T
  11    -11.0983429 -0.298818E-04  0.138E-02    1.43       3.2  T
  12    -11.0983434 -0.476874E-06  0.149E-02    1.43       3.0  T
  13    -11.0983441 -0.700117E-06  0.177E-03    1.43      25.3  T
  14    -11.0983441 -0.206083E-08  0.114E-03    1.43      39.4  T
  15    -11.0983441 -0.442181E-09  0.610E-04    1.43      73.4  T
  16    -11.0983441 -0.133294E-08  0.823E-05    1.43     543.1  T
     SCC iter.                  ...        0 min,  0.002 sec
     gradient                   ...        0 min,  0.001 sec
 * total energy  :   -10.9755510 Eh     change       -0.8219922E-01 Eh
   gradient norm :     0.2044786 Eh/α   predicted    -0.5358962E-01 ( -34.81%)
   displ. norm   :     0.6045630 α      lambda       -0.1176073E+00
   maximum displ.:     0.4658388 α      in ANC's #6, #5, #4, ...

........................................................................
.............................. CYCLE    3 ..............................
........................................................................
   1    -11.2985825 -0.112986E+02  0.461E+00    2.95       0.0  T
   2    -11.1500939  0.148489E+00  0.449E+00    1.18       1.0  T
   3    -11.2729844 -0.122891E+00  0.322E+00    2.83       1.0  T
   4    -11.3453046 -0.723202E-01  0.140E+00    2.45       1.0  T
   5    -11.3508920 -0.558732E-02  0.873E-01    2.46       1.0  T
   6    -11.3500707  0.821238E-03  0.664E-01    2.52       1.0  T
   7    -11.3509012 -0.830511E-03  0.268E-01    2.41       1.0  T
   8    -11.3511853 -0.284075E-03  0.706E-02    2.42       1.0  T
   9    -11.3511836  0.173380E-05  0.582E-02    2.42       1.0  T
  10    -11.3511881 -0.449004E-05  0.170E-02    2.42       2.6  T
  11    -11.3511882 -0.139957E-06  0.124E-02    2.43       3.6  T
  12    -11.3511887 -0.519723E-06  0.170E-03    2.43      26.3  T
  13    -11.3511887 -0.104728E-07  0.447E-04    2.43     100.0  T
  14    -11.3511887 -0.286915E-09  0.156E-04    2.43     286.0  T
     SCC iter.                  ...        0 min,  0.001 sec
     gradient                   ...        0 min,  0.002 sec
 * total energy  :   -10.9335885 Eh     change        0.4196250E-01 Eh
   gradient norm :     0.7791213 Eh/α   predicted    -0.8029618E-01 (-291.35%)
   displ. norm   :     0.3578825 α      lambda       -0.2460254E+00
   maximum displ.:     0.2131514 α      in ANC's #6, #2, #3, ...

........................................................................
.............................. CYCLE    4 ..............................
........................................................................
   1    -11.2196891 -0.112197E+02  0.186E+00    1.95       0.0  T
   2    -11.0800335  0.139656E+00  0.363E+00    2.38       1.0  T
   3    -11.1700308 -0.899974E-01  0.230E+00    1.81       1.0  T
   4    -11.2209925 -0.509616E-01  0.910E-01    2.02       1.0  T
   5    -11.2140601  0.693233E-02  0.978E-01    1.97       1.0  T
   6    -11.2194003 -0.534019E-02  0.661E-01    2.03       1.0  T
   7    -11.2200104 -0.610084E-03  0.603E-01    2.03       1.0  T
   8    -11.2219646 -0.195419E-02  0.353E-01    2.05       1.0  T
   9    -11.2223755 -0.410880E-03  0.224E-01    2.06       1.0  T
  10    -11.2224782 -0.102702E-03  0.869E-02    2.05       1.0  T
  11    -11.2224826 -0.445762E-05  0.405E-02    2.06       1.1  T
  12    -11.2224911 -0.849304E-05  0.282E-02    2.06       1.6  T
  13    -11.2224930 -0.185200E-05  0.101E-03    2.06      44.4  T
  14    -11.2224930 -0.282257E-08  0.434E-04    2.06     103.0  T
  15    -11.2224930 -0.745169E-09  0.129E-04    2.06     346.6  T
     SCC iter.                  ...        0 min,  0.001 sec
     gradient                   ...        0 min,  0.001 sec
 * total energy  :   -11.0208020 Eh     change       -0.8721348E-01 Eh
   gradient norm :     0.0851973 Eh/α   predicted    -0.1387681E+00 (  59.11%)
   displ. norm   :     0.4212013 α      lambda       -0.1385444E-01
   maximum displ.:     0.2715488 α      in ANC's #2, #1, #4, ...

........................................................................
.............................. CYCLE    5 ..............................
........................................................................
   1    -11.2138240 -0.112138E+02  0.149E+00    2.13       0.0  T
   2    -11.1504957  0.633283E-01  0.233E+00    1.71       1.0  T
   3    -11.0783039  0.721918E-01  0.358E+00    2.27       1.0  T
   4    -11.2098646 -0.131561E+00  0.106E+00    2.18       1.0  T
   5    -11.2127825 -0.291790E-02  0.790E-01    2.04       1.0  T
   6    -11.2122045  0.578057E-03  0.801E-01    2.03       1.0  T
   7    -11.2121098  0.946468E-04  0.811E-01    2.03       1.0  T
   8    -11.2170209 -0.491105E-02  0.330E-01    2.07       1.0  T
   9    -11.2170566 -0.357016E-04  0.321E-01    2.07       1.0  T
  10    -11.2169895  0.670312E-04  0.263E-01    2.06       1.0  T
  11    -11.2170815 -0.919322E-04  0.227E-01    2.06       1.0  T
  12    -11.2172707 -0.189182E-03  0.142E-01    2.06       1.0  T
  13    -11.2173469 -0.762240E-04  0.573E-02    2.06       1.0  T
  14    -11.2173596 -0.127195E-04  0.173E-02    2.07       2.6  T
  15    -11.2173602 -0.631469E-06  0.310E-03    2.06      14.4  T
  16    -11.2173603 -0.305774E-07  0.102E-03    2.06      44.0  T
  17    -11.2173603 -0.135135E-08  0.415E-04    2.06     107.8  T
  18    -11.2173603 -0.953660E-09  0.125E-04    2.06     357.8  T
     SCC iter.                  ...        0 min,  0.001 sec
     gradient                   ...        0 min,  0.001 sec
 * total energy  :   -11.0281642 Eh     change       -0.7362262E-02 Eh
   gradient norm :     0.0716508 Eh/α   predicted    -0.8156206E-02 (  10.78%)
   displ. norm   :     0.1676911 α      lambda       -0.6411294E-02
   maximum displ.:     0.1135312 α      in ANC's #3, #4, #5, ...

........................................................................
.............................. CYCLE    6 ..............................
........................................................................
   1    -11.2321187 -0.112321E+02  0.845E-01    1.97       0.0  T
   2    -11.1891723  0.429464E-01  0.216E+00    2.11       1.0  T
   3    -11.2327786 -0.436063E-01  0.472E-01    1.99       1.0  T
   4    -11.2282275  0.455111E-02  0.692E-01    2.03       1.0  T
   5    -11.2329201 -0.469263E-02  0.154E-01    1.98       1.0  T
   6    -11.2330252 -0.105066E-03  0.104E-01    2.00       1.0  T
   7    -11.2330754 -0.502485E-04  0.768E-02    1.99       1.0  T
   8    -11.2331173 -0.419037E-04  0.323E-02    2.00       1.4  T
   9    -11.2331169  0.424371E-06  0.276E-02    1.99       1.6  T
  10    -11.2331214 -0.448275E-05  0.111E-02    2.00       4.0  T
  11    -11.2331217 -0.377723E-06  0.594E-03    2.00       7.5  T
  12    -11.2331219 -0.183524E-06  0.125E-03    2.00      35.8  T
  13    -11.2331219 -0.791161E-08  0.315E-04    2.00     142.1  T
  14    -11.2331219 -0.354659E-09  0.227E-05    2.00    1967.9  T
     SCC iter.                  ...        0 min,  0.001 sec
     gradient                   ...        0 min,  0.001 sec
 * total energy  :   -11.0311243 Eh     change       -0.2960068E-02 Eh
   gradient norm :     0.0544450 Eh/α   predicted    -0.3295794E-02 (  11.34%)
   displ. norm   :     0.1366132 α      lambda       -0.4392540E-02
   maximum displ.:     0.0747041 α      in ANC's #5, #6, #3, ...

........................................................................
.............................. CYCLE    7 ..............................
........................................................................
   1    -11.2570621 -0.112571E+02  0.640E-01    2.25       0.0  T
   2    -11.2563176  0.744402E-03  0.487E-01    2.24       1.0  T
   3    -11.2038164  0.525012E-01  0.225E+00    2.36       1.0  T
   4    -11.2568197 -0.530033E-01  0.199E-01    2.23       1.0  T
   5    -11.2570863 -0.266568E-03  0.101E-01    2.25       1.0  T
   6    -11.2570444  0.419055E-04  0.108E-01    2.24       1.0  T
   7    -11.2570790 -0.346023E-04  0.726E-02    2.24       1.0  T
   8    -11.2571118 -0.328277E-04  0.370E-02    2.24       1.2  T
   9    -11.2571161 -0.429410E-05  0.251E-02    2.24       1.8  T
  10    -11.2571200 -0.389557E-05  0.922E-03    2.24       4.9  T
  11    -11.2571203 -0.274265E-06  0.350E-03    2.24      12.8  T
  12    -11.2571203 -0.437552E-07  0.235E-04    2.24     190.6  T
  13    -11.2571203 -0.358975E-09  0.113E-04    2.24     394.0  T
     SCC iter.                  ...        0 min,  0.001 sec
     gradient                   ...        0 min,  0.001 sec
 * total energy  :   -11.0337286 Eh     change       -0.2604301E-02 Eh
   gradient norm :     0.0233707 Eh/α   predicted    -0.2237260E-02 ( -14.09%)
   displ. norm   :     0.1072438 α      lambda       -0.1329985E-02
   maximum displ.:     0.0597510 α      in ANC's #5, #3, #4, ...

........................................................................
.............................. CYCLE    8 ..............................
........................................................................
   1    -11.2593000 -0.112593E+02  0.550E-01    2.30       0.0  T
   2    -11.2080318  0.512682E-01  0.228E+00    2.41       1.0  T
   3    -11.2580163 -0.499845E-01  0.514E-01    2.29       1.0  T
   4    -11.2598479 -0.183163E-02  0.260E-01    2.33       1.0  T
   5    -11.2597117  0.136237E-03  0.230E-01    2.30       1.0  T
   6    -11.2597583 -0.465962E-04  0.208E-01    2.31       1.0  T
   7    -11.2599946 -0.236306E-03  0.113E-01    2.31       1.0  T
   8    -11.2600663 -0.717317E-04  0.530E-02    2.32       1.0  T
   9    -11.2600766 -0.102976E-04  0.280E-02    2.32       1.6  T
  10    -11.2600729  0.372139E-05  0.287E-02    2.32       1.6  T
  11    -11.2600779 -0.499181E-05  0.392E-03    2.32      11.4  T
  12    -11.2600779 -0.830519E-07  0.170E-03    2.32      26.3  T
  13    -11.2600780 -0.132756E-07  0.933E-05    2.32     479.3  T
  14    -11.2600780 -0.566853E-10  0.986E-06    2.32    4537.8  T
     SCC iter.                  ...        0 min,  0.001 sec
     gradient                   ...        0 min,  0.001 sec
 * total energy  :   -11.0345707 Eh     change       -0.8421040E-03 Eh
   gradient norm :     0.0141019 Eh/α   predicted    -0.6726403E-03 ( -20.12%)
   displ. norm   :     0.2012869 α      lambda       -0.9705180E-03
   maximum displ.:     0.1712555 α      in ANC's #1, #5, #3, ...

........................................................................
.............................. CYCLE    9 ..............................
........................................................................
   1    -11.2541210 -0.112541E+02  0.101E+00    2.26       0.0  T
   2    -10.9978110  0.256310E+00  0.522E+00    2.51       1.0  T
   3    -11.2564692 -0.258658E+00  0.588E-01    2.33       1.0  T
   4    -11.2542105  0.225872E-02  0.649E-01    2.22       1.0  T
   5    -11.2564098 -0.219929E-02  0.387E-01    2.31       1.0  T
   6    -11.2566000 -0.190184E-03  0.340E-01    2.30       1.0  T
   7    -11.2571612 -0.561262E-03  0.253E-01    2.31       1.0  T
   8    -11.2571682 -0.692635E-05  0.246E-01    2.31       1.0  T
   9    -11.2573090 -0.140824E-03  0.206E-01    2.31       1.0  T
  10    -11.2575051 -0.196138E-03  0.106E-01    2.31       1.0  T
  11    -11.2575423 -0.372183E-04  0.634E-02    2.31       1.0  T
  12    -11.2575607 -0.183515E-04  0.105E-02    2.31       4.3  T
  13    -11.2575611 -0.428094E-06  0.142E-03    2.31      31.6  T
  14    -11.2575611  0.106719E-07  0.177E-03    2.31      25.2  T
  15    -11.2575611 -0.162228E-07  0.292E-04    2.31     153.2  T
  16    -11.2575611 -0.528068E-09  0.400E-05    2.31    1117.9  T
     SCC iter.                  ...        0 min,  0.001 sec
     gradient                   ...        0 min,  0.001 sec
 * total energy  :   -11.0349174 Eh     change       -0.3466508E-03 Eh
   gradient norm :     0.0179906 Eh/α   predicted    -0.5049210E-03 (  45.66%)
   displ. norm   :     0.1249825 α      lambda       -0.8227003E-03
   maximum displ.:     0.0717923 α      in ANC's #1, #2, #5, ...

........................................................................
.............................. CYCLE   10 ..............................
........................................................................
   1    -11.2677513 -0.112678E+02  0.515E-01    2.30       0.0  T
   2    -11.2099129  0.578384E-01  0.251E+00    2.35       1.0  T
   3    -11.2670209 -0.571080E-01  0.430E-01    2.28       1.0  T
   4    -11.2679631 -0.942244E-03  0.284E-01    2.33       1.0  T
   5    -11.2680885 -0.125376E-03  0.195E-01    2.30       1.0  T
   6    -11.2680838  0.472877E-05  0.178E-01    2.30       1.0  T
   7    -11.2681730 -0.892326E-04  0.143E-01    2.30       1.0  T
   8    -11.2682283 -0.552744E-04  0.113E-01    2.30       1.0  T
   9    -11.2682770 -0.487604E-04  0.780E-02    2.30       1.0  T
  10    -11.2683183 -0.412685E-04  0.157E-02    2.30       2.9  T
  11    -11.2683195 -0.115351E-05  0.820E-03    2.30       5.5  T
  12    -11.2683190  0.490473E-06  0.112E-02    2.30       4.0  T
  13    -11.2683198 -0.830479E-06  0.130E-03    2.30      34.3  T
  14    -11.2683198 -0.102965E-07  0.206E-04    2.30     216.9  T
  15    -11.2683198 -0.273635E-09  0.846E-05    2.30     528.8  T
     SCC iter.                  ...        0 min,  0.001 sec
     gradient                   ...        0 min,  0.001 sec
 * total energy  :   -11.0350109 Eh     change       -0.9356372E-04 Eh
   gradient norm :     0.0339029 Eh/α   predicted    -0.4177779E-03 ( 346.52%)
   displ. norm   :     0.0440839 α      lambda       -0.5565884E-03
   maximum displ.:     0.0332242 α      in ANC's #2, #4, #3, ...

........................................................................
.............................. CYCLE   11 ..............................
........................................................................
   1    -11.2672516 -0.112673E+02  0.222E-01    2.32       0.0  T
   2    -11.2642768  0.297486E-02  0.554E-01    2.28       1.0  T
   3    -11.2674619 -0.318513E-02  0.102E-01    2.32       1.0  T
   4    -11.2674579  0.405625E-05  0.704E-02    2.31       1.0  T
   5    -11.2674577  0.153828E-06  0.382E-02    2.32       1.2  T
   6    -11.2674724 -0.147182E-04  0.587E-03    2.31       7.6  T
   7    -11.2674725 -0.932521E-07  0.430E-03    2.32      10.4  T
   8    -11.2674726 -0.606785E-07  0.169E-03    2.32      26.5  T
   9    -11.2674726 -0.869446E-08  0.955E-04    2.32      46.8  T
  10    -11.2674726 -0.370715E-08  0.507E-04    2.32      88.2  T
     SCC iter.                  ...        0 min,  0.001 sec
     gradient                   ...        0 min,  0.001 sec
 * total energy  :   -11.0352558 Eh     change       -0.2448948E-03 Eh
   gradient norm :     0.0095421 Eh/α   predicted    -0.2788360E-03 (  13.86%)
   displ. norm   :     0.0489687 α      lambda       -0.1763088E-03
   maximum displ.:     0.0402821 α      in ANC's #1, #2, #4, ...

........................................................................
.............................. CYCLE   12 ..............................
........................................................................
   1    -11.2640591 -0.112641E+02  0.205E-01    2.29       0.0  T
   2    -11.2632335  0.825682E-03  0.316E-01    2.26       1.0  T
   3    -11.2632814 -0.479458E-04  0.292E-01    2.30       1.0  T
   4    -11.2639194 -0.638007E-03  0.138E-01    2.28       1.0  T
   5    -11.2640958 -0.176357E-03  0.366E-02    2.28       1.2  T
   6    -11.2640947  0.106034E-05  0.338E-02    2.28       1.3  T
   7    -11.2640978 -0.309176E-05  0.256E-02    2.28       1.7  T
   8    -11.2641026 -0.480645E-05  0.531E-03    2.28       8.4  T
   9    -11.2641028 -0.209278E-06  0.666E-04    2.28      67.1  T
  10    -11.2641028 -0.222082E-08  0.991E-05    2.28     451.3  T
     SCC iter.                  ...        0 min,  0.001 sec
     gradient                   ...        0 min,  0.001 sec
 * total energy  :   -11.0353554 Eh     change       -0.9954190E-04 Eh
   gradient norm :     0.0055704 Eh/α   predicted    -0.8836537E-04 ( -11.23%)
   displ. norm   :     0.0448509 α      lambda       -0.1110450E-03
   maximum displ.:     0.0291543 α      in ANC's #5, #4, #1, ...

........................................................................
.............................. CYCLE   13 ..............................
........................................................................
   1    -11.2641579 -0.112642E+02  0.189E-01    2.26       0.0  T
   2    -11.2624850  0.167291E-02  0.419E-01    2.28       1.0  T
   3    -11.2636935 -0.120852E-02  0.241E-01    2.25       1.0  T
   4    -11.2641496 -0.456101E-03  0.749E-02    2.26       1.0  T
   5    -11.2641694 -0.197712E-04  0.508E-02    2.26       1.0  T
   6    -11.2641710 -0.158568E-05  0.477E-02    2.26       1.0  T
   7    -11.2641836 -0.126226E-04  0.209E-02    2.26       2.1  T
   8    -11.2641859 -0.228737E-05  0.852E-03    2.26       5.2  T
   9    -11.2641863 -0.465678E-06  0.194E-03    2.26      23.0  T
  10    -11.2641864 -0.132643E-07  0.515E-04    2.26      86.9  T
  11    -11.2641864 -0.841592E-09  0.769E-05    2.26     581.4  T
     SCC iter.                  ...        0 min,  0.001 sec
     gradient                   ...        0 min,  0.001 sec
 * total energy  :   -11.0354512 Eh     change       -0.9580482E-04 Eh
   gradient norm :     0.0064987 Eh/α   predicted    -0.5563564E-04 ( -41.93%)
   displ. norm   :     0.1252898 α      lambda       -0.3072537E-03
   maximum displ.:     0.0875033 α      in ANC's #5, #4, #2, ...

........................................................................
.............................. CYCLE   14 ..............................
........................................................................
   1    -11.2645453 -0.112645E+02  0.490E-01    2.22       0.0  T
   2    -11.2604574  0.408795E-02  0.708E-01    2.24       1.0  T
   3    -11.2610504 -0.593047E-03  0.615E-01    2.19       1.0  T
   4    -11.2643242 -0.327376E-02  0.213E-01    2.23       1.0  T
   5    -11.2643342 -0.998895E-05  0.201E-01    2.21       1.0  T
   6    -11.2643959 -0.617317E-04  0.180E-01    2.22       1.0  T
   7    -11.2645467 -0.150814E-03  0.911E-02    2.22       1.0  T
   8    -11.2645985 -0.517862E-04  0.349E-02    2.22       1.3  T
   9    -11.2646054 -0.685244E-05  0.167E-02    2.22       2.7  T
  10    -11.2646063 -0.880795E-06  0.975E-03    2.22       4.6  T
  11    -11.2646067 -0.430347E-06  0.590E-04    2.22      75.8  T
  12    -11.2646067 -0.215623E-08  0.130E-04    2.22     343.4  T
     SCC iter.                  ...        0 min,  0.001 sec
     gradient                   ...        0 min,  0.001 sec
 * total energy  :   -11.0356439 Eh     change       -0.1927816E-03 Eh
   gradient norm :     0.0075990 Eh/α   predicted    -0.1560407E-03 ( -19.06%)
   displ. norm   :     0.0467382 α      lambda       -0.1001776E-03
   maximum displ.:     0.0304791 α      in ANC's #5, #4, #9, ...

........................................................................
.............................. CYCLE   15 ..............................
........................................................................
   1    -11.2663727 -0.112664E+02  0.202E-01    2.21       0.0  T
   2    -11.2653286  0.104413E-02  0.319E-01    2.20       1.0  T
   3    -11.2647250  0.603541E-03  0.424E-01    2.23       1.0  T
   4    -11.2663802 -0.165522E-02  0.658E-02    2.22       1.0  T
   5    -11.2663828 -0.261280E-05  0.628E-02    2.21       1.0  T
   6    -11.2663928 -0.100017E-04  0.530E-02    2.21       1.0  T
   7    -11.2664113 -0.184491E-04  0.737E-03    2.21       6.1  T
   8    -11.2664114 -0.712034E-07  0.612E-03    2.21       7.3  T
   9    -11.2664115 -0.148615E-06  0.329E-03    2.21      13.6  T
  10    -11.2664116 -0.449997E-07  0.578E-04    2.21      77.3  T
  11    -11.2664116 -0.289825E-08  0.367E-04    2.21     121.7  T
     SCC iter.                  ...        0 min,  0.001 sec
     gradient                   ...        0 min,  0.001 sec
 * total energy  :   -11.0357173 Eh     change       -0.7333385E-04 Eh
   gradient norm :     0.0040619 Eh/α   predicted    -0.5019887E-04 ( -31.55%)
   displ. norm   :     0.0600988 α      lambda       -0.8032213E-04
   maximum displ.:     0.0384704 α      in ANC's #4, #5, #3, ...

........................................................................
.............................. CYCLE   16 ..............................
........................................................................
   1    -11.2669497 -0.112669E+02  0.327E-01    2.21       0.0  T
   2    -11.2626265  0.432319E-02  0.628E-01    2.16       1.0  T
   3    -11.2641202 -0.149364E-02  0.581E-01    2.23       1.0  T
   4    -11.2671450 -0.302479E-02  0.129E-01    2.21       1.0  T
   5    -11.2670290  0.116015E-03  0.153E-01    2.19       1.0  T
   6    -11.2670750 -0.460059E-04  0.133E-01    2.20       1.0  T
   7    -11.2671490 -0.739962E-04  0.788E-02    2.20       1.0  T
   8    -11.2671815 -0.325244E-04  0.398E-02    2.20       1.1  T
   9    -11.2671897 -0.823768E-05  0.216E-02    2.20       2.1  T
  10    -11.2671921 -0.236373E-05  0.478E-03    2.20       9.4  T
  11    -11.2671921 -0.547933E-07  0.224E-03    2.20      20.0  T
  12    -11.2671922 -0.329982E-07  0.142E-04    2.20     315.9  T
  13    -11.2671922  0.339606E-09  0.228E-04    2.20     195.9  T
     SCC iter.                  ...        0 min,  0.002 sec
     gradient                   ...        0 min,  0.001 sec
 * total energy  :   -11.0357740 Eh     change       -0.5669459E-04 Eh
   gradient norm :     0.0028240 Eh/α   predicted    -0.4030610E-04 ( -28.91%)
   displ. norm   :     0.0636840 α      lambda       -0.6065714E-04
   maximum displ.:     0.0350334 α      in ANC's #4, #3, #1, ...

........................................................................
.............................. CYCLE   17 ..............................
........................................................................
   1    -11.2669498 -0.112669E+02  0.434E-01    2.19       0.0  T
   2    -11.2565021  0.104476E-01  0.983E-01    2.10       1.0  T
   3    -11.2659709 -0.946876E-02  0.454E-01    2.20       1.0  T
   4    -11.2674544 -0.148351E-02  0.178E-01    2.17       1.0  T
   5    -11.2676280 -0.173622E-03  0.103E-01    2.17       1.0  T
   6    -11.2676437 -0.156410E-04  0.833E-02    2.18       1.0  T
   7    -11.2676627 -0.190534E-04  0.300E-02    2.18       1.5  T
   8    -11.2676695 -0.672941E-05  0.769E-03    2.18       5.8  T
   9    -11.2676693  0.136565E-06  0.539E-03    2.18       8.3  T
  10    -11.2676694 -0.999814E-07  0.371E-03    2.18      12.0  T
  11    -11.2676695 -0.101513E-06  0.951E-04    2.18      47.0  T
  12    -11.2676695 -0.375166E-08  0.405E-04    2.18     110.5  T
     SCC iter.                  ...        0 min,  0.001 sec
     gradient                   ...        0 min,  0.001 sec
 * total energy  :   -11.0358068 Eh     change       -0.3279332E-04 Eh
   gradient norm :     0.0053436 Eh/α   predicted    -0.3045277E-04 (  -7.14%)
   displ. norm   :     0.0099705 α      lambda       -0.1784399E-04
   maximum displ.:     0.0053910 α      in ANC's #1, #4, #6, ...

........................................................................
.............................. CYCLE   18 ..............................
........................................................................
   1    -11.2666693 -0.112667E+02  0.548E-02    2.17       0.0  T
   2    -11.2664210  0.248384E-03  0.152E-01    2.16       1.0  T
   3    -11.2665972 -0.176211E-03  0.961E-02    2.17       1.0  T
   4    -11.2666750 -0.778330E-04  0.178E-02    2.17       2.5  T
   5    -11.2666768 -0.183804E-05  0.425E-03    2.16      10.5  T
   6    -11.2666769 -0.703649E-07  0.254E-03    2.16      17.6  T
   7    -11.2666769  0.127045E-07  0.155E-03    2.16      28.9  T
   8    -11.2666769 -0.165943E-07  0.288E-04    2.16     155.4  T
   9    -11.2666769  0.182723E-09  0.285E-04    2.16     156.9  T
     SCC iter.                  ...        0 min,  0.001 sec
     gradient                   ...        0 min,  0.001 sec
 * total energy  :   -11.0358211 Eh     change       -0.1431912E-04 Eh
   gradient norm :     0.0034324 Eh/α   predicted    -0.8924074E-05 ( -37.68%)
   displ. norm   :     0.0521920 α      lambda       -0.4345112E-04
   maximum displ.:     0.0345910 α      in ANC's #1, #5, #9, ...

........................................................................
.............................. CYCLE   19 ..............................
........................................................................
   1    -11.2649949 -0.112650E+02  0.206E-01    2.15       0.0  T
   2    -11.2639767  0.101826E-02  0.320E-01    2.12       1.0  T
   3    -11.2634812  0.495448E-03  0.414E-01    2.16       1.0  T
   4    -11.2650078 -0.152661E-02  0.674E-02    2.15       1.0  T
   5    -11.2650241 -0.163037E-04  0.367E-02    2.14       1.2  T
   6    -11.2650271 -0.294167E-05  0.290E-02    2.14       1.5  T
   7    -11.2650304 -0.330592E-05  0.145E-02    2.14       3.1  T
   8    -11.2650311 -0.746709E-06  0.322E-03    2.14      13.9  T
   9    -11.2650312 -0.468532E-07  0.120E-03    2.14      37.1  T
  10    -11.2650312  0.165301E-08  0.658E-04    2.14      68.0  T
  11    -11.2650312 -0.151858E-08  0.438E-04    2.14     102.2  T
     SCC iter.                  ...        0 min,  0.001 sec
     gradient                   ...        0 min,  0.001 sec
 * total energy  :   -11.0358438 Eh     change       -0.2268725E-04 Eh
   gradient norm :     0.0017673 Eh/α   predicted    -0.2178611E-04 (  -3.97%)
   displ. norm   :     0.0124147 α      lambda       -0.5327024E-05
   maximum displ.:     0.0069650 α      in ANC's #3, #6, #1, ...

........................................................................
.............................. CYCLE   20 ..............................
........................................................................
   1    -11.2653140 -0.112653E+02  0.684E-02    2.16       0.0  T
   2    -11.2643725  0.941464E-03  0.304E-01    2.17       1.0  T
   3    -11.2653099 -0.937378E-03  0.577E-02    2.16       1.0  T
   4    -11.2653320 -0.221047E-04  0.183E-02    2.16       2.4  T
   5    -11.2653326 -0.570910E-06  0.126E-02    2.16       3.5  T
   6    -11.2653336 -0.102111E-05  0.672E-03    2.16       6.7  T
   7    -11.2653338 -0.176378E-06  0.341E-03    2.16      13.1  T
   8    -11.2653339 -0.952100E-07  0.978E-04    2.16      45.7  T
   9    -11.2653339 -0.551593E-08  0.603E-04    2.16      74.1  T
     SCC iter.                  ...        0 min,  0.001 sec
     gradient                   ...        0 min,  0.001 sec
 * total energy  :   -11.0358485 Eh     change       -0.4728901E-05 Eh
   gradient norm :     0.0021354 Eh/α   predicted    -0.2662142E-05 ( -43.70%)
   displ. norm   :     0.0154078 α      lambda       -0.6895491E-05
   maximum displ.:     0.0132346 α      in ANC's #1, #4, #7, ...
 * RMSD in coord.:     0.7458011 α      energy gain  -0.1424967E+00 Eh

generating ANC from model Hessian ...
Using Lindh-Hessian (1995)
 Shifting diagonal of input Hessian by    8.2620368628701282E-003
 Lowest  eigenvalues of input Hessian
   -0.000000   -0.000000   -0.000000    0.000000    0.000000    0.000000
    0.010000    0.061676    0.118777    0.360827    0.556789    1.121544
    1.479840    1.847826    2.635952
 Highest eigenvalues
    0.360827    0.556789    1.121544    1.479840    1.847826    2.635952


........................................................................
.............................. CYCLE   21 ..............................
........................................................................
   1    -11.2655877 -0.112656E+02  0.625E-02    2.17       0.0  T
   2    -11.2654036  0.184057E-03  0.134E-01    2.16       1.0  T
   3    -11.2655195 -0.115918E-03  0.935E-02    2.17       1.0  T
   4    -11.2655918 -0.722603E-04  0.171E-02    2.17       2.6  T
   5    -11.2655934 -0.165123E-05  0.565E-03    2.17       7.9  T
   6    -11.2655934 -0.184948E-07  0.470E-03    2.17       9.5  T
   7    -11.2655936 -0.135922E-06  0.152E-03    2.17      29.4  T
   8    -11.2655936 -0.109379E-07  0.218E-04    2.17     205.4  T
   9    -11.2655936  0.270781E-09  0.231E-04    2.17     194.0  T
     SCC iter.                  ...        0 min,  0.001 sec
     gradient                   ...        0 min,  0.001 sec
 * total energy  :   -11.0358533 Eh     change       -0.4785964E-05 Eh
   gradient norm :     0.0014915 Eh/α   predicted     0.0000000E+00 (-100.00%)
   displ. norm   :     0.0593189 α      lambda       -0.1692116E-04
   maximum displ.:     0.0592845 α      in ANC's #1, #3, #8, ...

........................................................................
.............................. CYCLE   22 ..............................
........................................................................
   1    -11.2650371 -0.112650E+02  0.211E-01    2.17       0.0  T
   2    -11.2649926  0.445221E-04  0.142E-01    2.17       1.0  T
   3    -11.2586725  0.632005E-02  0.799E-01    2.20       1.0  T
   4    -11.2650382 -0.636574E-02  0.164E-02    2.17       2.7  T
   5    -11.2650370  0.120581E-05  0.166E-02    2.17       2.7  T
   6    -11.2650383 -0.127337E-05  0.114E-02    2.17       3.9  T
   7    -11.2650389 -0.590987E-06  0.353E-03    2.17      12.7  T
   8    -11.2650390 -0.485635E-07  0.203E-03    2.17      22.0  T
   9    -11.2650390 -0.208016E-07  0.115E-03    2.17      38.9  T
  10    -11.2650390 -0.391954E-08  0.518E-04    2.17      86.3  T
  11    -11.2650390 -0.118755E-08  0.328E-04    2.17     136.2  T
     SCC iter.                  ...        0 min,  0.001 sec
     gradient                   ...        0 min,  0.001 sec
 * total energy  :   -11.0358228 Eh     change        0.3047500E-04 Eh
   gradient norm :     0.0022590 Eh/α   predicted    -0.8472361E-05 (-127.80%)
   displ. norm   :     0.0307732 α      lambda       -0.4671582E-04
   maximum displ.:     0.0307185 α      in ANC's #1, #2, #3, ...

........................................................................
.............................. CYCLE   23 ..............................
........................................................................
   1    -11.2655209 -0.112655E+02  0.109E-01    2.17       0.0  T
   2    -11.2655097  0.112144E-04  0.730E-02    2.17       1.0  T
   3    -11.2647221  0.787518E-03  0.277E-01    2.15       1.0  T
   4    -11.2655209 -0.798755E-03  0.102E-02    2.17       4.4  T
   5    -11.2655210 -0.138524E-06  0.653E-03    2.17       6.8  T
   6    -11.2655213 -0.277395E-06  0.293E-03    2.17      15.3  T
   7    -11.2655213 -0.203188E-07  0.996E-04    2.17      44.9  T
   8    -11.2655213 -0.945672E-08  0.248E-04    2.17     180.3  T
     SCC iter.                  ...        0 min,  0.001 sec
     gradient                   ...        0 min,  0.001 sec
 * total energy  :   -11.0358535 Eh     change       -0.3070075E-04 Eh
   gradient norm :     0.0007206 Eh/α   predicted    -0.2338052E-04 ( -23.84%)
   displ. norm   :     0.0219462 α      lambda       -0.7514565E-05
   maximum displ.:     0.0216461 α      in ANC's #1, #2, #3, ...

........................................................................
.............................. CYCLE   24 ..............................
........................................................................
   1    -11.2655159 -0.112655E+02  0.777E-02    2.17       0.0  T
   2    -11.2655126  0.331907E-05  0.500E-02    2.17       1.0  T
   3    -11.2651265  0.386040E-03  0.193E-01    2.16       1.0  T
   4    -11.2655159 -0.389411E-03  0.472E-03    2.17       9.5  T
   5    -11.2655160 -0.964469E-07  0.259E-03    2.17      17.2  T
   6    -11.2655160 -0.238483E-07  0.112E-03    2.17      39.9  T
   7    -11.2655160 -0.616135E-09  0.538E-04    2.17      83.1  T
   8    -11.2655160 -0.185306E-08  0.129E-04    2.17     345.9  T
     SCC iter.                  ...        0 min,  0.001 sec
     gradient                   ...        0 min,  0.001 sec
 * total energy  :   -11.0358568 Eh     change       -0.3308899E-05 Eh
   gradient norm :     0.0004741 Eh/α   predicted    -0.3758255E-05 (  13.58%)
   displ. norm   :     0.0070628 α      lambda       -0.1226752E-05
   maximum displ.:     0.0069451 α      in ANC's #1, #3, #2, ...

   *** GEOMETRY OPTIMIZATION CONVERGED AFTER 24 ITERATIONS ***

------------------------------------------------------------------------
 total energy gain   :        -0.1425050 Eh      -89.4233 kcal/mol
 total RMSD          :         0.7461015 a0        0.3948 Å
 total power (kW/mol):       -15.5894558 (step)-3972.2022 (real)
------------------------------------------------------------------------

 ANCopt (total)                0 d,  0 h,  0 min,  0.094 sec
 optimizer setup                ...        0 min,  0.000 sec (  0.064%)
 model hessian                  ...        0 min,  0.000 sec (  0.136%)
 ANC generation                 ...        0 min,  0.000 sec (  0.136%)
 coordinate transformation      ...        0 min,  0.000 sec (  0.053%)
 single point calculation       ...        0 min,  0.092 sec ( 97.769%)
 optimization log               ...        0 min,  0.001 sec (  0.570%)
 hessian update                 ...        0 min,  0.000 sec (  0.049%)
 rational function              ...        0 min,  0.000 sec (  0.484%)

================
 final structure:
================
5
 xtb: 6.2.2 (9d81278992624c895f80dd42a50cac0aa55982e2)
N        -1.51570019053268    0.33977983234587   -0.69382116824369
C        -0.23999656462138   -0.17812537526846    0.06044668282775
C         1.04102017201610    0.08916186721397    0.24834852882831
C        -1.49807481114446   -0.69986902503752    0.05141657087200
C         2.21275039428242    0.44905270074613    0.33360938571562

 Bond Distances (Angstroems)
 ---------------------------
N1-C2=1.5699         N1-C4=1.2793         C2-N1=1.5699         C2-C3=1.3220         C2-C4=1.3620         C3-C2=1.3220         
C3-C5=1.2287         C4-N1=1.2793         C4-C2=1.3620         C5-C3=1.2287         
 C  C  Rav=1.3042 sigma=0.0558  Rmin=1.2287  Rmax=1.3620     3
 N  C  Rav=1.4246 sigma=0.1453  Rmin=1.2793  Rmax=1.5699     2

 selected bond angles (degree)
 --------------------
C4-N1-C2= 56.00                C3-C2-N1=142.09                C4-C2-N1= 51.14                C4-C2-C3=166.76                
C5-C3-C2=173.28                C2-C4-N1= 72.86                

 selected dihedral angles (degree)
 ---------------------------------
C3-C2-N1-C4=179.49            C5-C3-C2-N1=359.02            C5-C3-C2-C4=177.28            N1-C4-C2-C3=181.37            
           -------------------------------------------------
          |                Final Singlepoint                |
           -------------------------------------------------

          ...................................................
          :                      SETUP                      :
          :.................................................:
          :  # basis functions                  20          :
          :  # atomic orbitals                  20          :
          :  # shells                           10          :
          :  # electrons                        21          :
          :  max. iterations                   250          :
          :  Hamiltonian                  GFN2-xTB          :
          :  restarted?                      false          :
          :  GBSA solvation                  false          :
          :  PC potential                    false          :
          :  electronic temp.          300.0000000     K    :
          :  accuracy                    1.0000000          :
          :  -> integral cutoff          0.2500000E+02      :
          :  -> integral neglect         0.1000000E-07      :
          :  -> SCF convergence          0.1000000E-05 Eh   :
          :  -> wf. convergence          0.1000000E-03 e    :
          :  Broyden damping             0.4000000          :
          ...................................................

 iter      E             dE          RMSdq      gap      omega  full diag
   1    -11.2655160 -0.112655E+02  0.977E-05    2.17       0.0  T
   2    -11.2655160  0.132403E-08  0.344E-04    2.17     130.1  T
   3    -11.2655160 -0.108192E-08  0.182E-04    2.17     246.0  T

   *** convergence criteria satisfied after 3 iterations ***

         #    Occupation            Energy/Eh            Energy/eV
      -------------------------------------------------------------
         1        2.0000           -0.7215384             -19.6341
       ...           ...                  ...                  ...
         6        2.0000           -0.5525746             -15.0363
         7        2.0000           -0.4914969             -13.3743
         8        2.0000           -0.4822265             -13.1221
         9        1.9877           -0.4473682             -12.1735
        10        1.0123           -0.4390408             -11.9469
        11        1.0000           -0.4017975             -10.9335
        12        1.0000           -0.3629173              -9.8755 (HOMO)
        13                         -0.2830914              -7.7033 (LUMO)
        14                         -0.2518096              -6.8521
        15                         -0.1441497              -3.9225
        16                         -0.0756685              -2.0590
        17                          0.0681617               1.8548
       ...                                ...                  ...
        20                          1.2459623              33.9044
      -------------------------------------------------------------
                  HL-Gap            0.0798259 Eh            2.1722 eV
             Fermi-level           -0.3831044 Eh          -10.4248 eV

 SCC (total)                   0 d,  0 h,  0 min,  0.003 sec
 SCC setup                      ...        0 min,  0.000 sec (  2.054%)
 Dispersion                     ...        0 min,  0.000 sec (  0.448%)
 integral evaluation            ...        0 min,  0.001 sec ( 41.874%)
 zeroth order Hamiltonian       ...        0 min,  0.000 sec (  0.486%)
 iterations                     ...        0 min,  0.000 sec ( 11.434%)
 molecular gradient             ...        0 min,  0.001 sec ( 41.859%)
 printout                       ...        0 min,  0.000 sec (  1.621%)

         :::::::::::::::::::::::::::::::::::::::::::::::::::::
         ::                     SUMMARY                     ::
         :::::::::::::::::::::::::::::::::::::::::::::::::::::
         :: total energy             -11.035856824168 Eh    ::
         :: gradient norm              0.000472636006 Eh/a0 ::
         :: HOMO-LUMO gap              2.172173376886 eV    ::
         ::.................................................::
         :: SCC energy               -11.265516049441 Eh    ::
         :: -> isotropic ES            0.002987190126 Eh    ::
         :: -> anisotropic ES          0.001315211624 Eh    ::
         :: -> anisotropic XC          0.011365364627 Eh    ::
         :: -> dispersion             -0.002768116370 Eh    ::
         :: repulsion energy           0.229659339376 Eh    ::
         :: add. restraining           0.000000000000 Eh    ::
         :::::::::::::::::::::::::::::::::::::::::::::::::::::

           ------------------------------------------------- 
          |                Numerical Hessian                |
           ------------------------------------------------- 
step length          :   0.00500
SCC accuracy         :   0.30000
Hessian scale factor :   1.00000
frozen atoms in %    :   0.00000    0
RMS gradient         :   0.00047
estimated CPU  time      0.00 min
estimated wall time      0.00 min

writing file <hessian>.

 projected vibrational frequencies (cm-1)
eigval :       -0.00    -0.00    -0.00     0.00     0.00     0.00
eigval :      147.63   159.87   274.12   324.47   553.60   873.05
eigval :     1271.96  1810.46  1977.89
           -------------------------------------------------
          |                Property Printout                |
           -------------------------------------------------

    * Orbital Energies and Occupations

         #    Occupation            Energy/Eh            Energy/eV
      -------------------------------------------------------------
         1        2.0000           -0.7215386             -19.6341
         2        2.0000           -0.6718352             -18.2816
         3        2.0000           -0.6305361             -17.1578
         4        2.0000           -0.5828400             -15.8599
         5        2.0000           -0.5537933             -15.0695
         6        2.0000           -0.5525747             -15.0363
         7        2.0000           -0.4914969             -13.3743
         8        2.0000           -0.4822264             -13.1220
         9        1.9877           -0.4473683             -12.1735
        10        1.0123           -0.4390405             -11.9469
        11        1.0000           -0.4017976             -10.9335
        12        1.0000           -0.3629173              -9.8755 (HOMO)
        13                         -0.2830916              -7.7033 (LUMO)
        14                         -0.2518095              -6.8521
        15                         -0.1441495              -3.9225
        16                         -0.0756685              -2.0590
        17                          0.0681617               1.8548
        18                          0.3371948               9.1755
        19                          0.6543946              17.8070
        20                          1.2459625              33.9044
      -------------------------------------------------------------
                  HL-Gap            0.0798257 Eh            2.1722 eV
             Fermi-level           -0.3831044 Eh          -10.4248 eV

     #   Z        covCN         q      C6AA      α(0)
     1   7 N      1.803    -0.148    24.970     7.403
     2   6 C      2.855     0.111    25.545     8.284
     3   6 C      1.962     0.016    30.651     8.941
     4   6 C      1.891     0.049    29.863     8.826
     5   6 C      0.983    -0.029    36.806    10.191

 Mol. C6AA /au·bohr⁶  :        734.200050
 Mol. C8AA /au·bohr⁸  :      20257.497796
 Mol. α(0) /au        :         43.643941


Wiberg/Mayer (AO) data.
largest (>0.10) Wiberg bond orders for each atom
          total WBO             WBO to atom ...
     1  N   2.479        C    4 1.642    C    2 0.702
     2  C   3.354        C    3 1.421    C    4 1.215    N    1 0.702
     3  C   3.888        C    5 2.372    C    2 1.421
     4  C   2.992        N    1 1.642    C    2 1.215
     5  C   2.563        C    3 2.372

MOs/occ written to file <molden.input>


molecular dipole:
                 x           y           z       tot (Debye)
 q only:        0.144      -0.219       0.200
   full:        0.291      -0.275       0.284       1.247
molecular quadrupole (traceless):
                xx          xy          yy          xz          yz          zz
 q only:       -1.116       0.563       0.766      -0.953       0.149       0.350
  q+dip:        1.243       2.119      -0.234      -1.092       0.636      -1.008
   full:       -0.854       0.942       0.423      -1.452       1.211       0.431

           -------------------------------------------------
          |                Geometry Summary                 |
           -------------------------------------------------

      molecular mass/u    :       62.0496468
   center of mass at/Å    :       -0.0487561       0.0109300      -0.0223182
  moments of inertia/u·Å² :        0.1155975E+02   0.1391982E+03   0.1507572E+03
rotational constants/cm⁻¹ :        0.1458304E+01   0.1211052E+00   0.1118197E+00
Molecule has the following symmetry elements: (sigma) 
It seems to be the Cs point group

 * 4 selected distances

     #   Z        #   Z                                     value/Å
     2   6 C      3   6 C                                 1.3220263
     1   7 N      4   6 C                                 1.2792809
     2   6 C      4   6 C                                 1.3620055 (max)
     3   6 C      5   6 C                                 1.2287158 (min)

 * 2 distinct bonds (by element types)

   Z      Z             #   av. dist./Å        max./Å        min./Å
   6 C    6 C           3     1.3042492     1.3620055     1.2287158
   6 C    7 N           1     1.2792809     1.2792809     1.2792809

           -------------------------------------------------
          |               Frequency Printout                |
           -------------------------------------------------
 projected vibrational frequencies (cm-1)
eigval :       -0.00    -0.00    -0.00     0.00     0.00     0.00
eigval :      147.63   159.87   274.12   324.47   553.60   873.05
eigval :     1271.96  1810.46  1977.89
 reduced masses (amu)
   1: 12.17   2: 12.55   3: 12.81   4: 13.54   5: 12.26   6: 12.11   7: 12.03   8: 12.31
   9: 12.01  10: 12.23  11: 13.02  12: 12.17  13: 12.51  14: 12.35  15: 12.07
 IR intensities (amu)
   1:  0.05   2:  0.06   3:  0.05   4:  0.12   5:  0.18   6:  0.05   7:  0.06   8:  0.30
   9:  0.16  10:  0.62  11:  0.41  12:  1.27  13:  1.48  14:  0.96  15:  0.97
 Raman intensities (amu)
   1:  0.00   2:  0.00   3:  0.00   4:  0.00   5:  0.00   6:  0.00   7:  0.00   8:  0.00
   9:  0.00  10:  0.00  11:  0.00  12:  0.00  13:  0.00  14:  0.00  15:  0.00
 output can be read by thermo (or use thermo option).
 writing <g98.out> molden fake output.
 recommended (thermochemical) frequency scaling factor: 1.0
           -------------------------------------------------
          |             Thermodynamic Functions             |
           -------------------------------------------------

cs  symmetry found (for desy threshold:  0.10E+00) used in thermo

          ...................................................
          :                      SETUP                      :
          :.................................................:
          :  # frequencies                           9      :
          :  # imaginary freq.                       0      :
          :  linear?                             false      :
          :  only rotor calc.                    false      :
          :  symmetry                               cs      :
          :  rotational number                       1      :
          :  scaling factor                  1.0000000      :
          :  rotor cutoff                   50.0000000 cm⁻¹ :
          :  imag. cutoff                  -20.0000000 cm⁻¹ :
          :.................................................:

    mode    ω/cm⁻¹     T·S(HO)/kcal·mol⁻¹    T·S(FR)/kcal·mol⁻¹   T·S(vib)
   ------------------------------------------------------------------------
       1    147.63    -0.00000 ( 98.70%)     0.00906 (  1.30%)     0.00012
       2    159.87    -0.00000 ( 99.05%)     0.00986 (  0.95%)     0.00009
       3    274.12    -0.00000 ( 99.89%)     0.01521 (  0.11%)     0.00002
   ------------------------------------------------------------------------

   temp. (K)  partition function   enthalpy   heat capacity  entropy
                                   cal/mol     cal/K/mol   cal/K/mol   J/K/mol
 298.15  VIB   6.87                 1493.142      9.014      8.835
         ROT  0.376E+05              888.752      2.981     23.917
         INT  0.259E+06             2381.895     11.995     32.753
         TR   0.473E+27             1481.254      4.968     38.278
         TOT                        3863.1484    16.9630    71.0307   297.1923

   temp. (K)  partition function   enthalpy   heat capacity  entropy
                                   cal/mol     cal/K/mol   cal/K/mol   J/K/mol
 120.00  VIB   1.50                  217.413      4.645      2.630
         ROT  0.961E+04              357.707      2.981     21.205
         INT  0.144E+05              575.120      7.625     23.835
         TR   0.121E+27              596.178      4.968     33.759
         TOT                        1171.2976    12.5936    57.5937   240.9719

   temp. (K)  partition function   enthalpy   heat capacity  entropy
                                   cal/mol     cal/K/mol   cal/K/mol   J/K/mol
 100.00  VIB   1.30                  133.068      3.766      1.866
         ROT  0.731E+04              298.089      2.981     20.661
         INT  0.950E+04              431.157      6.747     22.527
         TR   0.919E+26              496.815      4.968     32.853
         TOT                         927.9724    11.7154    55.3801   231.7101

   temp. (K)  partition function   enthalpy   heat capacity  entropy
                                   cal/mol     cal/K/mol   cal/K/mol   J/K/mol
  80.00  VIB   1.15                   67.736      2.742      1.142
         ROT  0.523E+04              238.471      2.981     19.996
         INT  0.602E+04              306.208      5.723     21.138
         TR   0.657E+26              397.452      4.968     31.745
         TOT                         703.6596    10.6915    52.8831   221.2628

   temp. (K)  partition function   enthalpy   heat capacity  entropy
                                   cal/mol     cal/K/mol   cal/K/mol   J/K/mol
  60.00  VIB   1.05                   24.204      1.597      0.523
         ROT  0.340E+04              178.853      2.981     19.138
         INT  0.358E+04              203.057      4.578     19.661
         TR   0.427E+26              298.089      4.968     30.317
         TOT                         501.1463     9.5465    49.9778   209.1070

   temp. (K)  partition function   enthalpy   heat capacity  entropy
                                   cal/mol     cal/K/mol   cal/K/mol   J/K/mol
  40.00  VIB   1.01                    3.604      0.502      0.115
         ROT  0.185E+04              119.236      2.981     17.930
         INT  0.186E+04              122.839      3.483     18.044
         TR   0.232E+26              198.726      4.968     28.303
         TOT                         321.5652     8.4515    46.3477   193.9187

   temp. (K)  partition function   enthalpy   heat capacity  entropy
                                   cal/mol     cal/K/mol   cal/K/mol   J/K/mol
  20.00  VIB   1.00                    0.015      0.008     -0.006
         ROT   654.                   59.618      2.981     15.864
         INT   654.                   59.633      2.989     15.857
         TR   0.822E+25               99.363      4.968     24.861
         TOT                         158.9957     7.9572    40.7185   170.3661

   temp. (K)  partition function   enthalpy   heat capacity  entropy
                                   cal/mol     cal/K/mol   cal/K/mol   J/K/mol
  10.00  VIB   1.00                    0.000      0.000     -0.024
         ROT   231.                   29.809      2.981     13.797
         INT   231.                   29.809      2.981     13.773
         TR   0.290E+25               49.681      4.968     21.419
         TOT                          79.4904     7.9490    35.1928   147.2467

       T/K    H(0)-H(T)+PV         H(T)/Eh          T*S/Eh         G(T)/Eh
   ------------------------------------------------------------------------
    298.15    0.615632E-02    0.229990E-01    0.337490E-01   -0.107500E-01
    120.00    0.186658E-02    0.187092E-01    0.110138E-01    0.769546E-02
    100.00    0.147882E-02    0.183215E-01    0.882537E-02    0.949609E-02
     80.00    0.112135E-02    0.179640E-01    0.674197E-02    0.112220E-01
     60.00    0.798627E-03    0.176413E-01    0.477868E-02    0.128626E-01
     40.00    0.512447E-03    0.173551E-01    0.295439E-02    0.144007E-01
     20.00    0.253376E-03    0.170960E-01    0.129778E-02    0.157982E-01
     10.00    0.126676E-03    0.169693E-01    0.560833E-03    0.164085E-01 (used)
   ------------------------------------------------------------------------

         :::::::::::::::::::::::::::::::::::::::::::::::::::::
         ::                  THERMODYNAMIC                  ::
         :::::::::::::::::::::::::::::::::::::::::::::::::::::
         :: total free energy         -11.019448338392 Eh   ::
         ::.................................................::
         :: total energy              -11.035856823982 Eh   ::
         :: zero point energy           0.016842642712 Eh   ::
         :: G(RRHO) w/o ZPVE           -0.000434157123 Eh   ::
         :: G(RRHO) contrib.            0.016408485589 Eh   ::
         :::::::::::::::::::::::::::::::::::::::::::::::::::::

optimized geometry written to: xtbopt.xyz


           -------------------------------------------------
          | TOTAL ENERGY              -11.035856823982 Eh   |
          | TOTAL ENTHALPY            -11.018887505253 Eh   |
          | TOTAL FREE ENERGY         -11.019448338392 Eh   |
          | GRADIENT NORM               0.000473233724 Eh/α |
          | HOMO-LUMO GAP               2.172168458967 eV   |
           -------------------------------------------------

------------------------------------------------------------------------
 * finished run on 2020/05/12 at 11:44:06.543     
------------------------------------------------------------------------
 total:
 * wall-time:     0 d,  0 h,  0 min,  0.223 sec
 *  cpu-time:     0 d,  0 h,  0 min,  0.223 sec
 * ratio c/w:     0.998 speedup
 SCF:
 * wall-time:     0 d,  0 h,  0 min,  0.005 sec
 *  cpu-time:     0 d,  0 h,  0 min,  0.005 sec
 * ratio c/w:     1.000 speedup
 ANC optimizer:
 * wall-time:     0 d,  0 h,  0 min,  0.098 sec
 *  cpu-time:     0 d,  0 h,  0 min,  0.098 sec
 * ratio c/w:     0.998 speedup
 numerical hessian:
 * wall-time:     0 d,  0 h,  0 min,  0.102 sec
 *  cpu-time:     0 d,  0 h,  0 min,  0.102 sec
 * ratio c/w:     0.997 speedup

