      -----------------------------------------------------------      
     |                   =====================                   |     
     |                           x T B                           |     
     |                   =====================                   |     
     |                         S. Grimme                         |     
     |          Mulliken Center for Theoretical Chemistry        |     
     |                    University of Bonn                     |     
      -----------------------------------------------------------      

   * xtb version 6.2.2 (9d81278992624c895f80dd42a50cac0aa55982e2) compiled by '@Darwin' on 04/03/2020

   xtb is free software: you can redistribute it and/or modify it under
   the terms of the GNU Lesser General Public License as published by
   the Free Software Foundation, either version 3 of the License, or
   (at your option) any later version.
   
   xtb is distributed in the hope that it will be useful,
   but WITHOUT ANY WARRANTY; without even the implied warranty of
   MERCHANTABILITY or FITNESS FOR A PARTICULAR PURPOSE.  See the
   GNU Lesser General Public License for more details.
   
   Cite this work as:
   * S. Grimme, C. Bannwarth, P. Shushkov, J. Chem. Theory Comput., 2017,
     13, 1989-2009. DOI: 10.1021/acs.jctc.7b00118
   * C. Bannwarth, S. Ehlert and S. Grimme., J. Chem. Theory Comput., 2019,
     15, 1652-1671. DOI: 10.1021/acs.jctc.8b01176
   * P. Pracht, E. Caldeweyher, S. Ehlert, S. Grimme, ChemRxiv, 2019, preprint.
     DOI: 10.26434/chemrxiv.8326202.v1
   
   for DFT-D4:
   * E. Caldeweyher, C. Bannwarth and S. Grimme, J. Chem. Phys., 2017,
     147, 034112. DOI: 10.1063/1.4993215
   * E. Caldeweyher, S. Ehlert, A. Hansen, H. Neugebauer, S. Spicher,
     C. Bannwarth and S. Grimme, J. Chem. Phys., 2019, 150, 154122.
     DOI: 10.1063/1.5090222
   
   for sTDA-xTB:
   * S. Grimme and C. Bannwarth, J. Chem. Phys., 2016, 145, 054103.
     DOI: 10.1063/1.4959605
   
   in the mass-spec context:
   * V. Asgeirsson, C. Bauer and S. Grimme, Chem. Sci., 2017, 8, 4879.
     DOI: 10.1039/c7sc00601b
   
   for metadynamics refer to:
   * S. Grimme, J. Chem. Theory Comput., 2019, 155, 2847-2862
     DOI: 10.1021/acs.jctc.9b00143
   
   with help from (in alphabetical order)
   C. Bannwarth, F. Bohle, G. Brandenburg, E. Caldeweyher, M. Checinski,
   S. Dohm, S. Ehlert, S. Ehrlich, F. März, H. Neugebauer, J. Pisarek,
   P. Pracht, P. Shushkov, and S. Spicher.
   
 * started run on 2020/05/12 at 11:45:18.316     

           -------------------------------------------------
          |                Calculation Setup                |
           -------------------------------------------------

          program call               : xtb --input C3O1_3_S_0.input C3O1_3_S_0.xyz --ohess --molden --namespace C3O1_3_S_0 output.out
          calculation namespace      : C3O1_3_S_0
          coordinate file            : C3O1_3_S_0.xyz
          number of atoms            :                     4
          number of electrons        :                    18
          charge                     :                     0
          spin                       :                   0.0
          first test random number   :      0.06125699964554

   ID    Z sym.   atoms
    1    6 C      1-3
    2    8 O      4

           -------------------------------------------------
          |                 G F N 2 - x T B                 |
           -------------------------------------------------

        Reference                      10.1021/acs.jctc.8b01176
      * Hamiltonian:
        H0-scaling (s, p, d)           1.850000    2.230000    2.230000
        zeta-weighting                 0.500000
      * Dispersion:
        s8                             2.700000
        a1                             0.520000
        a2                             5.000000
        s9                             5.000000
      * Repulsion:
        kExp                           1.500000    1.000000
        rExp                           1.000000
      * Coulomb:
        alpha                          2.000000
        third order                    shell-resolved
        anisotropic                    true
        a3                             3.000000
        a5                             4.000000
        cn-shift                       1.200000
        cn-exp                         4.000000
        max-rad                        5.000000


          ...................................................
          :                      SETUP                      :
          :.................................................:
          :  # basis functions                  16          :
          :  # atomic orbitals                  16          :
          :  # shells                            8          :
          :  # electrons                        18          :
          :  max. iterations                   250          :
          :  Hamiltonian                  GFN2-xTB          :
          :  restarted?                      false          :
          :  GBSA solvation                  false          :
          :  PC potential                    false          :
          :  electronic temp.          300.0000000     K    :
          :  accuracy                    1.0000000          :
          :  -> integral cutoff          0.2500000E+02      :
          :  -> integral neglect         0.1000000E-07      :
          :  -> SCF convergence          0.1000000E-05 Eh   :
          :  -> wf. convergence          0.1000000E-03 e    :
          :  Broyden damping             0.4000000          :
          ...................................................

 iter      E             dE          RMSdq      gap      omega  full diag
   1    -10.0422406 -0.100422E+02  0.128E+01    1.18       0.0  T
   2     -9.3534932  0.688747E+00  0.113E+01    0.72       1.0  T
   3     -7.9623934  0.139110E+01  0.162E+01    1.14       1.0  T
   4     -9.9476803 -0.198529E+01  0.848E+00    1.32       1.0  T
   5    -10.1177803 -0.170100E+00  0.398E+00    0.87       1.0  T
   6    -10.1226765 -0.489616E-02  0.268E+00    0.82       1.0  T
   7    -10.1183503  0.432616E-02  0.185E+00    0.84       1.0  T
   8    -10.1244459 -0.609552E-02  0.133E+00    0.78       1.0  T
   9    -10.1262378 -0.179193E-02  0.321E-01    0.74       1.0  T
  10    -10.1266333 -0.395481E-03  0.104E-01    0.71       1.0  T
  11    -10.1266274  0.587459E-05  0.113E-01    0.71       1.0  T
  12    -10.1266451 -0.177088E-04  0.216E-02    0.72       2.3  T
  13    -10.1266457 -0.597295E-06  0.159E-02    0.72       3.1  T
  14    -10.1266466 -0.870395E-06  0.323E-03    0.71      15.5  T
  15    -10.1266466 -0.100081E-07  0.124E-03    0.71      40.5  T
  16    -10.1266466 -0.409720E-08  0.815E-05    0.71     613.3  T
  17    -10.1266466 -0.279048E-10  0.272E-05    0.71    1835.8  T

   *** convergence criteria satisfied after 17 iterations ***

         #    Occupation            Energy/Eh            Energy/eV
      -------------------------------------------------------------
         1        2.0000           -0.8032972             -21.8588
       ...           ...                  ...                  ...
         3        2.0000           -0.6844043             -18.6236
         4        2.0000           -0.6500381             -17.6884
         5        2.0000           -0.5995625             -16.3149
         6        2.0000           -0.5530787             -15.0500
         7        2.0000           -0.5268448             -14.3362
         8        2.0000           -0.5000517             -13.6071
         9        2.0000           -0.4450766             -12.1112 (HOMO)
        10        0.0000           -0.4188149             -11.3965 (LUMO)
        11                         -0.3842578             -10.4562
        12                         -0.3771486             -10.2627
        13                         -0.1460276              -3.9736
        14                          0.0289580               0.7880
       ...                                ...                  ...
        16                          0.1779144               4.8413
      -------------------------------------------------------------
                  HL-Gap            0.0262617 Eh            0.7146 eV
             Fermi-level           -0.4319458 Eh          -11.7538 eV

 SCC (total)                   0 d,  0 h,  0 min,  0.004 sec
 SCC setup                      ...        0 min,  0.000 sec (  2.677%)
 Dispersion                     ...        0 min,  0.000 sec (  0.397%)
 integral evaluation            ...        0 min,  0.001 sec ( 28.457%)
 zeroth order Hamiltonian       ...        0 min,  0.000 sec (  0.556%)
 iterations                     ...        0 min,  0.002 sec ( 40.535%)
 molecular gradient             ...        0 min,  0.001 sec ( 24.762%)
 printout                       ...        0 min,  0.000 sec (  2.335%)

         :::::::::::::::::::::::::::::::::::::::::::::::::::::
         ::                     SUMMARY                     ::
         :::::::::::::::::::::::::::::::::::::::::::::::::::::
         :: total energy             -10.077822640765 Eh    ::
         :: gradient norm              0.231457305724 Eh/a0 ::
         :: HOMO-LUMO gap              0.714617905533 eV    ::
         ::.................................................::
         :: SCC energy               -10.126646581124 Eh    ::
         :: -> isotropic ES           -0.012553638209 Eh    ::
         :: -> anisotropic ES          0.001203579258 Eh    ::
         :: -> anisotropic XC          0.004730493732 Eh    ::
         :: -> dispersion             -0.001672479880 Eh    ::
         :: repulsion energy           0.048823926369 Eh    ::
         :: add. restraining           0.000000000000 Eh    ::
         :::::::::::::::::::::::::::::::::::::::::::::::::::::

      ----------------------------------------------------------- 
     |                   =====================                   |
     |                        A N C O P T                        |
     |                   =====================                   |
     |               Approximate Normal Coordinate               |
     |                Rational Function Optimizer                |
      ----------------------------------------------------------- 

          ...................................................
          :                      SETUP                      :
          :.................................................:
          :   optimization level            normal          :
          :   max. optcycles                   200          :
          :   ANC micro-cycles                  20          :
          :   degrees of freedom                 6          :
          :.................................................:
          :   RF solver                   davidson          :
          :   write xtbopt.log                true          :
          :   linear?                        false          :
          :   energy convergence         0.5000000E-05 Eh   :
          :   grad. convergence          0.1000000E-02 Eh/α :
          :   maximium RF displ.         1.0000000          :
          :   Hlow (freq-cutoff)         0.1000000E-01      :
          :   Hmax (freq-cutoff)         5.0000000          :
          :   S6 in model hess.         20.0000000          :
          ...................................................

generating ANC from model Hessian ...
Using Lindh-Hessian (1995)
 Shifting diagonal of input Hessian by    0.0000000000000000     
 Lowest  eigenvalues of input Hessian
   -0.000000   -0.000000   -0.000000   -0.000000    0.000000    0.000000
    0.068702    0.130876    0.740909    0.896297    1.040512    1.615162
 Highest eigenvalues
    0.068702    0.130876    0.740909    0.896297    1.040512    1.615162


........................................................................
.............................. CYCLE    1 ..............................
........................................................................
   1    -10.1266466 -0.101266E+02  0.965E-06    0.71       0.0  T
   2    -10.1266466  0.213696E-11  0.202E-05    0.71    2470.1  T
   3    -10.1266466 -0.172484E-11  0.106E-05    0.71    4698.3  T
     SCC iter.                  ...        0 min,  0.000 sec
     gradient                   ...        0 min,  0.001 sec
 * total energy  :   -10.0778226 Eh     change       -0.1424283E-10 Eh
   gradient norm :     0.2314574 Eh/α   predicted     0.0000000E+00 (-100.00%)
   displ. norm   :     0.3587018 α      lambda       -0.6705087E-01
   maximum displ.:     0.2682045 α      in ANC's #2, #3, #5, ...

........................................................................
.............................. CYCLE    2 ..............................
........................................................................
   1    -10.1706061 -0.101706E+02  0.401E+00    1.40       0.0  T
   2     -9.8748028  0.295803E+00  0.690E+00    1.03       1.0  T
   3    -10.1915602 -0.316757E+00  0.242E+00    1.48       1.0  T
   4    -10.2099361 -0.183759E-01  0.122E+00    1.33       1.0  T
   5    -10.2121041 -0.216800E-02  0.593E-01    1.39       1.0  T
   6    -10.2130164 -0.912317E-03  0.139E-01    1.37       1.0  T
   7    -10.2130314 -0.150106E-04  0.449E-02    1.37       1.1  T
   8    -10.2130353 -0.387248E-05  0.208E-02    1.36       2.4  T
   9    -10.2130364 -0.112681E-05  0.553E-03    1.37       9.0  T
  10    -10.2130365 -0.771867E-07  0.101E-03    1.36      49.5  T
  11    -10.2130365 -0.473854E-09  0.113E-03    1.36      44.2  T
  12    -10.2130365 -0.140759E-08  0.555E-05    1.36     900.5  T
  13    -10.2130365 -0.330402E-11  0.563E-06    1.36    8880.6  T
     SCC iter.                  ...        0 min,  0.001 sec
     gradient                   ...        0 min,  0.001 sec
 * total energy  :   -10.1358974 Eh     change       -0.5807472E-01 Eh
   gradient norm :     0.1667328 Eh/α   predicted    -0.3783906E-01 ( -34.84%)
   displ. norm   :     0.5436339 α      lambda       -0.8054725E-01
   maximum displ.:     0.3411625 α      in ANC's #2, #5, #3, ...

........................................................................
.............................. CYCLE    3 ..............................
........................................................................
   1    -10.3042413 -0.103042E+02  0.561E+00    2.92       0.0  T
   2    -10.2431892  0.610521E-01  0.480E+00    0.89       1.0  T
   3    -10.3482622 -0.105073E+00  0.263E+00    2.55       1.0  T
   4    -10.3635851 -0.153229E-01  0.778E-01    2.09       1.0  T
   5    -10.3644394 -0.854281E-03  0.257E-01    2.15       1.0  T
   6    -10.3644835 -0.440854E-04  0.109E-01    2.11       1.0  T
   7    -10.3644909 -0.743227E-05  0.332E-02    2.12       1.5  T
   8    -10.3644922 -0.125715E-05  0.119E-02    2.12       4.2  T
   9    -10.3644923 -0.152160E-06  0.214E-03    2.12      23.4  T
  10    -10.3644923 -0.473994E-08  0.110E-03    2.12      45.3  T
  11    -10.3644923 -0.133977E-08  0.158E-04    2.12     317.3  T
  12    -10.3644923 -0.420890E-10  0.252E-05    2.12    1982.1  T
     SCC iter.                  ...        0 min,  0.001 sec
     gradient                   ...        0 min,  0.001 sec
 * total energy  :   -10.1591244 Eh     change       -0.2322705E-01 Eh
   gradient norm :     0.2714882 Eh/α   predicted    -0.5217601E-01 ( 124.63%)
   displ. norm   :     0.4041258 α      lambda       -0.6424866E-01
   maximum displ.:     0.3949535 α      in ANC's #2, #3, #6, ...

........................................................................
.............................. CYCLE    4 ..............................
........................................................................
   1    -10.2817459 -0.102817E+02  0.245E+00    2.46       0.0  T
   2    -10.2263182  0.554277E-01  0.348E+00    2.65       1.0  T
   3    -10.2929298 -0.666116E-01  0.135E+00    2.51       1.0  T
   4    -10.2978099 -0.488013E-02  0.218E-01    2.61       1.0  T
   5    -10.2978840 -0.740390E-04  0.117E-01    2.59       1.0  T
   6    -10.2979033 -0.193454E-04  0.700E-02    2.59       1.0  T
   7    -10.2979139 -0.105613E-04  0.209E-02    2.59       2.4  T
   8    -10.2979157 -0.182650E-05  0.223E-03    2.59      22.4  T
   9    -10.2979157  0.181274E-08  0.127E-03    2.59      39.4  T
  10    -10.2979157 -0.413394E-08  0.913E-05    2.59     547.5  T
  11    -10.2979157 -0.450484E-11  0.220E-05    2.59    2271.7  T
     SCC iter.                  ...        0 min,  0.001 sec
     gradient                   ...        0 min,  0.001 sec
 * total energy  :   -10.1792590 Eh     change       -0.2013455E-01 Eh
   gradient norm :     0.0904221 Eh/α   predicted    -0.3737078E-01 (  85.61%)
   displ. norm   :     0.0617258 α      lambda       -0.4992265E-02
   maximum displ.:     0.0479726 α      in ANC's #3, #2, #4, ...

........................................................................
.............................. CYCLE    5 ..............................
........................................................................
   1    -10.3111540 -0.103112E+02  0.463E-01    2.61       0.0  T
   2    -10.3101138  0.104021E-02  0.517E-01    2.57       1.0  T
   3    -10.3114759 -0.136207E-02  0.259E-01    2.62       1.0  T
   4    -10.3116446 -0.168753E-03  0.881E-02    2.60       1.0  T
   5    -10.3116523 -0.772245E-05  0.220E-02    2.60       2.3  T
   6    -10.3116529 -0.566917E-06  0.141E-02    2.60       3.5  T
   7    -10.3116534 -0.535447E-06  0.101E-03    2.60      49.3  T
   8    -10.3116534 -0.115006E-08  0.480E-04    2.60     104.1  T
   9    -10.3116534 -0.593676E-10  0.373E-05    2.60    1339.8  T
     SCC iter.                  ...        0 min,  0.001 sec
     gradient                   ...        0 min,  0.001 sec
 * total energy  :   -10.1827853 Eh     change       -0.3526362E-02 Eh
   gradient norm :     0.0385741 Eh/α   predicted    -0.2505641E-02 ( -28.95%)
   displ. norm   :     0.1177918 α      lambda       -0.3224455E-02
   maximum displ.:     0.0843345 α      in ANC's #3, #2, #4, ...

........................................................................
.............................. CYCLE    6 ..............................
........................................................................
   1    -10.3281658 -0.103282E+02  0.717E-01    2.77       0.0  T
   2    -10.3265969  0.156884E-02  0.678E-01    2.63       1.0  T
   3    -10.3285209 -0.192398E-02  0.408E-01    2.74       1.0  T
   4    -10.3289885 -0.467603E-03  0.819E-02    2.72       1.0  T
   5    -10.3289953 -0.678148E-05  0.238E-02    2.71       2.1  T
   6    -10.3289958 -0.483105E-06  0.153E-02    2.71       3.3  T
   7    -10.3289963 -0.469913E-06  0.157E-03    2.71      31.9  T
   8    -10.3289963 -0.138832E-08  0.835E-04    2.71      59.9  T
   9    -10.3289963 -0.305816E-09  0.693E-05    2.71     721.1  T
     SCC iter.                  ...        0 min,  0.001 sec
     gradient                   ...        0 min,  0.001 sec
 * total energy  :   -10.1846055 Eh     change       -0.1820206E-02 Eh
   gradient norm :     0.0317188 Eh/α   predicted    -0.1634598E-02 ( -10.20%)
   displ. norm   :     0.0803295 α      lambda       -0.1124112E-02
   maximum displ.:     0.0527290 α      in ANC's #2, #3, #1, ...

........................................................................
.............................. CYCLE    7 ..............................
........................................................................
   1    -10.3271257 -0.103271E+02  0.364E-01    2.74       0.0  T
   2    -10.3270564  0.693103E-04  0.245E-01    2.78       1.0  T
   3    -10.3268934  0.162983E-03  0.267E-01    2.74       1.0  T
   4    -10.3271820 -0.288521E-03  0.441E-02    2.77       1.1  T
   5    -10.3271862 -0.427437E-05  0.746E-03    2.77       6.7  T
   6    -10.3271862 -0.622875E-08  0.475E-03    2.77      10.5  T
   7    -10.3271863 -0.381434E-07  0.721E-04    2.77      69.4  T
   8    -10.3271863 -0.198114E-09  0.354E-04    2.77     141.3  T
     SCC iter.                  ...        0 min,  0.001 sec
     gradient                   ...        0 min,  0.001 sec
 * total energy  :   -10.1854995 Eh     change       -0.8939527E-03 Eh
   gradient norm :     0.0281827 Eh/α   predicted    -0.5656835E-03 ( -36.72%)
   displ. norm   :     0.1353154 α      lambda       -0.1886999E-02
   maximum displ.:     0.0987391 α      in ANC's #3, #2, #6, ...

........................................................................
.............................. CYCLE    8 ..............................
........................................................................
   1    -10.3239475 -0.103239E+02  0.633E-01    2.80       0.0  T
   2    -10.3239232  0.242693E-04  0.350E-01    2.84       1.0  T
   3    -10.3231952  0.728030E-03  0.431E-01    2.76       1.0  T
   4    -10.3239979 -0.802687E-03  0.799E-02    2.82       1.0  T
   5    -10.3240204 -0.224743E-04  0.192E-02    2.83       2.6  T
   6    -10.3240209 -0.574034E-06  0.997E-03    2.83       5.0  T
   7    -10.3240210 -0.773023E-07  0.134E-03    2.83      37.2  T
   8    -10.3240210 -0.645498E-09  0.644E-04    2.83      77.6  T
   9    -10.3240210 -0.261734E-09  0.425E-05    2.83    1175.1  T
     SCC iter.                  ...        0 min,  0.001 sec
     gradient                   ...        0 min,  0.001 sec
 * total energy  :   -10.1867158 Eh     change       -0.1216343E-02 Eh
   gradient norm :     0.0154261 Eh/α   predicted    -0.9607757E-03 ( -21.01%)
   displ. norm   :     0.0769541 α      lambda       -0.8041342E-03
   maximum displ.:     0.0432521 α      in ANC's #3, #5, #6, ...

........................................................................
.............................. CYCLE    9 ..............................
........................................................................
   1    -10.3242685 -0.103243E+02  0.501E-01    2.78       0.0  T
   2    -10.3241921  0.764410E-04  0.359E-01    2.76       1.0  T
   3    -10.3240053  0.186774E-03  0.287E-01    2.80       1.0  T
   4    -10.3243129 -0.307597E-03  0.121E-01    2.74       1.0  T
   5    -10.3243738 -0.608983E-04  0.122E-02    2.78       4.1  T
   6    -10.3243740 -0.184593E-06  0.624E-03    2.78       8.0  T
   7    -10.3243740 -0.452002E-07  0.812E-04    2.78      61.6  T
   8    -10.3243740 -0.592820E-09  0.401E-04    2.78     124.8  T
     SCC iter.                  ...        0 min,  0.001 sec
     gradient                   ...        0 min,  0.001 sec
 * total energy  :   -10.1871936 Eh     change       -0.4777339E-03 Eh
   gradient norm :     0.0079744 Eh/α   predicted    -0.4044490E-03 ( -15.34%)
   displ. norm   :     0.0321524 α      lambda       -0.1249938E-03
   maximum displ.:     0.0284509 α      in ANC's #1, #2, #5, ...

........................................................................
.............................. CYCLE   10 ..............................
........................................................................
   1    -10.3239028 -0.103239E+02  0.217E-01    2.77       0.0  T
   2    -10.3238598  0.429808E-04  0.191E-01    2.71       1.0  T
   3    -10.3239178 -0.580219E-04  0.112E-01    2.77       1.0  T
   4    -10.3239418 -0.239682E-04  0.507E-02    2.74       1.0  T
   5    -10.3239500 -0.818043E-05  0.816E-03    2.75       6.1  T
   6    -10.3239501 -0.153330E-06  0.393E-03    2.74      12.7  T
   7    -10.3239501 -0.100904E-07  0.302E-04    2.75     165.3  T
   8    -10.3239501 -0.823412E-10  0.181E-04    2.75     275.5  T
     SCC iter.                  ...        0 min,  0.001 sec
     gradient                   ...        0 min,  0.001 sec
 * total energy  :   -10.1872702 Eh     change       -0.7664922E-04 Eh
   gradient norm :     0.0039134 Eh/α   predicted    -0.6256044E-04 ( -18.38%)
   displ. norm   :     0.0158810 α      lambda       -0.3570396E-04
   maximum displ.:     0.0124880 α      in ANC's #3, #2, #1, ...

........................................................................
.............................. CYCLE   11 ..............................
........................................................................
   1    -10.3237956 -0.103238E+02  0.892E-02    2.75       0.0  T
   2    -10.3237901  0.552576E-05  0.683E-02    2.72       1.0  T
   3    -10.3237935 -0.340840E-05  0.528E-02    2.75       1.0  T
   4    -10.3238023 -0.884568E-05  0.159E-02    2.74       3.1  T
   5    -10.3238028 -0.529872E-06  0.149E-03    2.74      33.7  T
   6    -10.3238028 -0.526795E-09  0.284E-04    2.74     176.2  T
   7    -10.3238029 -0.966107E-10  0.164E-04    2.74     304.9  T
     SCC iter.                  ...        0 min,  0.001 sec
     gradient                   ...        0 min,  0.001 sec
 * total energy  :   -10.1872946 Eh     change       -0.2438502E-04 Eh
   gradient norm :     0.0024249 Eh/α   predicted    -0.1785664E-04 ( -26.77%)
   displ. norm   :     0.0119099 α      lambda       -0.2061436E-04
   maximum displ.:     0.0087468 α      in ANC's #3, #1, #4, ...

........................................................................
.............................. CYCLE   12 ..............................
........................................................................
   1    -10.3234012 -0.103234E+02  0.510E-02    2.74       0.0  T
   2    -10.3234004  0.799450E-06  0.347E-02    2.73       1.4  T
   3    -10.3233978  0.252354E-05  0.347E-02    2.74       1.4  T
   4    -10.3234023 -0.441737E-05  0.746E-03    2.73       6.7  T
   5    -10.3234024 -0.145743E-06  0.118E-03    2.73      42.5  T
   6    -10.3234024 -0.420775E-09  0.716E-04    2.73      69.9  T
   7    -10.3234024 -0.855264E-09  0.710E-05    2.73     703.9  T
     SCC iter.                  ...        0 min,  0.001 sec
     gradient                   ...        0 min,  0.001 sec
 * total energy  :   -10.1873097 Eh     change       -0.1507499E-04 Eh
   gradient norm :     0.0013620 Eh/α   predicted    -0.1030836E-04 ( -31.62%)
   displ. norm   :     0.0265695 α      lambda       -0.1877634E-04
   maximum displ.:     0.0225895 α      in ANC's #1, #4, #3, ...

........................................................................
.............................. CYCLE   13 ..............................
........................................................................
   1    -10.3229479 -0.103229E+02  0.100E-01    2.74       0.0  T
   2    -10.3229469  0.101467E-05  0.641E-02    2.73       1.0  T
   3    -10.3229231  0.237828E-04  0.746E-02    2.75       1.0  T
   4    -10.3229493 -0.261554E-04  0.525E-03    2.73       9.5  T
   5    -10.3229493 -0.283696E-07  0.315E-03    2.73      15.9  T
   6    -10.3229493 -0.250109E-08  0.121E-03    2.73      41.2  T
   7    -10.3229493 -0.428819E-08  0.210E-04    2.73     238.3  T
   8    -10.3229493 -0.810374E-11  0.535E-05    2.73     935.2  T
     SCC iter.                  ...        0 min,  0.001 sec
     gradient                   ...        0 min,  0.001 sec
 * total energy  :   -10.1873237 Eh     change       -0.1408922E-04 Eh
   gradient norm :     0.0014473 Eh/α   predicted    -0.9393096E-05 ( -33.33%)
   displ. norm   :     0.0098621 α      lambda       -0.4546656E-05
   maximum displ.:     0.0064132 α      in ANC's #1, #3, #2, ...

........................................................................
.............................. CYCLE   14 ..............................
........................................................................
   1    -10.3233259 -0.103233E+02  0.447E-02    2.74       0.0  T
   2    -10.3233260 -0.145110E-06  0.272E-02    2.74       1.8  T
   3    -10.3233257  0.329199E-06  0.101E-02    2.74       5.0  T
   4    -10.3233259 -0.160381E-06  0.655E-03    2.73       7.6  T
   5    -10.3233261 -0.221674E-06  0.136E-03    2.74      36.7  T
   6    -10.3233261 -0.600934E-09  0.578E-04    2.74      86.5  T
   7    -10.3233261 -0.990728E-09  0.936E-05    2.74     534.3  T
     SCC iter.                  ...        0 min,  0.001 sec
     gradient                   ...        0 min,  0.001 sec
 * total energy  :   -10.1873278 Eh     change       -0.4002371E-05 Eh
   gradient norm :     0.0004159 Eh/α   predicted    -0.2273432E-05 ( -43.20%)
   displ. norm   :     0.0020017 α      lambda       -0.2256396E-06
   maximum displ.:     0.0011702 α      in ANC's #3, #1, #4, ...

   *** GEOMETRY OPTIMIZATION CONVERGED AFTER 14 ITERATIONS ***

------------------------------------------------------------------------
 total energy gain   :        -0.1095051 Eh      -68.7155 kcal/mol
 total RMSD          :         0.6993615 a0        0.3701 Å
 total power (kW/mol):       -20.5361164 (step)-6777.5724 (real)
------------------------------------------------------------------------

 ANCopt (total)                0 d,  0 h,  0 min,  0.042 sec
 optimizer setup                ...        0 min,  0.000 sec (  0.181%)
 model hessian                  ...        0 min,  0.000 sec (  0.184%)
 ANC generation                 ...        0 min,  0.000 sec (  0.125%)
 coordinate transformation      ...        0 min,  0.000 sec (  0.080%)
 single point calculation       ...        0 min,  0.041 sec ( 96.634%)
 optimization log               ...        0 min,  0.000 sec (  0.839%)
 hessian update                 ...        0 min,  0.000 sec (  0.073%)
 rational function              ...        0 min,  0.000 sec (  0.726%)

================
 final structure:
================
4
 xtb: 6.2.2 (9d81278992624c895f80dd42a50cac0aa55982e2)
C         1.60565450839802   -0.10112509585654    0.04628893141281
C         0.36967462944305    0.04438791966289    0.01782033286387
C        -0.98391482673498   -0.58415796250474   -0.08941414189728
O        -0.99141531110610    0.64089413869839    0.02530487762061

 Bond Distances (Angstroems)
 ---------------------------
C1-C2=1.2448         C2-C1=1.2448         C2-C3=1.4963         C2-O4=1.4861         C3-C2=1.4963         C3-O4=1.2304         
O4-C2=1.4861         O4-C3=1.2304         
 C  C  Rav=1.3705 sigma=0.1257  Rmin=1.2448  Rmax=1.4963     2
 O  C  Rav=1.3583 sigma=0.1278  Rmin=1.2304  Rmax=1.4861     2

 selected bond angles (degree)
 --------------------
C3-C2-C1=148.29                O4-C2-C1=162.97                O4-C2-C3= 48.73                O4-C3-C2= 65.20                
C3-O4-C2= 66.07                

 selected dihedral angles (degree)
 ---------------------------------
O4-C3-C2-C1=180.17            C3-O4-C2-C1=179.70            
           -------------------------------------------------
          |                Final Singlepoint                |
           -------------------------------------------------

          ...................................................
          :                      SETUP                      :
          :.................................................:
          :  # basis functions                  16          :
          :  # atomic orbitals                  16          :
          :  # shells                            8          :
          :  # electrons                        18          :
          :  max. iterations                   250          :
          :  Hamiltonian                  GFN2-xTB          :
          :  restarted?                      false          :
          :  GBSA solvation                  false          :
          :  PC potential                    false          :
          :  electronic temp.          300.0000000     K    :
          :  accuracy                    1.0000000          :
          :  -> integral cutoff          0.2500000E+02      :
          :  -> integral neglect         0.1000000E-07      :
          :  -> SCF convergence          0.1000000E-05 Eh   :
          :  -> wf. convergence          0.1000000E-03 e    :
          :  Broyden damping             0.4000000          :
          ...................................................

 iter      E             dE          RMSdq      gap      omega  full diag
   1    -10.3233261 -0.103233E+02  0.153E-05    2.74       0.0  T
   2    -10.3233261  0.222045E-12  0.148E-05    2.74    3377.0  T
   3    -10.3233261 -0.289546E-12  0.799E-06    2.74    6256.5  T

   *** convergence criteria satisfied after 3 iterations ***

         #    Occupation            Energy/Eh            Energy/eV
      -------------------------------------------------------------
         1        2.0000           -0.8295510             -22.5732
       ...           ...                  ...                  ...
         3        2.0000           -0.6934170             -18.8688
         4        2.0000           -0.6559953             -17.8505
         5        2.0000           -0.6470225             -17.6064
         6        2.0000           -0.5385392             -14.6544
         7        2.0000           -0.4856894             -13.2163
         8        2.0000           -0.4623589             -12.5814
         9        2.0000           -0.4540111             -12.3543 (HOMO)
        10                         -0.3534434              -9.6177 (LUMO)
        11                         -0.3507840              -9.5453
        12                         -0.2117295              -5.7615
        13                         -0.1188224              -3.2333
        14                         -0.0014034              -0.0382
       ...                                ...                  ...
        16                          0.8981741              24.4406
      -------------------------------------------------------------
                  HL-Gap            0.1005677 Eh            2.7366 eV
             Fermi-level           -0.4037273 Eh          -10.9860 eV

 SCC (total)                   0 d,  0 h,  0 min,  0.003 sec
 SCC setup                      ...        0 min,  0.000 sec (  1.940%)
 Dispersion                     ...        0 min,  0.000 sec (  0.325%)
 integral evaluation            ...        0 min,  0.001 sec ( 38.170%)
 zeroth order Hamiltonian       ...        0 min,  0.000 sec (  0.461%)
 iterations                     ...        0 min,  0.000 sec ( 17.859%)
 molecular gradient             ...        0 min,  0.001 sec ( 37.529%)
 printout                       ...        0 min,  0.000 sec (  3.332%)

         :::::::::::::::::::::::::::::::::::::::::::::::::::::
         ::                     SUMMARY                     ::
         :::::::::::::::::::::::::::::::::::::::::::::::::::::
         :: total energy             -10.187327751727 Eh    ::
         :: gradient norm              0.000428866594 Eh/a0 ::
         :: HOMO-LUMO gap              2.736587344844 eV    ::
         ::.................................................::
         :: SCC energy               -10.323326100443 Eh    ::
         :: -> isotropic ES           -0.007705515110 Eh    ::
         :: -> anisotropic ES          0.004538954956 Eh    ::
         :: -> anisotropic XC          0.004358907276 Eh    ::
         :: -> dispersion             -0.001661802997 Eh    ::
         :: repulsion energy           0.135998344567 Eh    ::
         :: add. restraining           0.000000000000 Eh    ::
         :::::::::::::::::::::::::::::::::::::::::::::::::::::

           ------------------------------------------------- 
          |                Numerical Hessian                |
           ------------------------------------------------- 
step length          :   0.00500
SCC accuracy         :   0.30000
Hessian scale factor :   1.00000
frozen atoms in %    :   0.00000    0
RMS gradient         :   0.00043
estimated CPU  time      0.00 min
estimated wall time      0.00 min

writing file <hessian>.

 projected vibrational frequencies (cm-1)
eigval :       -0.00    -0.00     0.00     0.00     0.00     0.00
eigval :      283.68   360.75   594.44   780.35  1538.96  1940.42
           -------------------------------------------------
          |                Property Printout                |
           -------------------------------------------------

    * Orbital Energies and Occupations

         #    Occupation            Energy/Eh            Energy/eV
      -------------------------------------------------------------
         1        2.0000           -0.8295510             -22.5732
         2        2.0000           -0.7054841             -19.1972
         3        2.0000           -0.6934170             -18.8688
         4        2.0000           -0.6559953             -17.8505
         5        2.0000           -0.6470226             -17.6064
         6        2.0000           -0.5385392             -14.6544
         7        2.0000           -0.4856893             -13.2163
         8        2.0000           -0.4623589             -12.5814
         9        2.0000           -0.4540111             -12.3543 (HOMO)
        10                         -0.3534434              -9.6177 (LUMO)
        11                         -0.3507839              -9.5453
        12                         -0.2117295              -5.7615
        13                         -0.1188224              -3.2333
Molecule has the following symmetry elements: (sigma) 
It seems to be the Cs point group
        14                         -0.0014034              -0.0382
        15                          0.4257131              11.5842
        16                          0.8981742              24.4406
      -------------------------------------------------------------
                  HL-Gap            0.1005677 Eh            2.7366 eV
             Fermi-level           -0.4037272 Eh          -10.9860 eV

     #   Z        covCN         q      C6AA      α(0)
     1   6 C      0.981    -0.149    40.779    10.726
     2   6 C      2.796     0.136    25.022     8.194
     3   6 C      1.833     0.060    29.636     8.795
     4   8 O      1.693    -0.047    15.106     5.247

 Mol. C6AA /au·bohr⁶  :        426.942129
 Mol. C8AA /au·bohr⁸  :      11603.414784
 Mol. α(0) /au        :         32.962672


Wiberg/Mayer (AO) data.
largest (>0.10) Wiberg bond orders for each atom
          total WBO             WBO to atom ...
     1  C   2.762        C    2 2.357    C    3 0.218    O    4 0.186
     2  C   3.774        C    1 2.357    C    3 0.739    O    4 0.678
     3  C   2.671        O    4 1.715    C    2 0.739    C    1 0.218
     4  O   2.579        C    3 1.715    C    2 0.678    C    1 0.186

MOs/occ written to file <molden.input>


molecular dipole:
                 x           y           z       tot (Debye)
 q only:       -0.380      -0.084      -0.021
   full:       -0.914       0.452       0.011       2.592
molecular quadrupole (traceless):
                xx          xy          yy          xz          yz          zz
 q only:       -1.262       0.487       0.630      -0.020       0.017       0.632
  q+dip:       -2.317      -0.153       0.245      -0.170      -0.179       2.072
   full:       -3.936       0.006       0.509      -0.258      -0.277       3.427

           -------------------------------------------------
          |                Geometry Summary                 |
           -------------------------------------------------

      molecular mass/u    :       52.0316126
   center of mass at/Å    :       -0.0760004       0.0491302       0.0019400
  moments of inertia/u·Å² :        0.1031672E+02   0.6016941E+02   0.7048612E+02
rotational constants/cm⁻¹ :        0.1634010E+01   0.2801695E+00   0.2391625E+00

 * 2 selected distances

     #   Z        #   Z                                     value/Å
     1   6 C      2   6 C                                 1.2448417 (max)
     3   6 C      4   8 O                                 1.2304346 (min)

 * 2 distinct bonds (by element types)

   Z      Z             #   av. dist./Å        max./Å        min./Å
   6 C    6 C           1     1.2448417     1.2448417     1.2448417
   6 C    8 O           1     1.2304346     1.2304346     1.2304346

           -------------------------------------------------
          |               Frequency Printout                |
           -------------------------------------------------
 projected vibrational frequencies (cm-1)
eigval :       -0.00    -0.00     0.00     0.00     0.00     0.00
eigval :      283.68   360.75   594.44   780.35  1538.96  1940.42
 reduced masses (amu)
   1: 13.49   2: 12.59   3: 12.06   4: 12.83   5: 14.72   6: 13.68   7: 12.52   8: 12.22
   9: 13.99  10: 12.40  11: 13.28  12: 12.31
 IR intensities (amu)
   1:  0.06   2:  0.23   3:  0.16   4:  0.12   5:  0.22   6:  0.19   7:  0.26   8:  0.20
   9:  0.28  10:  1.00  11:  1.56  12:  0.42
 Raman intensities (amu)
   1:  0.00   2:  0.00   3:  0.00   4:  0.00   5:  0.00   6:  0.00   7:  0.00   8:  0.00
   9:  0.00  10:  0.00  11:  0.00  12:  0.00
 output can be read by thermo (or use thermo option).
 writing <g98.out> molden fake output.
 recommended (thermochemical) frequency scaling factor: 1.0
           -------------------------------------------------
          |             Thermodynamic Functions             |
           -------------------------------------------------

cs  symmetry found (for desy threshold:  0.10E+00) used in thermo

          ...................................................
          :                      SETUP                      :
          :.................................................:
          :  # frequencies                           6      :
          :  # imaginary freq.                       0      :
          :  linear?                             false      :
          :  only rotor calc.                    false      :
          :  symmetry                               cs      :
          :  rotational number                       1      :
          :  scaling factor                  1.0000000      :
          :  rotor cutoff                   50.0000000 cm⁻¹ :
          :  imag. cutoff                  -20.0000000 cm⁻¹ :
          :.................................................:

    mode    ω/cm⁻¹     T·S(HO)/kcal·mol⁻¹    T·S(FR)/kcal·mol⁻¹   T·S(vib)
   ------------------------------------------------------------------------
       1    283.68    -0.00000 ( 99.90%)     0.01556 (  0.10%)     0.00001
   ------------------------------------------------------------------------

   temp. (K)  partition function   enthalpy   heat capacity  entropy
                                   cal/mol     cal/K/mol   cal/K/mol   J/K/mol
 298.15  VIB   1.77                  654.357      5.065      3.326
         ROT  0.160E+05              888.752      2.981     22.216
         INT  0.282E+05             1543.109      8.046     25.541
         TR   0.363E+27             1481.254      4.968     37.753
         TOT                        3024.3630    13.0138    63.2949   264.8260

   temp. (K)  partition function   enthalpy   heat capacity  entropy
                                   cal/mol     cal/K/mol   cal/K/mol   J/K/mol
 120.00  VIB   1.05                   43.355      1.421      0.458
         ROT  0.408E+04              357.707      2.981     19.503
         INT  0.428E+04              401.062      4.402     19.960
         TR   0.927E+26              596.178      4.968     33.234
         TOT                         997.2395     9.3704    53.1945   222.5660

   temp. (K)  partition function   enthalpy   heat capacity  entropy
                                   cal/mol     cal/K/mol   cal/K/mol   J/K/mol
 100.00  VIB   1.02                   20.063      0.911      0.247
         ROT  0.310E+04              298.089      2.981     18.959
         INT  0.318E+04              318.152      3.892     19.206
         TR   0.705E+26              496.815      4.968     32.329
         TOT                         814.9674     8.8602    51.5347   215.6212

   temp. (K)  partition function   enthalpy   heat capacity  entropy
                                   cal/mol     cal/K/mol   cal/K/mol   J/K/mol
  80.00  VIB   1.01                    6.578      0.452      0.098
         ROT  0.222E+04              238.471      2.981     18.294
         INT  0.224E+04              245.050      3.433     18.392
         TR   0.505E+26              397.452      4.968     31.221
         TOT                         642.5016     8.4008    49.6127   207.5796

   temp. (K)  partition function   enthalpy   heat capacity  entropy
                                   cal/mol     cal/K/mol   cal/K/mol   J/K/mol
  60.00  VIB   1.00                    1.084      0.129      0.021
         ROT  0.144E+04              178.853      2.981     17.437
         INT  0.144E+04              179.937      3.110     17.457
         TR   0.328E+26              298.089      4.968     29.792
         TOT                         478.0262     8.0777    47.2495   197.6918

   temp. (K)  partition function   enthalpy   heat capacity  entropy
                                   cal/mol     cal/K/mol   cal/K/mol   J/K/mol
  40.00  VIB   1.00                    0.032      0.008      0.000
         ROT   785.                  119.236      2.981     16.228
         INT   785.                  119.268      2.989     16.228
         TR   0.178E+26              198.726      4.968     27.779
         TOT                         317.9940     7.9575    44.0071   184.1258

   temp. (K)  partition function   enthalpy   heat capacity  entropy
                                   cal/mol     cal/K/mol   cal/K/mol   J/K/mol
  20.00  VIB   1.00                    0.000      0.000     -0.001
         ROT   278.                   59.618      2.981     14.162
         INT   278.                   59.618      2.981     14.160
         TR   0.631E+25               99.363      4.968     24.337
         TOT                         158.9808     7.9490    38.4971   161.0718

   temp. (K)  partition function   enthalpy   heat capacity  entropy
                                   cal/mol     cal/K/mol   cal/K/mol   J/K/mol
  10.00  VIB   1.00                    0.000      0.000     -0.002
         ROT   98.2                   29.809      2.981     12.095
         INT   98.2                   29.809      2.981     12.093
         TR   0.223E+25               49.681      4.968     20.895
         TOT                          79.4904     7.9490    32.9879   138.0216

       T/K    H(0)-H(T)+PV         H(T)/Eh          T*S/Eh         G(T)/Eh
   ------------------------------------------------------------------------
    298.15    0.481963E-02    0.173464E-01    0.300735E-01   -0.127271E-01
    120.00    0.158920E-02    0.141159E-01    0.101725E-01    0.394343E-02
    100.00    0.129873E-02    0.138255E-01    0.821258E-02    0.561289E-02
     80.00    0.102389E-02    0.135506E-01    0.632503E-02    0.722560E-02
     60.00    0.761783E-03    0.132885E-01    0.451781E-02    0.877071E-02
     40.00    0.506756E-03    0.130335E-01    0.280519E-02    0.102283E-01
     20.00    0.253352E-03    0.127801E-01    0.122698E-02    0.115531E-01
     10.00    0.126676E-03    0.126534E-01    0.525696E-03    0.121277E-01 (used)
   ------------------------------------------------------------------------

         :::::::::::::::::::::::::::::::::::::::::::::::::::::
         ::                  THERMODYNAMIC                  ::
         :::::::::::::::::::::::::::::::::::::::::::::::::::::
         :: total free energy         -10.175200034269 Eh   ::
         ::.................................................::
         :: total energy              -10.187327751796 Eh   ::
         :: zero point energy           0.012526737916 Eh   ::
         :: G(RRHO) w/o ZPVE           -0.000399020389 Eh   ::
         :: G(RRHO) contrib.            0.012127717527 Eh   ::
         :::::::::::::::::::::::::::::::::::::::::::::::::::::

optimized geometry written to: xtbopt.xyz


           -------------------------------------------------
          | TOTAL ENERGY              -10.187327751796 Eh   |
          | TOTAL ENTHALPY            -10.174674337864 Eh   |
          | TOTAL FREE ENERGY         -10.175200034269 Eh   |
          | GRADIENT NORM               0.000428745419 Eh/α |
          | HOMO-LUMO GAP               2.736586176167 eV   |
           -------------------------------------------------

------------------------------------------------------------------------
 * finished run on 2020/05/12 at 11:45:18.452     
------------------------------------------------------------------------
 total:
 * wall-time:     0 d,  0 h,  0 min,  0.135 sec
 *  cpu-time:     0 d,  0 h,  0 min,  0.135 sec
 * ratio c/w:     0.999 speedup
 SCF:
 * wall-time:     0 d,  0 h,  0 min,  0.004 sec
 *  cpu-time:     0 d,  0 h,  0 min,  0.004 sec
 * ratio c/w:     1.000 speedup
 ANC optimizer:
 * wall-time:     0 d,  0 h,  0 min,  0.046 sec
 *  cpu-time:     0 d,  0 h,  0 min,  0.046 sec
 * ratio c/w:     0.999 speedup
 numerical hessian:
 * wall-time:     0 d,  0 h,  0 min,  0.066 sec
 *  cpu-time:     0 d,  0 h,  0 min,  0.066 sec
 * ratio c/w:     0.999 speedup

