[Molden Format]
[Title]
[Atoms] AU
C      1     6  0.23314196697373E+01 -0.40840451529935E-01 -0.15116860667929E-01
N      2     7  0.25803870219313E+00  0.15772940247251E+01 -0.77198350743157E-01
C      3     6 -0.14316342521142E+01 -0.22293778888860E-01 -0.15095661447426E+01
C      4     6 -0.14065299760171E+01  0.12120665642022E+00  0.15274616373217E+01
C      5     6  0.24870396648153E+00 -0.16353664507133E+01  0.74421608564617E-01
[GTO]
           1 0
 s           4   1.0000000000000000     
   51.049363095579913      -0.16312063210127389     
   8.7911227406887544      -0.19911024581000730     
  0.70640422258929825       0.31882047753655751     
  0.26922813413411617       0.12706504184240380     
 p           4   1.0000000000000000     
   5.8263656140800002       0.73716451545209605     
   1.5106896018720002       0.68216371614850257     
  0.53256483288000001       0.35783053929253711     
  0.21202323690600003        5.3983030275847881E-002

           2 0
 s           4   1.0000000000000000     
   63.594024466941008      -0.19234388414721629     
   10.951417231523665      -0.23478107924953728     
  0.87999310257376984       0.37593753901700888     
  0.33538715296521110       0.14982889271862770     
 p           4   1.0000000000000000     
   7.2965040481495080       0.97658666315667420     
   1.8918745450712575       0.90372226730345739     
  0.66694432110824120       0.47404958461536373     
  0.26552202674130870        7.1516067715011844E-002

           3 0
 s           4   1.0000000000000000     
   51.049363095579913      -0.16312063210127389     
   8.7911227406887544      -0.19911024581000730     
  0.70640422258929825       0.31882047753655751     
  0.26922813413411617       0.12706504184240380     
 p           4   1.0000000000000000     
   5.8263656140800002       0.73716451545209605     
   1.5106896018720002       0.68216371614850257     
  0.53256483288000001       0.35783053929253711     
  0.21202323690600003        5.3983030275847881E-002

           4 0
 s           4   1.0000000000000000     
   51.049363095579913      -0.16312063210127389     
   8.7911227406887544      -0.19911024581000730     
  0.70640422258929825       0.31882047753655751     
  0.26922813413411617       0.12706504184240380     
 p           4   1.0000000000000000     
   5.8263656140800002       0.73716451545209605     
   1.5106896018720002       0.68216371614850257     
  0.53256483288000001       0.35783053929253711     
  0.21202323690600003        5.3983030275847881E-002

           5 0
 s           4   1.0000000000000000     
   51.049363095579913      -0.16312063210127389     
   8.7911227406887544      -0.19911024581000730     
  0.70640422258929825       0.31882047753655751     
  0.26922813413411617       0.12706504184240380     
 p           4   1.0000000000000000     
   5.8263656140800002       0.73716451545209605     
   1.5106896018720002       0.68216371614850257     
  0.53256483288000001       0.35783053929253711     
  0.21202323690600003        5.3983030275847881E-002

[MO]
Sym=     1a
Ene=  -0.79857207213070602     
Spin= Alpha
Occup=     2.00000000
           1  0.22082584713186323     
           2 -0.13105676864074661     
           3   1.8718480697951898E-003
           4   8.6140469805232305E-004
           5  0.30691776448768016     
           6  -2.6519690342637164E-002
           7 -0.24735000924942099     
           8   1.2008680151124624E-002
           9  0.20996104358379231     
          10   7.9271842075713320E-002
          11   3.8171551646422790E-003
          12   8.6350363543821737E-002
          13  0.21005605990386467     
          14   7.7873187299446908E-002
          15  -4.3917776797432438E-003
          16  -8.7618540196315806E-002
          17  0.27074878988947615     
          18  -9.7576281346769475E-003
          19  0.15707195797121917     
          20  -7.2620623855754523E-003
Sym=     2a
Ene=  -0.70442425416454169     
Spin= Alpha
Occup=     2.00000000
           1 -0.45053929237148299     
           2   8.3023810972240764E-002
           3  -3.2456429528187856E-002
           4   9.9484486749580972E-004
           5  -2.9552021724583079E-002
           6 -0.40485965684733771     
           7   3.8848364691947156E-002
           8   1.0861878060528429E-003
           9  0.26270195571587962     
          10  -4.6200384446640985E-002
          11   3.5604383931142167E-002
          12  0.10829894347271665     
          13  0.26223561664261963     
          14  -4.8264049297151591E-002
          15   2.5237845676998310E-002
          16 -0.11048544125096629     
          17  -5.9611283190287689E-002
          18 -0.26282403751330852     
          19  -2.3612372628678692E-002
          20   2.9913569318931101E-003
Sym=     3a
Ene=  -0.65905465449100453     
Spin= Alpha
Occup=     2.00000000
           1   1.4331132412214183E-004
           2  -1.5922663331707789E-003
           3  -1.1262007288023635E-002
           4 -0.21886986942575520     
           5  -1.7124922619519303E-003
           6  -3.4869047638438665E-003
           7  -2.3096505082616264E-002
           8 -0.47379769818020157     
           9  0.35932428854369075     
          10  0.13118841472790213     
          11   2.5059228263946295E-002
          12  -8.3423684813343071E-002
          13 -0.35961602618402061     
          14 -0.13233208768426627     
          15  -3.4270631125240966E-002
          16  -7.8311368411377369E-002
          17   1.7827375409462192E-003
          18  -2.2844968597670991E-003
          19  -1.4469965901119972E-002
          20 -0.30430636801429173     
Sym=     4a
Ene=  -0.65615566528034686     
Spin= Alpha
Occup=     2.00000000
           1  -1.8920841037481012E-002
           2  -2.6626243020191342E-003
           3  0.26802202179530321     
           4  -1.3413358810232050E-002
           5  0.57708839332340156     
           6   1.0414004302336166E-002
           7  0.16023733458575493     
           8  -9.1496339460878026E-003
           9  -3.2901207717815038E-002
          10   1.2577379858488067E-002
          11  0.21770713130249356     
          12  -1.3625741341608483E-002
          13  -3.5385161824632201E-002
          14   1.1732829376872686E-002
          15  0.21785316327714713     
          16  -7.7264198464377159E-003
          17 -0.44337087837085459     
          18   1.5352337356362235E-002
          19   7.4235445732173777E-002
          20  -4.8207411454064394E-003
Sym=     5a
Ene=  -0.58063110972433751     
Spin= Alpha
Occup=     2.00000000
           1  0.11940110607910323     
           2   4.9683741908393718E-002
           3 -0.43053789744225091     
           4   1.9959830671724847E-002
           5  -6.7129493867908140E-003
           6 -0.42660727897294065     
           7   2.3735367991167176E-002
           8   1.9039189269969249E-003
           9  -5.4507392245043772E-002
          10   2.5447052754358143E-002
          11  0.25564615431760418     
          12  -6.0316212594781734E-003
          13  -5.4390525369058432E-002
          14   2.5314519709800087E-002
          15  0.25453215822379172     
          16  -1.8437314297813368E-002
          17   3.2245864675647481E-002
          18  0.42480931318832282     
          19  -2.0264675633140605E-002
          20  -2.0490111530854956E-003
Sym=     6a
Ene=  -0.52880822090480095     
Spin= Alpha
Occup=     2.00000000
           1 -0.26158524465137450     
           2 -0.15677274510955855     
           3  -8.4777089969983760E-002
           4   5.1934950268139940E-003
           5  0.45447875985766950     
           6   6.3008181405026947E-004
           7  0.48714253164133448     
           8  -2.3068732937266669E-002
           9 -0.13330206010753054     
          10  0.11928129044840632     
          11  -7.0039915289360724E-002
          12  -1.1199321812405327E-002
          13 -0.13293518485408981     
          14  0.11946321408106254     
          15  -6.8811370664052685E-002
          16   1.5937051237849185E-002
          17  0.49958059754918155     
          18  -2.9861582352519973E-002
          19 -0.38161001220204654     
          20   1.8372890074022385E-002
Sym=     7a
Ene=  -0.51880225155639470     
Spin= Alpha
Occup=     2.00000000
           1 -0.54122057447092475     
           2 -0.39531971876790789     
           3  -6.4634343985166941E-003
           4   3.2470800012404017E-003
           5  -9.3041336784189854E-002
           6  -5.2252795944720189E-002
           7 -0.36973453406286322     
           8   1.8121885766888123E-002
           9 -0.26164091745234103     
          10  0.28915727630818538     
          11   2.7679924275124362E-002
          12  -4.4982624412637492E-002
          13 -0.26111285654656152     
          14  0.28977183000133400     
          15   3.1890720285691641E-002
          16   3.7604453165841198E-002
          17  -9.4074761257134196E-002
          18   1.3094221942802381E-003
          19  0.18086497730966497     
          20  -8.7927150619493150E-003
Sym=     8a
Ene=  -0.51696398385424802     
Spin= Alpha
Occup=     2.00000000
           1   3.0459782626643118E-004
           2   3.4297008153952053E-004
           3   6.0618117340206562E-004
           4   1.5939171615443899E-002
           5  -2.1374455526523530E-004
           6   3.7826588454911970E-003
           7   2.5182016174268514E-002
           8  0.53123378025764700     
           9  0.17326810418186786     
          10  -6.6341446027637432E-002
          11 -0.36677409237614733     
          12  -7.4785401258530323E-002
          13 -0.17332501979173640     
          14   6.4878276313401692E-002
          15  0.35859394693151830     
          16 -0.11014825865771580     
          17   5.0407181977662444E-004
          18  -3.4316208841099105E-003
          19  -2.2679160726974387E-002
          20 -0.47284636977283839     
Sym=     9a
Ene=  -0.48130247401603587     
Spin= Alpha
Occup=     2.00000000
           1  -2.6352588686004918E-004
           2  -3.5968339163228772E-003
           3  -2.2068168174141634E-002
           4 -0.46646877982784096     
           5  -3.4413391480871792E-005
           6  -1.1861151782519721E-004
           7  -2.1690619382348287E-003
           8  -4.5367461530357527E-002
           9 -0.45358540893525423     
          10  0.25736348544803167     
          11 -0.10114034158205563     
          12  0.24229965844395868     
          13  0.45434419088732175     
          14 -0.25453125450567815     
          15  0.12395018309864522     
          16  0.23589436910630526     
          17   1.5508632031710620E-004
          18  -1.8163412382552183E-003
          19  -1.3456099788050267E-002
          20 -0.28426755849815727     
Sym=    10a
Ene=  -0.45453943145669690     
Spin= Alpha
Occup=     1.99999997
           1 -0.16770959436618763     
           2 -0.26787765794902557     
           3  -5.6525109286847550E-002
           4   5.0259202426743369E-003
           5  -1.3283327158285400E-002
           6  0.10711296089696057     
           7   6.5939653538822654E-002
           8  -4.0055676397067874E-003
           9  0.41553841795815116     
          10  -6.8576629378331491E-002
          11   1.2828496698776381E-002
          12 -0.50571825602194864     
          13  0.41507044724199071     
          14  -5.9974564926203129E-002
          15   6.0435314650541409E-002
          16  0.50308883942166949     
          17  -1.2091126683558259E-002
          18  0.13476079182398115     
          19   2.4877709499974462E-002
          20  -2.2873765604483924E-003
Sym=    11a
Ene=  -0.42134292659948724     
Spin= Alpha
Occup=     1.00000003
           1 -0.23723786027514118     
           2 -0.52721499643357572     
           3  -4.8300056681557832E-002
           4   4.8319257830301658E-003
           5   6.9392059599232897E-003
           6  0.23634706029061528     
           7  -1.8870588877841349E-002
           8  -4.9788232453055299E-004
           9  -1.9707933361606297E-002
          10 -0.45380861042906306     
          11   5.4487785409290668E-002
          12  0.25726008472163475     
          13  -2.0995129706089317E-002
          14 -0.45620750652724074     
          15   2.9968029662907413E-002
          16 -0.25482021373332370     
          17   7.3953589449790424E-003
          18  0.25057699983826076     
          19  -1.8479827833437410E-002
          20  -4.7865680317875760E-004
Sym=    12a
Ene=  -0.36149720202261659     
Spin= Alpha
Occup=     0.00000000
           1   2.1784205110047535E-002
           2   3.8722289367546348E-002
           3  0.37569024441275517     
           4  -1.7037042372333795E-002
           5 -0.11513079620356127     
           6   8.2808200937426902E-003
           7 -0.53043404026044771     
           8   2.4596772274695419E-002
           9   2.9020775062646526E-002
          10  -1.7513457023138428E-002
          11  0.29110838288108715     
          12  -4.7633777760398725E-002
          13   2.9167629072931751E-002
          14  -1.7769408428025765E-002
          15  0.29373793775960361     
          16   2.0547282227927798E-002
          17  0.25752519729801099     
          18  -1.4276169404005680E-002
          19 -0.71108326310100600     
          20   3.3563595294901813E-002
Sym=    13a
Ene=  -0.35708181489077068     
Spin= Alpha
Occup=     0.00000000
           1   7.2343927175345108E-005
           2  -5.0347573189479479E-003
           3  -3.9768064252561491E-002
           4 -0.85336987673048037     
           5  -1.6263655151578071E-004
           6   9.0982995188449117E-004
           7   8.5306237493245080E-003
           8  0.19176942619285098     
           9   6.5406271448266509E-002
          10 -0.38048281117807536     
          11   7.5082624871251197E-002
          12 -0.11227532414555336     
          13  -6.4984608999955479E-002
          14  0.38072787830554483     
          15  -8.5190551046975649E-002
          16 -0.10966074290679986     
          17   2.0884403955945583E-004
          18   1.1670507035412892E-003
          19   9.8508593189666222E-003
          20  0.22505652140423241     
Sym=    14a
Ene=  -0.17492463666109670     
Spin= Alpha
Occup=     0.00000000
           1   3.9773877688575064E-006
           2  -1.2291953938067964E-003
           3  -7.2651410695060469E-003
           4 -0.15778589410854962     
           5  -1.4835922315601939E-004
           6   3.4986558671755191E-003
           7   2.1953130085096025E-002
           8  0.46154499272297578     
           9  -6.3364250948512210E-002
          10  0.52203339115709280     
          11  0.13121037932598392     
          12 -0.55931923308506082     
          13   6.3337129189235689E-002
          14 -0.53091043111223868     
          15 -0.18300774577113615     
          16 -0.53553238887900068     
          17   4.4401073735610890E-005
          18   2.0365621498317360E-003
          19   1.2075477761085614E-002
          20  0.25423394269371846     
Sym=    15a
Ene=  -0.11666476007292566     
Spin= Alpha
Occup=     0.00000000
           1   4.8952196069732981E-005
           2   3.9441022059701043E-004
           3   5.1585970792089320E-003
           4   8.3680817909004446E-002
           5  -6.9734469774921010E-004
           6   2.9105472851041264E-003
           7   2.2661446509025115E-002
           8  0.46359606202227438     
           9   1.5960427762096194E-002
          10  -6.8886339414853615E-002
          11  0.68564243467305541     
          12  0.12198200435002665     
          13  -1.5867749710843392E-002
          14   7.1486260980111516E-002
          15 -0.67182243863359925     
          16  0.18465448975888493     
          17   4.9954983958102358E-004
          18  -4.3986553948753117E-003
          19  -3.1295719570883805E-002
          20 -0.67436876376896260     
Sym=    16a
Ene=   -2.9636872371908232E-002
Spin= Alpha
Occup=     0.00000000
           1  -7.4439595595053490E-002
           2  0.15875980761561737     
           3 -0.42566060146800860     
           4   1.9100081346838660E-002
           5  0.77881463728694778     
           6 -0.11326662360840990     
           7 -0.61081811943720998     
           8   3.0355873943425673E-002
           9  -4.8021876615590167E-002
          10 -0.12722633058242377     
          11 -0.45789468115610210     
          12  -6.6962019781247190E-002
          13  -4.7834687658156419E-002
          14 -0.12564333877335176     
          15 -0.45029772149533981     
          16  0.11178052160130360     
          17 -0.49692870300779951     
          18  0.10291318121177405     
          19 -0.40051473082632655     
          20   1.7347404794674018E-002
Sym=    17a
Ene=    4.6806012324203922E-002
Spin= Alpha
Occup=     0.00000000
           1 -0.16825025664540141     
           2  0.22819657109245003     
           3 -0.79396718141520617     
           4   3.5963547283820591E-002
           5   8.5887361733861939E-002
           6  0.85768181823959744     
           7  -9.5014962487322802E-002
           8  -1.3956882591393955E-003
           9   8.3957540404505815E-002
          10   9.3887164008588389E-002
          11  0.37308561442853727     
          12   5.7846374739898294E-002
          13   8.4120681430191011E-002
          14   9.2777758775511698E-002
          15  0.36394470752180569     
          16  -9.4192250213596354E-002
          17  -7.8642193217661166E-002
          18 -0.50253851037422026     
          19  -4.5842226395454794E-002
          20   5.0897835308948737E-003
Sym=    18a
Ene=   0.13668565822699333     
Spin= Alpha
Occup=     0.00000000
           1   5.6682569627192810E-003
           2  -5.8450012494221338E-003
           3  -1.1468806751263987E-002
           4 -0.18909241379765476     
           5   2.1425332662820371E-003
           6  -1.3366968959017981E-003
           7   2.1363334867311852E-002
           8  0.48392626914812542     
           9  0.61532315308097385     
          10  0.35785558976929460     
          11   1.3070170361376398E-002
          12  0.61603370018424009     
          13 -0.62537691122901817     
          14 -0.35607445935198684     
          15   4.9331648459546039E-002
          16  0.62782126756114043     
          17   2.4129866478201523E-003
          18  -6.5733538540917093E-003
          19   2.6739024386777305E-002
          20  0.52228978188992192     
Sym=    19a
Ene=   0.15315865892821512     
Spin= Alpha
Occup=     0.00000000
           1  0.47325742116531722     
           2 -0.35731659929628518     
           3 -0.19397893326215146     
           4   1.3809991966969847E-002
           5  0.17546215852019958     
           6 -0.44079634607044543     
           7 -0.12078760939117598     
           8   3.5374380641858493E-003
           9 -0.43309014383903471     
          10 -0.37086352396988354     
          11  0.14097721100131524     
          12 -0.32347332402908818     
          13 -0.41790851600701617     
          14 -0.35700874403678118     
          15  0.16932085341045239     
          16  0.30002188970798305     
          17  0.23265957670067242     
          18 -0.89034954880244299     
          19  0.19882785484379203     
          20  -9.0710797691377406E-003
Sym=    20a
Ene=   0.40254423343024537     
Spin= Alpha
Occup=     0.00000000
           1 -0.70702131236527976     
           2  0.80917142975492806     
           3  0.20329912217657384     
           4  -1.5114402299417858E-002
           5  0.42613587982989964     
           6  0.12916252361013100     
           7 -0.32297080615928092     
           8   1.4597747379036572E-002
           9 -0.22485211616931974     
          10 -0.31206224256392073     
          11   6.4553573571873218E-002
          12 -0.18180288224541322     
          13 -0.22511257886512373     
          14 -0.30895504715832373     
          15   8.1771337211203360E-002
          16  0.18023105585341287     
          17  0.84302784402114217     
          18  0.28759696438523030     
          19  0.65964588415552505     
          20  -3.2715305152878127E-002
