      -----------------------------------------------------------      
     |                   =====================                   |     
     |                           x T B                           |     
     |                   =====================                   |     
     |                         S. Grimme                         |     
     |          Mulliken Center for Theoretical Chemistry        |     
     |                    University of Bonn                     |     
      -----------------------------------------------------------      

   * xtb version 6.2.2 (9d81278992624c895f80dd42a50cac0aa55982e2) compiled by '@Darwin' on 04/03/2020

   xtb is free software: you can redistribute it and/or modify it under
   the terms of the GNU Lesser General Public License as published by
   the Free Software Foundation, either version 3 of the License, or
   (at your option) any later version.
   
   xtb is distributed in the hope that it will be useful,
   but WITHOUT ANY WARRANTY; without even the implied warranty of
   MERCHANTABILITY or FITNESS FOR A PARTICULAR PURPOSE.  See the
   GNU Lesser General Public License for more details.
   
   Cite this work as:
   * S. Grimme, C. Bannwarth, P. Shushkov, J. Chem. Theory Comput., 2017,
     13, 1989-2009. DOI: 10.1021/acs.jctc.7b00118
   * C. Bannwarth, S. Ehlert and S. Grimme., J. Chem. Theory Comput., 2019,
     15, 1652-1671. DOI: 10.1021/acs.jctc.8b01176
   * P. Pracht, E. Caldeweyher, S. Ehlert, S. Grimme, ChemRxiv, 2019, preprint.
     DOI: 10.26434/chemrxiv.8326202.v1
   
   for DFT-D4:
   * E. Caldeweyher, C. Bannwarth and S. Grimme, J. Chem. Phys., 2017,
     147, 034112. DOI: 10.1063/1.4993215
   * E. Caldeweyher, S. Ehlert, A. Hansen, H. Neugebauer, S. Spicher,
     C. Bannwarth and S. Grimme, J. Chem. Phys., 2019, 150, 154122.
     DOI: 10.1063/1.5090222
   
   for sTDA-xTB:
   * S. Grimme and C. Bannwarth, J. Chem. Phys., 2016, 145, 054103.
     DOI: 10.1063/1.4959605
   
   in the mass-spec context:
   * V. Asgeirsson, C. Bauer and S. Grimme, Chem. Sci., 2017, 8, 4879.
     DOI: 10.1039/c7sc00601b
   
   for metadynamics refer to:
   * S. Grimme, J. Chem. Theory Comput., 2019, 155, 2847-2862
     DOI: 10.1021/acs.jctc.9b00143
   
   with help from (in alphabetical order)
   C. Bannwarth, F. Bohle, G. Brandenburg, E. Caldeweyher, M. Checinski,
   S. Dohm, S. Ehlert, S. Ehrlich, F. März, H. Neugebauer, J. Pisarek,
   P. Pracht, P. Shushkov, and S. Spicher.
   
 * started run on 2020/05/12 at 11:44:22.016     

           -------------------------------------------------
          |                Calculation Setup                |
           -------------------------------------------------

          program call               : xtb --input C4N1_53_S_1.input C4N1_53_S_1.xyz --ohess --molden --namespace C4N1_53_S_1 output.out
          calculation namespace      : C4N1_53_S_1
          coordinate file            : C4N1_53_S_1.xyz
          number of atoms            :                     5
          number of electrons        :                    21
          charge                     :                     0
          spin                       :                   0.5
          first test random number   :      0.48173224227898

   ID    Z sym.   atoms
    1    6 C      1, 3-5
    2    7 N      2

           -------------------------------------------------
          |                 G F N 2 - x T B                 |
           -------------------------------------------------

        Reference                      10.1021/acs.jctc.8b01176
      * Hamiltonian:
        H0-scaling (s, p, d)           1.850000    2.230000    2.230000
        zeta-weighting                 0.500000
      * Dispersion:
        s8                             2.700000
        a1                             0.520000
        a2                             5.000000
        s9                             5.000000
      * Repulsion:
        kExp                           1.500000    1.000000
        rExp                           1.000000
      * Coulomb:
        alpha                          2.000000
        third order                    shell-resolved
        anisotropic                    true
        a3                             3.000000
        a5                             4.000000
        cn-shift                       1.200000
        cn-exp                         4.000000
        max-rad                        5.000000


          ...................................................
          :                      SETUP                      :
          :.................................................:
          :  # basis functions                  20          :
          :  # atomic orbitals                  20          :
          :  # shells                           10          :
          :  # electrons                        21          :
          :  max. iterations                   250          :
          :  Hamiltonian                  GFN2-xTB          :
          :  restarted?                      false          :
          :  GBSA solvation                  false          :
          :  PC potential                    false          :
          :  electronic temp.          300.0000000     K    :
          :  accuracy                    1.0000000          :
          :  -> integral cutoff          0.2500000E+02      :
          :  -> integral neglect         0.1000000E-07      :
          :  -> SCF convergence          0.1000000E-05 Eh   :
          :  -> wf. convergence          0.1000000E-03 e    :
          :  Broyden damping             0.4000000          :
          ...................................................

 iter      E             dE          RMSdq      gap      omega  full diag
   1    -11.0286720 -0.110287E+02  0.920E+00    2.36       0.0  T
   2    -10.5417547  0.486917E+00  0.872E+00    0.50       1.0  T
   3    -10.3944940  0.147261E+00  0.872E+00    2.45       1.0  T
   4    -11.0425199 -0.648026E+00  0.362E+00    1.20       1.0  T
   5    -11.1229692 -0.804493E-01  0.228E+00    1.84       1.0  T
   6    -11.1253253 -0.235617E-02  0.205E+00    1.90       1.0  T
   7    -11.1276504 -0.232505E-02  0.768E-01    2.03       1.0  T
   8    -11.1276561 -0.570930E-05  0.249E-01    2.10       1.0  T
   9    -11.1277371 -0.810212E-04  0.153E-01    2.08       1.0  T
  10    -11.1277718 -0.346647E-04  0.132E-01    2.07       1.0  T
  11    -11.1278163 -0.445161E-04  0.334E-02    2.07       1.3  T
  12    -11.1278233 -0.698125E-05  0.191E-02    2.06       2.3  T
  13    -11.1278239 -0.630625E-06  0.226E-03    2.06      19.8  T
  14    -11.1278239 -0.172381E-07  0.164E-03    2.06      27.3  T
  15    -11.1278239 -0.115805E-08  0.193E-04    2.06     231.3  T
  16    -11.1278239 -0.236273E-10  0.660E-05    2.06     677.9  T

   *** convergence criteria satisfied after 16 iterations ***

         #    Occupation            Energy/Eh            Energy/eV
      -------------------------------------------------------------
         1        2.0000           -0.7894895             -21.4831
       ...           ...                  ...                  ...
         5        2.0000           -0.5590141             -15.2115
         6        2.0000           -0.5491049             -14.9419
         7        2.0000           -0.4989825             -13.5780
         8        2.0000           -0.4896698             -13.3246
         9        2.0000           -0.4640839             -12.6284
        10        1.9998           -0.4627429             -12.5919
        11        1.0002           -0.4464435             -12.1483 (HOMO)
        12                         -0.3708586             -10.0916 (LUMO)
        13                         -0.3131731              -8.5219
        14                         -0.1569376              -4.2705
        15                         -0.0860499              -2.3415
        16                         -0.0392741              -1.0687
       ...                                ...                  ...
        20                          0.2567684               6.9870
      -------------------------------------------------------------
                  HL-Gap            0.0755849 Eh            2.0568 eV
             Fermi-level           -0.4315703 Eh          -11.7436 eV

 SCC (total)                   0 d,  0 h,  0 min,  0.005 sec
 SCC setup                      ...        0 min,  0.000 sec (  1.378%)
 Dispersion                     ...        0 min,  0.000 sec (  0.505%)
 integral evaluation            ...        0 min,  0.001 sec ( 26.182%)
 zeroth order Hamiltonian       ...        0 min,  0.000 sec (  0.443%)
 iterations                     ...        0 min,  0.002 sec ( 41.482%)
 molecular gradient             ...        0 min,  0.002 sec ( 28.012%)
 printout                       ...        0 min,  0.000 sec (  1.790%)

         :::::::::::::::::::::::::::::::::::::::::::::::::::::
         ::                     SUMMARY                     ::
         :::::::::::::::::::::::::::::::::::::::::::::::::::::
         :: total energy             -11.006848045314 Eh    ::
         :: gradient norm              0.119577139533 Eh/a0 ::
         :: HOMO-LUMO gap              2.056769383096 eV    ::
         ::.................................................::
         :: SCC energy               -11.127823936090 Eh    ::
         :: -> isotropic ES           -0.010759282190 Eh    ::
         :: -> anisotropic ES          0.005214075883 Eh    ::
         :: -> anisotropic XC          0.009158422868 Eh    ::
         :: -> dispersion             -0.002679994025 Eh    ::
         :: repulsion energy           0.120975870406 Eh    ::
         :: add. restraining           0.000000000000 Eh    ::
         :::::::::::::::::::::::::::::::::::::::::::::::::::::

      ----------------------------------------------------------- 
     |                   =====================                   |
     |                        A N C O P T                        |
     |                   =====================                   |
     |               Approximate Normal Coordinate               |
     |                Rational Function Optimizer                |
      ----------------------------------------------------------- 

          ...................................................
          :                      SETUP                      :
          :.................................................:
          :   optimization level            normal          :
          :   max. optcycles                   200          :
          :   ANC micro-cycles                  20          :
          :   degrees of freedom                 9          :
          :.................................................:
          :   RF solver                   davidson          :
          :   write xtbopt.log                true          :
          :   linear?                        false          :
          :   energy convergence         0.5000000E-05 Eh   :
          :   grad. convergence          0.1000000E-02 Eh/α :
          :   maximium RF displ.         1.0000000          :
          :   Hlow (freq-cutoff)         0.1000000E-01      :
          :   Hmax (freq-cutoff)         5.0000000          :
          :   S6 in model hess.         20.0000000          :
          ...................................................

generating ANC from model Hessian ...
Using Lindh-Hessian (1995)
 Shifting diagonal of input Hessian by    0.0000000000000000     
 Lowest  eigenvalues of input Hessian
   -0.000000   -0.000000   -0.000000    0.000000    0.000000    0.000000
    0.143894    0.530674    0.680882    0.853001    1.047735    1.123078
    1.252432    1.493555    1.888279
 Highest eigenvalues
    0.853001    1.047735    1.123078    1.252432    1.493555    1.888279


........................................................................
.............................. CYCLE    1 ..............................
........................................................................
   1    -11.1278239 -0.111278E+02  0.174E-05    2.06       0.0  T
   2    -11.1278239  0.463629E-11  0.325E-05    2.06    1375.3  T
   3    -11.1278239 -0.484590E-11  0.179E-05    2.06    2492.3  T
     SCC iter.                  ...        0 min,  0.001 sec
     gradient                   ...        0 min,  0.001 sec
 * total energy  :   -11.0068480 Eh     change       -0.1413838E-09 Eh
   gradient norm :     0.1195769 Eh/α   predicted     0.0000000E+00 (-100.00%)
   displ. norm   :     0.1338025 α      lambda       -0.1433957E-01
   maximum displ.:     0.1077871 α      in ANC's #2, #5, #7, ...

........................................................................
.............................. CYCLE    2 ..............................
........................................................................
   1    -11.1418108 -0.111418E+02  0.121E+00    2.24       0.0  T
   2    -11.1386604  0.315038E-02  0.970E-01    2.34       1.0  T
   3    -11.1264117  0.122487E-01  0.143E+00    1.95       1.0  T
   4    -11.1423605 -0.159488E-01  0.258E-01    2.24       1.0  T
   5    -11.1424173 -0.568057E-04  0.181E-01    2.22       1.0  T
   6    -11.1425912 -0.173863E-03  0.826E-02    2.24       1.0  T
   7    -11.1426081 -0.168976E-04  0.842E-03    2.24       5.3  T
   8    -11.1426079  0.141923E-06  0.883E-03    2.24       5.1  T
   9    -11.1426080 -0.515677E-07  0.750E-03    2.24       6.0  T
  10    -11.1426084 -0.404717E-06  0.244E-03    2.24      18.3  T
  11    -11.1426084 -0.302757E-08  0.155E-03    2.24      28.9  T
  12    -11.1426084 -0.960060E-08  0.399E-04    2.24     112.0  T
  13    -11.1426084 -0.786210E-09  0.830E-05    2.24     538.8  T
     SCC iter.                  ...        0 min,  0.001 sec
     gradient                   ...        0 min,  0.001 sec
 * total energy  :   -11.0181166 Eh     change       -0.1126852E-01 Eh
   gradient norm :     0.0699153 Eh/α   predicted    -0.7298147E-02 ( -35.23%)
   displ. norm   :     0.1870973 α      lambda       -0.1169009E-01
   maximum displ.:     0.1543190 α      in ANC's #2, #5, #7, ...

........................................................................
.............................. CYCLE    3 ..............................
........................................................................
   1    -11.1247530 -0.111248E+02  0.298E+00    2.41       0.0  T
   2    -10.9027194  0.222034E+00  0.543E+00    1.26       1.0  T
   3    -11.1553062 -0.252587E+00  0.983E-01    2.34       1.0  T
   4    -11.1517309  0.357525E-02  0.983E-01    2.35       1.0  T
   5    -11.1561865 -0.445561E-02  0.343E-01    2.32       1.0  T
   6    -11.1562309 -0.443336E-04  0.319E-01    2.30       1.0  T
   7    -11.1566195 -0.388642E-03  0.718E-02    2.31       1.0  T
   8    -11.1566340 -0.145407E-04  0.224E-02    2.31       2.0  T
   9    -11.1566299  0.414618E-05  0.370E-02    2.31       1.2  T
  10    -11.1566373 -0.737371E-05  0.441E-03    2.31      10.1  T
  11    -11.1566373 -0.545131E-07  0.276E-03    2.31      16.2  T
  12    -11.1566374 -0.351034E-07  0.113E-03    2.31      39.7  T
  13    -11.1566374 -0.743195E-08  0.686E-05    2.31     651.5  T
  14    -11.1566374 -0.695088E-11  0.252E-05    2.31    1776.1  T
     SCC iter.                  ...        0 min,  0.001 sec
     gradient                   ...        0 min,  0.002 sec
 * total energy  :   -11.0252405 Eh     change       -0.7123902E-02 Eh
   gradient norm :     0.0329794 Eh/α   predicted    -0.6049657E-02 ( -15.08%)
   displ. norm   :     0.0906088 α      lambda       -0.2160869E-02
   maximum displ.:     0.0791794 α      in ANC's #2, #9, #4, ...

........................................................................
.............................. CYCLE    4 ..............................
........................................................................
   1    -11.1433112 -0.111433E+02  0.159E+00    2.31       0.0  T
   2    -11.0089802  0.134331E+00  0.395E+00    1.66       1.0  T
   3    -11.1528496 -0.143869E+00  0.736E-01    2.25       1.0  T
   4    -11.1549933 -0.214370E-02  0.359E-01    2.27       1.0  T
   5    -11.1552516 -0.258362E-03  0.222E-01    2.25       1.0  T
   6    -11.1554668 -0.215116E-03  0.112E-01    2.26       1.0  T
   7    -11.1554969 -0.301506E-04  0.400E-02    2.25       1.1  T
   8    -11.1554991 -0.219043E-05  0.322E-02    2.26       1.4  T
   9    -11.1555034 -0.434695E-05  0.138E-02    2.25       3.2  T
  10    -11.1555045 -0.101360E-05  0.412E-04    2.25     108.5  T
  11    -11.1555045 -0.133031E-10  0.244E-04    2.25     183.6  T
  12    -11.1555045 -0.226130E-09  0.980E-05    2.25     456.5  T
     SCC iter.                  ...        0 min,  0.001 sec
     gradient                   ...        0 min,  0.001 sec
 * total energy  :   -11.0269316 Eh     change       -0.1691118E-02 Eh
   gradient norm :     0.0284220 Eh/α   predicted    -0.1089302E-02 ( -35.59%)
   displ. norm   :     0.1569563 α      lambda       -0.2866486E-02
   maximum displ.:     0.1396733 α      in ANC's #2, #4, #9, ...

........................................................................
.............................. CYCLE    5 ..............................
........................................................................
   1    -11.1411447 -0.111411E+02  0.154E+00    1.60       0.0  T
   2    -11.0604247  0.807201E-01  0.306E+00    1.37       1.0  T
   3    -11.1436590 -0.832343E-01  0.101E+00    1.51       1.0  T
   4    -11.1495484 -0.588940E-02  0.282E-01    1.53       1.0  T
   5    -11.1495838 -0.354720E-04  0.114E-01    1.52       1.0  T
   6    -11.1495501  0.337252E-04  0.101E-01    1.50       1.0  T
   7    -11.1496048 -0.546924E-04  0.181E-02    1.52       2.5  T
   8    -11.1496048 -0.587474E-07  0.561E-03    1.52       8.0  T
   9    -11.1496049 -0.137752E-07  0.820E-04    1.52      54.6  T
  10    -11.1496049 -0.139556E-08  0.447E-04    1.52     100.1  T
     SCC iter.                  ...        0 min,  0.001 sec
     gradient                   ...        0 min,  0.002 sec
 * total energy  :   -11.0285536 Eh     change       -0.1621987E-02 Eh
   gradient norm :     0.0265099 Eh/α   predicted    -0.1468552E-02 (  -9.46%)
   displ. norm   :     0.0278793 α      lambda       -0.6548699E-03
   maximum displ.:     0.0214250 α      in ANC's #5, #2, #7, ...

........................................................................
.............................. CYCLE    6 ..............................
........................................................................
   1    -11.1482315 -0.111482E+02  0.263E-01    1.52       0.0  T
   2    -11.1480056  0.225868E-03  0.214E-01    1.51       1.0  T
   3    -11.1472586  0.747071E-03  0.338E-01    1.52       1.0  T
   4    -11.1482589 -0.100032E-02  0.159E-02    1.52       2.8  T
   5    -11.1482592 -0.298574E-06  0.834E-03    1.52       5.4  T
   6    -11.1482592  0.331753E-07  0.518E-03    1.52       8.6  T
   7    -11.1482593 -0.137917E-06  0.127E-03    1.52      35.3  T
   8    -11.1482593 -0.791233E-08  0.553E-04    1.52      80.9  T
   9    -11.1482593 -0.178597E-09  0.164E-04    1.52     272.5  T
     SCC iter.                  ...        0 min,  0.001 sec
     gradient                   ...        0 min,  0.001 sec
 * total energy  :   -11.0291295 Eh     change       -0.5759737E-03 Eh
   gradient norm :     0.0217739 Eh/α   predicted    -0.3276881E-03 ( -43.11%)
   displ. norm   :     0.0980018 α      lambda       -0.1978677E-02
   maximum displ.:     0.0775022 α      in ANC's #5, #7, #2, ...

........................................................................
.............................. CYCLE    7 ..............................
........................................................................
   1    -11.1480117 -0.111480E+02  0.905E-01    1.62       0.0  T
   2    -11.1476621  0.349519E-03  0.546E-01    1.59       1.0  T
   3    -11.1376275  0.100347E-01  0.105E+00    1.64       1.0  T
   4    -11.1480434 -0.104160E-01  0.102E-01    1.63       1.0  T
   5    -11.1481078 -0.643907E-04  0.393E-02    1.61       1.1  T
   6    -11.1481124 -0.455901E-05  0.181E-02    1.61       2.5  T
   7    -11.1481125 -0.172468E-06  0.333E-03    1.61      13.4  T
   8    -11.1481126 -0.328971E-07  0.161E-03    1.61      27.8  T
   9    -11.1481126 -0.134668E-08  0.252E-04    1.61     177.5  T
  10    -11.1481126 -0.302917E-09  0.131E-04    1.61     341.2  T
     SCC iter.                  ...        0 min,  0.001 sec
     gradient                   ...        0 min,  0.001 sec
 * total energy  :   -11.0302216 Eh     change       -0.1092092E-02 Eh
   gradient norm :     0.0078539 Eh/α   predicted    -0.9988400E-03 (  -8.54%)
   displ. norm   :     0.0244366 α      lambda       -0.9586567E-04
   maximum displ.:     0.0202389 α      in ANC's #2, #5, #7, ...

........................................................................
.............................. CYCLE    8 ..............................
........................................................................
   1    -11.1489318 -0.111489E+02  0.181E-01    1.57       0.0  T
   2    -11.1489211  0.106966E-04  0.109E-01    1.56       1.0  T
   3    -11.1486400  0.281166E-03  0.181E-01    1.57       1.0  T
   4    -11.1489345 -0.294504E-03  0.390E-02    1.57       1.1  T
   5    -11.1489438 -0.935224E-05  0.137E-02    1.56       3.3  T
   6    -11.1489449 -0.105011E-05  0.366E-03    1.57      12.2  T
   7    -11.1489449 -0.111235E-07  0.667E-04    1.57      67.0  T
   8    -11.1489449 -0.146082E-08  0.280E-04    1.57     159.7  T
     SCC iter.                  ...        0 min,  0.001 sec
     gradient                   ...        0 min,  0.001 sec
 * total energy  :   -11.0302730 Eh     change       -0.5138754E-04 Eh
   gradient norm :     0.0045946 Eh/α   predicted    -0.4796017E-04 (  -6.67%)
   displ. norm   :     0.0097335 α      lambda       -0.3386154E-04
   maximum displ.:     0.0057658 α      in ANC's #5, #2, #8, ...

........................................................................
.............................. CYCLE    9 ..............................
........................................................................
   1    -11.1497841 -0.111498E+02  0.864E-02    1.62       0.0  T
   2    -11.1497804  0.373931E-05  0.531E-02    1.62       1.0  T
   3    -11.1496882  0.922408E-04  0.101E-01    1.62       1.0  T
   4    -11.1497850 -0.968709E-04  0.771E-03    1.62       5.8  T
   5    -11.1497853 -0.217495E-06  0.332E-03    1.62      13.5  T
   6    -11.1497853 -0.421338E-07  0.231E-03    1.62      19.3  T
   7    -11.1497853 -0.156860E-07  0.280E-04    1.62     159.5  T
   8    -11.1497853  0.557776E-11  0.176E-04    1.62     254.1  T
     SCC iter.                  ...        0 min,  0.001 sec
     gradient                   ...        0 min,  0.001 sec
 * total energy  :   -11.0302922 Eh     change       -0.1921367E-04 Eh
   gradient norm :     0.0027553 Eh/α   predicted    -0.1693065E-04 ( -11.88%)
   displ. norm   :     0.0041911 α      lambda       -0.1094409E-04
   maximum displ.:     0.0039504 α      in ANC's #7, #8, #5, ...

........................................................................
.............................. CYCLE   10 ..............................
........................................................................
   1    -11.1499186 -0.111499E+02  0.406E-02    1.63       0.0  T
   2    -11.1499173  0.131198E-05  0.258E-02    1.63       1.7  T
   3    -11.1499086  0.876953E-05  0.368E-02    1.63       1.2  T
   4    -11.1499170 -0.842203E-05  0.176E-02    1.63       2.5  T
   5    -11.1499196 -0.263269E-05  0.183E-03    1.63      24.4  T
   6    -11.1499196 -0.868771E-08  0.872E-04    1.63      51.3  T
   7    -11.1499196 -0.939940E-09  0.132E-04    1.63     339.8  T
     SCC iter.                  ...        0 min,  0.001 sec
     gradient                   ...        0 min,  0.001 sec
 * total energy  :   -11.0302996 Eh     change       -0.7391808E-05 Eh
   gradient norm :     0.0014880 Eh/α   predicted    -0.5473819E-05 ( -25.95%)
   displ. norm   :     0.0041761 α      lambda       -0.3587800E-05
   maximum displ.:     0.0037837 α      in ANC's #7, #5, #1, ...

........................................................................
.............................. CYCLE   11 ..............................
........................................................................
   1    -11.1496530 -0.111497E+02  0.392E-02    1.63       0.0  T
   2    -11.1496500  0.299495E-05  0.304E-02    1.63       1.5  T
   3    -11.1496460  0.395066E-05  0.328E-02    1.63       1.4  T
   4    -11.1496512 -0.517183E-05  0.205E-02    1.63       2.2  T
   5    -11.1496546 -0.340968E-05  0.151E-03    1.63      29.5  T
   6    -11.1496546 -0.296825E-08  0.770E-04    1.63      58.1  T
   7    -11.1496546 -0.327672E-09  0.218E-04    1.63     205.0  T
     SCC iter.                  ...        0 min,  0.001 sec
     gradient                   ...        0 min,  0.001 sec
 * total energy  :   -11.0303016 Eh     change       -0.2020355E-05 Eh
   gradient norm :     0.0005565 Eh/α   predicted    -0.1793582E-05 ( -11.22%)
   displ. norm   :     0.0013662 α      lambda       -0.4174840E-06
   maximum displ.:     0.0010530 α      in ANC's #7, #1, #8, ...

   *** GEOMETRY OPTIMIZATION CONVERGED AFTER 11 ITERATIONS ***

------------------------------------------------------------------------
 total energy gain   :        -0.0234536 Eh      -14.7174 kcal/mol
 total RMSD          :         0.2547338 a0        0.1348 Å
 total power (kW/mol):        -5.5979482 (step)-1437.0056 (real)
------------------------------------------------------------------------

 ANCopt (total)                0 d,  0 h,  0 min,  0.043 sec
 optimizer setup                ...        0 min,  0.000 sec (  0.149%)
 model hessian                  ...        0 min,  0.000 sec (  0.226%)
 ANC generation                 ...        0 min,  0.000 sec (  0.123%)
 coordinate transformation      ...        0 min,  0.000 sec (  0.053%)
 single point calculation       ...        0 min,  0.042 sec ( 97.577%)
 optimization log               ...        0 min,  0.000 sec (  0.611%)
 hessian update                 ...        0 min,  0.000 sec (  0.053%)
 rational function              ...        0 min,  0.000 sec (  0.531%)

================
 final structure:
================
5
 xtb: 6.2.2 (9d81278992624c895f80dd42a50cac0aa55982e2)
C         1.23373441380010   -0.02160536446566   -0.00799523007107
N         0.13654398568473    0.83466891646915   -0.04084967832259
C        -0.75758544063411   -0.01179993332766   -0.79883074133659
C        -0.74430683612925    0.06413449843074    0.80829547781397
C         0.13161287727852   -0.86539811710657    0.03938117191628

 Bond Distances (Angstroems)
 ---------------------------
C1-N2=1.3922         C1-C5=1.3888         N2-C1=1.3922         N2-C3=1.4459         N2-C4=1.4459         N2-C5=1.7020         
C3-N2=1.4459         C3-C4=1.6090         C3-C5=1.4906         C4-N2=1.4459         C4-C3=1.6090         C4-C5=1.4908         
C5-C1=1.3888         C5-N2=1.7020         C5-C3=1.4906         C5-C4=1.4908         
 C  C  Rav=1.4948 sigma=0.0779  Rmin=1.3888  Rmax=1.6090     4
 N  C  Rav=1.4965 sigma=0.1207  Rmin=1.3922  Rmax=1.7020     4

 selected bond angles (degree)
 --------------------
C5-C1-N2= 75.47                C3-N2-C1= 98.03                C4-N2-C1= 97.96                C4-N2-C3= 67.61                
C5-N2-C1= 52.18                C5-N2-C3= 55.81                C5-N2-C4= 55.82                C4-C3-N2= 56.19                
C5-C3-N2= 70.83                C5-C3-C4= 57.34                C3-C4-N2= 56.19                C5-C4-N2= 70.82                
C5-C4-C3= 57.33                N2-C5-C1= 52.35                C3-C5-C1= 96.10                C3-C5-N2= 53.36                
C4-C5-C1= 96.03                C4-C5-N2= 53.36                C4-C5-C3= 65.32                

 selected dihedral angles (degree)
 ---------------------------------
C3-N2-C1-C5=325.88            C4-N2-C1-C5= 34.25            C4-C3-N2-C1= 95.35            C4-C3-N2-C5= 62.96            
C5-C3-N2-C1= 32.39            C5-C3-N2-C4=297.04            C3-C4-N2-C1=264.55            C3-C4-N2-C5=297.05            
C5-C4-N2-C1=327.50            C5-C4-N2-C3= 62.95            N2-C4-C3-C5= 87.69            C5-C4-C3-N2=272.31            
C3-C5-C1-N2= 32.81            C4-C5-C1-N2=327.08            C1-C5-N2-C3=137.82            C1-C5-N2-C4=222.35            
C3-C5-N2-C1=222.18            C3-C5-N2-C4= 84.53            C4-C5-N2-C1=137.65            C4-C5-N2-C3=275.47            
C1-C5-C3-N2=327.68            C1-C5-C3-C4=266.15            N2-C5-C3-C4=298.48            C4-C5-C3-N2= 61.52            
C1-C5-C4-N2= 32.44            C1-C5-C4-C3= 93.96            N2-C5-C4-C3= 61.53            C3-C5-C4-N2=298.47            
           -------------------------------------------------
          |                Final Singlepoint                |
           -------------------------------------------------

          ...................................................
          :                      SETUP                      :
          :.................................................:
          :  # basis functions                  20          :
          :  # atomic orbitals                  20          :
          :  # shells                           10          :
          :  # electrons                        21          :
          :  max. iterations                   250          :
          :  Hamiltonian                  GFN2-xTB          :
          :  restarted?                      false          :
          :  GBSA solvation                  false          :
          :  PC potential                    false          :
          :  electronic temp.          300.0000000     K    :
          :  accuracy                    1.0000000          :
          :  -> integral cutoff          0.2500000E+02      :
          :  -> integral neglect         0.1000000E-07      :
          :  -> SCF convergence          0.1000000E-05 Eh   :
          :  -> wf. convergence          0.1000000E-03 e    :
          :  Broyden damping             0.4000000          :
          ...................................................

 iter      E             dE          RMSdq      gap      omega  full diag
   1    -11.1496546 -0.111497E+02  0.818E-05    1.63       0.0  T
   2    -11.1496546  0.416911E-10  0.873E-05    1.63     512.3  T
   3    -11.1496546 -0.366178E-10  0.587E-05    1.63     762.0  T

   *** convergence criteria satisfied after 3 iterations ***

         #    Occupation            Energy/Eh            Energy/eV
      -------------------------------------------------------------
         1        2.0000           -0.7985720             -21.7302
       ...           ...                  ...                  ...
         5        2.0000           -0.5806309             -15.7998
         6        2.0000           -0.5288081             -14.3896
         7        2.0000           -0.5188020             -14.1173
         8        2.0000           -0.5169641             -14.0673
         9        2.0000           -0.4813024             -13.0969
        10        2.0000           -0.4545396             -12.3687
        11        1.0000           -0.4213428             -11.4653 (HOMO)
        12                         -0.3614971              -9.8368 (LUMO)
        13                         -0.3570814              -9.7167
        14                         -0.1749249              -4.7599
        15                         -0.1166649              -3.1746
        16                         -0.0296368              -0.8065
       ...                                ...                  ...
        20                          0.4025446              10.9538
      -------------------------------------------------------------
                  HL-Gap            0.0598458 Eh            1.6285 eV
             Fermi-level           -0.4146806 Eh          -11.2840 eV

 SCC (total)                   0 d,  0 h,  0 min,  0.003 sec
 SCC setup                      ...        0 min,  0.000 sec (  1.308%)
 Dispersion                     ...        0 min,  0.000 sec (  0.263%)
 integral evaluation            ...        0 min,  0.001 sec ( 38.329%)
 zeroth order Hamiltonian       ...        0 min,  0.000 sec (  0.464%)
 iterations                     ...        0 min,  0.000 sec ( 10.162%)
 molecular gradient             ...        0 min,  0.002 sec ( 46.331%)
 printout                       ...        0 min,  0.000 sec (  2.935%)

         :::::::::::::::::::::::::::::::::::::::::::::::::::::
         ::                     SUMMARY                     ::
         :::::::::::::::::::::::::::::::::::::::::::::::::::::
         :: total energy             -11.030301649617 Eh    ::
         :: gradient norm              0.000559433951 Eh/a0 ::
         :: HOMO-LUMO gap              1.628485907990 eV    ::
         ::.................................................::
         :: SCC energy               -11.149654610739 Eh    ::
         :: -> isotropic ES           -0.012613291227 Eh    ::
         :: -> anisotropic ES          0.006674030423 Eh    ::
         :: -> anisotropic XC          0.005745100247 Eh    ::
         :: -> dispersion             -0.002655216917 Eh    ::
         :: repulsion energy           0.119352940553 Eh    ::
         :: add. restraining           0.000000000000 Eh    ::
         :::::::::::::::::::::::::::::::::::::::::::::::::::::

           ------------------------------------------------- 
          |                Numerical Hessian                |
           ------------------------------------------------- 
step length          :   0.00500
SCC accuracy         :   0.30000
Hessian scale factor :   1.00000
frozen atoms in %    :   0.00000    0
RMS gradient         :   0.00056
estimated CPU  time      0.00 min
estimated wall time      0.00 min

writing file <hessian>.

 projected vibrational frequencies (cm-1)
eigval :       -0.00    -0.00    -0.00     0.00     0.00     0.00
eigval :     -282.72   511.59   686.91   712.46   881.40   972.16
eigval :      994.93  1290.66  1383.68
           -------------------------------------------------
          |                Property Printout                |
           -------------------------------------------------

    * Orbital Energies and Occupations

         #    Occupation            Energy/Eh            Energy/eV
      -------------------------------------------------------------
         1        2.0000           -0.7985721             -21.7303
         2        2.0000           -0.7044243             -19.1684
         3        2.0000           -0.6590547             -17.9338
         4        2.0000           -0.6561557             -17.8549
         5        2.0000           -0.5806311             -15.7998
         6        2.0000           -0.5288082             -14.3896
         7        2.0000           -0.5188023             -14.1173
         8        2.0000           -0.5169640             -14.0673
         9        2.0000           -0.4813025             -13.0969
        10        2.0000           -0.4545394             -12.3686
        11        1.0000           -0.4213429             -11.4653 (HOMO)
        12                         -0.3614972              -9.8368 (LUMO)
        13                         -0.3570818              -9.7167
        14                         -0.1749246              -4.7599
        15                         -0.1166648              -3.1746
        16                         -0.0296369              -0.8065
        17                          0.0468060               1.2737
        18                          0.1366857               3.7194
        19                          0.1531587               4.1677
        20                          0.4025442              10.9538
      -------------------------------------------------------------
                  HL-Gap            0.0598457 Eh            1.6285 eV
             Fermi-level           -0.4146806 Eh          -11.2840 eV

     #   Z        covCN         q      C6AA      α(0)
     1   6 C      2.332    -0.018    29.774     8.869
     2   7 N      3.552     0.055    20.283     6.689
     3   6 C      3.068    -0.075    29.796     8.951
     4   6 C      3.069    -0.075    29.793     8.950
     5   6 C      3.763     0.114    18.763     6.175

 Mol. C6AA /au·bohr⁶  :        634.034089
 Mol. C8AA /au·bohr⁸  :      17517.714098
 Mol. α(0) /au        :         39.633049


Wiberg/Mayer (AO) data.
largest (>0.10) Wiberg bond orders for each atom
          total WBO             WBO to atom ...
     1  C   2.891        C    5 1.240    N    2 1.041    C    4 0.306    C    3 0.305
     2  N   3.320        C    1 1.041    C    3 0.864    C    4 0.863    C    5 0.553
     3  C   2.638        N    2 0.864    C    5 0.842    C    4 0.628    C    1 0.305
Molecule has the following symmetry elements: (sigma) 
It seems to be the Cs point group
     4  C   2.638        N    2 0.863    C    5 0.842    C    3 0.628    C    1 0.306
     5  C   3.476        C    1 1.240    C    3 0.842    C    4 0.842    N    2 0.553

MOs/occ written to file <molden.input>


molecular dipole:
                 x           y           z       tot (Debye)
 q only:        0.212      -0.106       0.003
   full:        0.378      -0.076       0.000       0.979
molecular quadrupole (traceless):
                xx          xy          yy          xz          yz          zz
 q only:       -0.438      -0.018       0.806       0.001      -0.055      -0.368
  q+dip:       -1.300       0.116       2.474      -0.006      -0.174      -1.174
   full:       -1.720      -0.024       2.782       0.003      -0.182      -1.063

           -------------------------------------------------
          |                Geometry Summary                 |
           -------------------------------------------------

      molecular mass/u    :       62.0496468
   center of mass at/Å    :        0.0043922       0.0268490      -0.0013139
  moments of inertia/u·Å² :        0.3429524E+02   0.4786746E+02   0.5106935E+02
rotational constants/cm⁻¹ :        0.4915443E+00   0.3521731E+00   0.3300929E+00

 * 6 selected distances

     #   Z        #   Z                                     value/Å
     1   6 C      2   7 N                                 1.3921609
     2   7 N      3   6 C                                 1.4458604
     2   7 N      4   6 C                                 1.4459146
     1   6 C      5   6 C                                 1.3888494 (min)
     3   6 C      5   6 C                                 1.4906048
     4   6 C      5   6 C                                 1.4908036 (max)

 * 2 distinct bonds (by element types)

   Z      Z             #   av. dist./Å        max./Å        min./Å
   6 C    6 C           3     1.4567526     1.4908036     1.3888494
   6 C    7 N           3     1.4279786     1.4459146     1.3921609

           -------------------------------------------------
          |               Frequency Printout                |
           -------------------------------------------------
 projected vibrational frequencies (cm-1)
eigval :       -0.00    -0.00    -0.00     0.00     0.00     0.00
eigval :     -282.72   511.59   686.91   712.46   881.40   972.16
eigval :      994.93  1290.66  1383.68
 reduced masses (amu)
   1: 12.03   2: 12.35   3: 12.14   4: 12.44   5: 12.82   6: 12.56   7: 12.26   8: 12.15
   9: 12.56  10: 12.40  11: 12.85  12: 12.88  13: 12.21  14: 12.25  15: 12.25
 IR intensities (amu)
   1:  0.06   2:  0.06   3:  0.07   4:  0.08   5:  0.03   6:  0.01   7:  0.19   8:  0.49
   9:  0.06  10:  0.34  11:  0.13  12:  1.43  13:  0.45  14:  0.47  15:  0.56
 Raman intensities (amu)
   1:  0.00   2:  0.00   3:  0.00   4:  0.00   5:  0.00   6:  0.00   7:  0.00   8:  0.00
   9:  0.00  10:  0.00  11:  0.00  12:  0.00  13:  0.00  14:  0.00  15:  0.00
 output can be read by thermo (or use thermo option).
 writing <g98.out> molden fake output.
 recommended (thermochemical) frequency scaling factor: 1.0
           -------------------------------------------------
          |             Thermodynamic Functions             |
           -------------------------------------------------

cs  symmetry found (for desy threshold:  0.10E+00) used in thermo

          ...................................................
          :                      SETUP                      :
          :.................................................:
          :  # frequencies                           8      :
          :  # imaginary freq.                       1      :
          :  linear?                             false      :
          :  only rotor calc.                    false      :
          :  symmetry                               cs      :
          :  rotational number                       1      :
          :  scaling factor                  1.0000000      :
          :  rotor cutoff                   50.0000000 cm⁻¹ :
          :  imag. cutoff                  -20.0000000 cm⁻¹ :
          :.................................................:

    mode    ω/cm⁻¹     T·S(HO)/kcal·mol⁻¹    T·S(FR)/kcal·mol⁻¹   T·S(vib)
   ------------------------------------------------------------------------
   ------------------------------------------------------------------------

   temp. (K)  partition function   enthalpy   heat capacity  entropy
                                   cal/mol     cal/K/mol   cal/K/mol   J/K/mol
 298.15  VIB   1.21                  374.962      4.466      1.642
         ROT  0.221E+05              888.752      2.981     22.862
         INT  0.268E+05             1263.714      7.447     24.503
         TR   0.473E+27             1481.254      4.968     38.278
         TOT                        2744.9683    12.4155    62.7815   262.6779

   temp. (K)  partition function   enthalpy   heat capacity  entropy
                                   cal/mol     cal/K/mol   cal/K/mol   J/K/mol
 120.00  VIB   1.00                    4.205      0.237      0.040
         ROT  0.565E+04              357.707      2.981     20.149
         INT  0.566E+04              361.912      3.218     20.189
         TR   0.121E+27              596.178      4.968     33.759
         TOT                         958.0898     8.1859    53.9480   225.7184

   temp. (K)  partition function   enthalpy   heat capacity  entropy
                                   cal/mol     cal/K/mol   cal/K/mol   J/K/mol
 100.00  VIB   1.00                    1.115      0.087      0.013
         ROT  0.430E+04              298.089      2.981     19.605
         INT  0.430E+04              299.204      3.068     19.618
         TR   0.919E+26              496.815      4.968     32.853
         TOT                         796.0188     8.0364    52.4714   219.5402

   temp. (K)  partition function   enthalpy   heat capacity  entropy
                                   cal/mol     cal/K/mol   cal/K/mol   J/K/mol
  80.00  VIB   1.00                    0.162      0.019      0.002
         ROT  0.307E+04              238.471      2.981     18.940
         INT  0.307E+04              238.633      3.000     18.942
         TR   0.657E+26              397.452      4.968     31.745
         TOT                         636.0854     7.9683    50.6878   212.0776

   temp. (K)  partition function   enthalpy   heat capacity  entropy
                                   cal/mol     cal/K/mol   cal/K/mol   J/K/mol
  60.00  VIB   1.00                    0.007      0.001      0.000
         ROT  0.200E+04              178.853      2.981     18.083
         INT  0.200E+04              178.860      2.982     18.083
         TR   0.427E+26              298.089      4.968     30.317
         TOT                         476.9495     7.9505    48.3995   202.5035

   temp. (K)  partition function   enthalpy   heat capacity  entropy
                                   cal/mol     cal/K/mol   cal/K/mol   J/K/mol
  40.00  VIB   1.00                    0.000      0.000     -0.000
         ROT  0.109E+04              119.236      2.981     16.874
         INT  0.109E+04              119.236      2.981     16.874
         TR   0.232E+26              198.726      4.968     28.303
         TOT                         317.9616     7.9490    45.1772   189.0215

   temp. (K)  partition function   enthalpy   heat capacity  entropy
                                   cal/mol     cal/K/mol   cal/K/mol   J/K/mol
  20.00  VIB   1.00                    0.000      0.000     -0.000
         ROT   384.                   59.618      2.981     14.808
         INT   384.                   59.618      2.981     14.808
         TR   0.822E+25               99.363      4.968     24.861
         TOT                         158.9808     7.9490    39.6689   165.9748

   temp. (K)  partition function   enthalpy   heat capacity  entropy
                                   cal/mol     cal/K/mol   cal/K/mol   J/K/mol
  10.00  VIB   1.00                    0.000      0.000     -0.000
         ROT   136.                   29.809      2.981     12.742
         INT   136.                   29.809      2.981     12.741
         TR   0.290E+25               49.681      4.968     21.419
         TOT                          79.4904     7.9490    34.1606   142.9281

       T/K    H(0)-H(T)+PV         H(T)/Eh          T*S/Eh         G(T)/Eh
   ------------------------------------------------------------------------
    298.15    0.437439E-02    0.213098E-01    0.298295E-01   -0.851972E-02
    120.00    0.152681E-02    0.184622E-01    0.103166E-01    0.814564E-02
    100.00    0.126854E-02    0.182040E-01    0.836185E-02    0.984211E-02
     80.00    0.101367E-02    0.179491E-01    0.646209E-02    0.114870E-01
     60.00    0.760067E-03    0.176955E-01    0.462777E-02    0.130677E-01
     40.00    0.506704E-03    0.174421E-01    0.287978E-02    0.145623E-01
     20.00    0.253352E-03    0.171888E-01    0.126433E-02    0.159244E-01
     10.00    0.126676E-03    0.170621E-01    0.544384E-03    0.165177E-01 (used)
   ------------------------------------------------------------------------

         :::::::::::::::::::::::::::::::::::::::::::::::::::::
         ::                  THERMODYNAMIC                  ::
         :::::::::::::::::::::::::::::::::::::::::::::::::::::
         :: total free energy         -11.013783937434 Eh   ::
         ::.................................................::
         :: total energy              -11.030301649686 Eh   ::
         :: zero point energy           0.016935420666 Eh   ::
         :: G(RRHO) w/o ZPVE           -0.000417708413 Eh   ::
         :: G(RRHO) contrib.            0.016517712252 Eh   ::
         :::::::::::::::::::::::::::::::::::::::::::::::::::::
imag cut-off (cm-1) :    5.00
 found            1  significant imaginary frequency
 writing imag mode distorted coords to xtbhess.xyz
 for further optimization.

optimized geometry written to: xtbopt.xyz


           -------------------------------------------------
          | TOTAL ENERGY              -11.030301649686 Eh   |
          | TOTAL ENTHALPY            -11.013239553005 Eh   |
          | TOTAL FREE ENERGY         -11.013783937434 Eh   |
          | GRADIENT NORM               0.000559691133 Eh/α |
          | HOMO-LUMO GAP               1.628485055057 eV   |
           -------------------------------------------------

------------------------------------------------------------------------
 * finished run on 2020/05/12 at 11:44:22.197     
------------------------------------------------------------------------
 total:
 * wall-time:     0 d,  0 h,  0 min,  0.180 sec
 *  cpu-time:     0 d,  0 h,  0 min,  0.180 sec
 * ratio c/w:     0.999 speedup
 SCF:
 * wall-time:     0 d,  0 h,  0 min,  0.005 sec
 *  cpu-time:     0 d,  0 h,  0 min,  0.005 sec
 * ratio c/w:     0.995 speedup
 ANC optimizer:
 * wall-time:     0 d,  0 h,  0 min,  0.047 sec
 *  cpu-time:     0 d,  0 h,  0 min,  0.047 sec
 * ratio c/w:     0.999 speedup
 numerical hessian:
 * wall-time:     0 d,  0 h,  0 min,  0.111 sec
 *  cpu-time:     0 d,  0 h,  0 min,  0.110 sec
 * ratio c/w:     0.999 speedup

