      -----------------------------------------------------------      
     |                   =====================                   |     
     |                           x T B                           |     
     |                   =====================                   |     
     |                         S. Grimme                         |     
     |          Mulliken Center for Theoretical Chemistry        |     
     |                    University of Bonn                     |     
      -----------------------------------------------------------      

   * xtb version 6.2.2 (9d81278992624c895f80dd42a50cac0aa55982e2) compiled by '@Darwin' on 04/03/2020

   xtb is free software: you can redistribute it and/or modify it under
   the terms of the GNU Lesser General Public License as published by
   the Free Software Foundation, either version 3 of the License, or
   (at your option) any later version.
   
   xtb is distributed in the hope that it will be useful,
   but WITHOUT ANY WARRANTY; without even the implied warranty of
   MERCHANTABILITY or FITNESS FOR A PARTICULAR PURPOSE.  See the
   GNU Lesser General Public License for more details.
   
   Cite this work as:
   * S. Grimme, C. Bannwarth, P. Shushkov, J. Chem. Theory Comput., 2017,
     13, 1989-2009. DOI: 10.1021/acs.jctc.7b00118
   * C. Bannwarth, S. Ehlert and S. Grimme., J. Chem. Theory Comput., 2019,
     15, 1652-1671. DOI: 10.1021/acs.jctc.8b01176
   * P. Pracht, E. Caldeweyher, S. Ehlert, S. Grimme, ChemRxiv, 2019, preprint.
     DOI: 10.26434/chemrxiv.8326202.v1
   
   for DFT-D4:
   * E. Caldeweyher, C. Bannwarth and S. Grimme, J. Chem. Phys., 2017,
     147, 034112. DOI: 10.1063/1.4993215
   * E. Caldeweyher, S. Ehlert, A. Hansen, H. Neugebauer, S. Spicher,
     C. Bannwarth and S. Grimme, J. Chem. Phys., 2019, 150, 154122.
     DOI: 10.1063/1.5090222
   
   for sTDA-xTB:
   * S. Grimme and C. Bannwarth, J. Chem. Phys., 2016, 145, 054103.
     DOI: 10.1063/1.4959605
   
   in the mass-spec context:
   * V. Asgeirsson, C. Bauer and S. Grimme, Chem. Sci., 2017, 8, 4879.
     DOI: 10.1039/c7sc00601b
   
   for metadynamics refer to:
   * S. Grimme, J. Chem. Theory Comput., 2019, 155, 2847-2862
     DOI: 10.1021/acs.jctc.9b00143
   
   with help from (in alphabetical order)
   C. Bannwarth, F. Bohle, G. Brandenburg, E. Caldeweyher, M. Checinski,
   S. Dohm, S. Ehlert, S. Ehrlich, F. März, H. Neugebauer, J. Pisarek,
   P. Pracht, P. Shushkov, and S. Spicher.
   
 * started run on 2020/05/12 at 11:44:24.854     

           -------------------------------------------------
          |                Calculation Setup                |
           -------------------------------------------------

          program call               : xtb --input H1C1N1_0_S_0.input H1C1N1_0_S_0.xyz --ohess --molden --namespace H1C1N1_0_S_0 output.out
          calculation namespace      : H1C1N1_0_S_0
          coordinate file            : H1C1N1_0_S_0.xyz
          number of atoms            :                     3
          number of electrons        :                    10
          charge                     :                     0
          spin                       :                   0.0
          first test random number   :      0.82662437801839

   ID    Z sym.   atoms
    1    6 C      1
    2    7 N      2
    3    1 H      3

           -------------------------------------------------
          |                 G F N 2 - x T B                 |
           -------------------------------------------------

        Reference                      10.1021/acs.jctc.8b01176
      * Hamiltonian:
        H0-scaling (s, p, d)           1.850000    2.230000    2.230000
        zeta-weighting                 0.500000
      * Dispersion:
        s8                             2.700000
        a1                             0.520000
        a2                             5.000000
        s9                             5.000000
      * Repulsion:
        kExp                           1.500000    1.000000
        rExp                           1.000000
      * Coulomb:
        alpha                          2.000000
        third order                    shell-resolved
        anisotropic                    true
        a3                             3.000000
        a5                             4.000000
        cn-shift                       1.200000
        cn-exp                         4.000000
        max-rad                        5.000000


          ...................................................
          :                      SETUP                      :
          :.................................................:
          :  # basis functions                   9          :
          :  # atomic orbitals                   9          :
          :  # shells                            5          :
          :  # electrons                        10          :
          :  max. iterations                   250          :
          :  Hamiltonian                  GFN2-xTB          :
          :  restarted?                      false          :
          :  GBSA solvation                  false          :
          :  PC potential                    false          :
          :  electronic temp.          300.0000000     K    :
          :  accuracy                    1.0000000          :
          :  -> integral cutoff          0.2500000E+02      :
          :  -> integral neglect         0.1000000E-07      :
          :  -> SCF convergence          0.1000000E-05 Eh   :
          :  -> wf. convergence          0.1000000E-03 e    :
          :  Broyden damping             0.4000000          :
          ...................................................

 iter      E             dE          RMSdq      gap      omega  full diag
   1     -5.1982344 -0.519823E+01  0.109E+01    2.53       0.0  T
   2     -4.3938170  0.804417E+00  0.165E+01    3.59       1.0  T
   3     -5.3724007 -0.978584E+00  0.496E+00    2.12       1.0  T
   4     -5.3465891  0.258116E-01  0.291E+00    1.62       1.0  T
   5     -5.3613217 -0.147326E-01  0.224E+00    1.83       1.0  T
   6     -5.3703596 -0.903790E-02  0.135E+00    1.74       1.0  T
   7     -5.3763243 -0.596469E-02  0.829E-02    1.76       1.0  T
   8     -5.3762470  0.773026E-04  0.158E-01    1.77       1.0  T
   9     -5.3763244 -0.773780E-04  0.430E-02    1.76       1.3  T
  10     -5.3763303 -0.592172E-05  0.475E-03    1.76      12.2  T
  11     -5.3763303 -0.589395E-07  0.101E-03    1.76      57.2  T
  12     -5.3763303 -0.106301E-08  0.528E-04    1.76     109.4  T
  13     -5.3763303 -0.814605E-09  0.275E-05    1.76    2101.1  T

   *** convergence criteria satisfied after 13 iterations ***

         #    Occupation            Energy/Eh            Energy/eV
      -------------------------------------------------------------
         1        2.0000           -0.6272884             -17.0694
         2        2.0000           -0.5651320             -15.3780
         3        2.0000           -0.4929884             -13.4149
         4        2.0000           -0.4601938             -12.5225
         5        2.0000           -0.4404283             -11.9847 (HOMO)
         6                         -0.3756613             -10.2223 (LUMO)
         7                         -0.3274814              -8.9112
         8                          0.0583345               1.5874
         9                          0.1229808               3.3465
      -------------------------------------------------------------
                  HL-Gap            0.0647670 Eh            1.7624 eV
             Fermi-level           -0.4080448 Eh          -11.1035 eV

 SCC (total)                   0 d,  0 h,  0 min,  0.002 sec
 SCC setup                      ...        0 min,  0.000 sec (  9.290%)
 Dispersion                     ...        0 min,  0.000 sec (  0.604%)
 integral evaluation            ...        0 min,  0.001 sec ( 40.301%)
 zeroth order Hamiltonian       ...        0 min,  0.000 sec (  0.604%)
 iterations                     ...        0 min,  0.001 sec ( 32.907%)
 molecular gradient             ...        0 min,  0.000 sec ( 13.355%)
 printout                       ...        0 min,  0.000 sec (  2.287%)

         :::::::::::::::::::::::::::::::::::::::::::::::::::::
         ::                     SUMMARY                     ::
         :::::::::::::::::::::::::::::::::::::::::::::::::::::
         :: total energy              -5.350721730640 Eh    ::
         :: gradient norm              0.377906623475 Eh/a0 ::
         :: HOMO-LUMO gap              1.762400164198 eV    ::
         ::.................................................::
         :: SCC energy                -5.376330344438 Eh    ::
         :: -> isotropic ES            0.003979153530 Eh    ::
         :: -> anisotropic ES          0.001423573580 Eh    ::
         :: -> anisotropic XC          0.020140678927 Eh    ::
         :: -> dispersion             -0.000475840707 Eh    ::
         :: repulsion energy           0.025608613500 Eh    ::
         :: add. restraining           0.000000000000 Eh    ::
         :::::::::::::::::::::::::::::::::::::::::::::::::::::

      ----------------------------------------------------------- 
     |                   =====================                   |
     |                        A N C O P T                        |
     |                   =====================                   |
     |               Approximate Normal Coordinate               |
     |                Rational Function Optimizer                |
      ----------------------------------------------------------- 

          ...................................................
          :                      SETUP                      :
          :.................................................:
          :   optimization level            normal          :
          :   max. optcycles                   200          :
          :   ANC micro-cycles                  20          :
          :   degrees of freedom                 3          :
          :.................................................:
          :   RF solver                   davidson          :
          :   write xtbopt.log                true          :
          :   linear?                        false          :
          :   energy convergence         0.5000000E-05 Eh   :
          :   grad. convergence          0.1000000E-02 Eh/α :
          :   maximium RF displ.         1.0000000          :
          :   Hlow (freq-cutoff)         0.1000000E-01      :
          :   Hmax (freq-cutoff)         5.0000000          :
          :   S6 in model hess.         20.0000000          :
          ...................................................

generating ANC from model Hessian ...
Using Lindh-Hessian (1995)
 Shifting diagonal of input Hessian by    0.0000000000000000     
 Lowest  eigenvalues of input Hessian
   -0.000000   -0.000000    0.000000    0.000000    0.000000    0.000000
    0.103725    0.752470    1.068436
 Highest eigenvalues
    0.000000    0.000000    0.000000    0.103725    0.752470    1.068436


........................................................................
.............................. CYCLE    1 ..............................
........................................................................
   1     -5.3763303 -0.537633E+01  0.329E-05    1.76       0.0  T
   2     -5.3763303  0.428297E-10  0.112E-04    1.76     513.8  T
   3     -5.3763303 -0.461995E-10  0.659E-06    1.76    8762.0  T
     SCC iter.                  ...        0 min,  0.000 sec
     gradient                   ...        0 min,  0.000 sec
 * total energy  :    -5.3507217 Eh     change       -0.2186162E-10 Eh
   gradient norm :     0.3779066 Eh/α   predicted     0.0000000E+00 (-100.00%)
   displ. norm   :     0.3560762 α      lambda       -0.1315841E+00
   maximum displ.:     0.2680345 α      in ANC's #3, #2, #1, ...

........................................................................
.............................. CYCLE    2 ..............................
........................................................................
   1     -5.5433591 -0.554336E+01  0.259E+00    3.53       0.0  T
   2     -5.5434605 -0.101373E-03  0.148E+00    3.44       1.0  T
   3     -5.5408678  0.259265E-02  0.998E-01    3.45       1.0  T
   4     -5.5436469 -0.277905E-02  0.186E-01    3.36       1.0  T
   5     -5.5436897 -0.428604E-04  0.382E-02    3.37       1.5  T
   6     -5.5436934 -0.370825E-05  0.127E-02    3.37       4.6  T
   7     -5.5436936 -0.173467E-06  0.346E-03    3.37      16.7  T
   8     -5.5436936 -0.344165E-07  0.488E-04    3.37     118.4  T
   9     -5.5436936 -0.522674E-09  0.128E-04    3.37     450.2  T
     SCC iter.                  ...        0 min,  0.000 sec
     gradient                   ...        0 min,  0.000 sec
 * total energy  :    -5.4610940 Eh     change       -0.1103723E+00 Eh
   gradient norm :     0.1765980 Eh/α   predicted    -0.7413381E-01 ( -32.83%)
   displ. norm   :     0.4996265 α      lambda       -0.7135735E-01
   maximum displ.:     0.3756701 α      in ANC's #1, #2, #3, ...

........................................................................
.............................. CYCLE    3 ..............................
........................................................................
   1     -5.6791830 -0.567918E+01  0.258E+00    6.29       0.0  T
   2     -5.6796093 -0.426346E-03  0.146E+00    6.29       1.0  T
   3     -5.6794366  0.172688E-03  0.384E-01    6.18       1.0  T
   4     -5.6797477 -0.311130E-03  0.115E-01    6.22       1.0  T
   5     -5.6797566 -0.889763E-05  0.192E-02    6.22       3.0  T
   6     -5.6797567 -0.492146E-07  0.353E-03    6.22      16.4  T
   7     -5.6797567 -0.208733E-07  0.578E-04    6.22      99.8  T
   8     -5.6797567 -0.301013E-10  0.529E-05    6.22    1091.6  T
     SCC iter.                  ...        0 min,  0.000 sec
     gradient                   ...        0 min,  0.000 sec
 * total energy  :    -5.4641983 Eh     change       -0.3104301E-02 Eh
   gradient norm :     0.5032445 Eh/α   predicted    -0.4458501E-01 (1336.23%)
   displ. norm   :     0.3593771 α      lambda       -0.8766056E-01
   maximum displ.:     0.3407288 α      in ANC's #1, #3, #2, ...

........................................................................
.............................. CYCLE    4 ..............................
........................................................................
   1     -5.5904284 -0.559043E+01  0.170E+00    5.27       0.0  T
   2     -5.5905415 -0.113060E-03  0.957E-01    5.39       1.0  T
   3     -5.5897689  0.772517E-03  0.606E-01    5.42       1.0  T
   4     -5.5906582 -0.889312E-03  0.666E-02    5.49       1.0  T
   5     -5.5906593 -0.104228E-05  0.184E-02    5.50       3.1  T
   6     -5.5906596 -0.281243E-06  0.388E-03    5.50      14.9  T
   7     -5.5906596 -0.251744E-07  0.927E-04    5.50      62.3  T
   8     -5.5906596 -0.224919E-09  0.109E-04    5.50     529.1  T
     SCC iter.                  ...        0 min,  0.000 sec
     gradient                   ...        0 min,  0.000 sec
 * total energy  :    -5.4947238 Eh     change       -0.3052547E-01 Eh
   gradient norm :     0.0970840 Eh/α   predicted    -0.4949105E-01 (  62.13%)
   displ. norm   :     0.2487293 α      lambda       -0.1277808E-01
   maximum displ.:     0.2402858 α      in ANC's #1, #3, #2, ...

........................................................................
.............................. CYCLE    5 ..............................
........................................................................
   1     -5.6198340 -0.561983E+01  0.736E-01    5.48       0.0  T
   2     -5.6198637 -0.297420E-04  0.432E-01    5.46       1.0  T
   3     -5.6198566  0.711970E-05  0.889E-02    5.43       1.0  T
   4     -5.6198713 -0.146993E-04  0.604E-02    5.42       1.0  T
   5     -5.6198758 -0.456023E-05  0.604E-03    5.43       9.6  T
   6     -5.6198758 -0.575042E-08  0.151E-03    5.43      38.2  T
   7     -5.6198758 -0.374759E-08  0.398E-04    5.43     144.9  T
   8     -5.6198758 -0.110592E-09  0.154E-05    5.43    3742.6  T
     SCC iter.                  ...        0 min,  0.000 sec
     gradient                   ...        0 min,  0.000 sec
 * total energy  :    -5.4992423 Eh     change       -0.4518491E-02 Eh
   gradient norm :     0.0584445 Eh/α   predicted    -0.6784305E-02 (  50.15%)
   displ. norm   :     0.1419001 α      lambda       -0.4878134E-02
   maximum displ.:     0.1191961 α      in ANC's #1, #2, #3, ...

........................................................................
.............................. CYCLE    6 ..............................
........................................................................
   1     -5.6253788 -0.562538E+01  0.573E-01    5.76       0.0  T
   2     -5.6253929 -0.140889E-04  0.322E-01    5.77       1.0  T
   3     -5.6253539  0.390205E-04  0.134E-01    5.75       1.0  T
   4     -5.6254033 -0.494418E-04  0.186E-02    5.77       3.1  T
   5     -5.6254035 -0.207836E-06  0.236E-03    5.77      24.4  T
   6     -5.6254035 -0.124808E-08  0.688E-04    5.77      83.9  T
   7     -5.6254035 -0.121350E-09  0.142E-04    5.77     406.2  T
     SCC iter.                  ...        0 min,  0.000 sec
     gradient                   ...        0 min,  0.000 sec
 * total energy  :    -5.5025347 Eh     change       -0.3292380E-02 Eh
   gradient norm :     0.0226354 Eh/α   predicted    -0.2488174E-02 ( -24.43%)
   displ. norm   :     0.1278728 α      lambda       -0.2231844E-02
   maximum displ.:     0.1014403 α      in ANC's #2, #1, #3, ...

........................................................................
.............................. CYCLE    7 ..............................
........................................................................
   1     -5.6292415 -0.562924E+01  0.537E-01    5.92       0.0  T
   2     -5.6292532 -0.117638E-04  0.295E-01    5.92       1.0  T
   3     -5.6292451  0.812447E-05  0.757E-02    5.91       1.0  T
   4     -5.6292598 -0.146716E-04  0.819E-03    5.92       7.0  T
   5     -5.6292598 -0.193170E-08  0.747E-04    5.92      77.3  T
   6     -5.6292598 -0.491678E-10  0.213E-04    5.92     271.4  T
     SCC iter.                  ...        0 min,  0.000 sec
     gradient                   ...        0 min,  0.000 sec
 * total energy  :    -5.5038965 Eh     change       -0.1361801E-02 Eh
   gradient norm :     0.0098121 Eh/α   predicted    -0.1134170E-02 ( -16.72%)
   displ. norm   :     0.0394119 α      lambda       -0.2911334E-03
   maximum displ.:     0.0384586 α      in ANC's #2, #1, #3, ...

........................................................................
.............................. CYCLE    8 ..............................
........................................................................
   1     -5.6323186 -0.563232E+01  0.152E-01    5.95       0.0  T
   2     -5.6323196 -0.101101E-05  0.840E-02    5.95       1.0  T
   3     -5.6323200 -0.401331E-06  0.679E-03    5.95       8.5  T
   4     -5.6323200 -0.895591E-08  0.388E-03    5.95      14.9  T
   5     -5.6323200 -0.252643E-07  0.576E-04    5.95     100.3  T
   6     -5.6323200 -0.935136E-10  0.131E-04    5.95     439.8  T
     SCC iter.                  ...        0 min,  0.000 sec
     gradient                   ...        0 min,  0.000 sec
 * total energy  :    -5.5040615 Eh     change       -0.1650879E-03 Eh
   gradient norm :     0.0012506 Eh/α   predicted    -0.1457937E-03 ( -11.69%)
   displ. norm   :     0.0145169 α      lambda       -0.9374001E-05
   maximum displ.:     0.0127520 α      in ANC's #2, #1, #3, ...

........................................................................
.............................. CYCLE    9 ..............................
........................................................................
   1     -5.6323200 -0.563232E+01  0.592E-02    5.95       0.0  T
   2     -5.6323201 -0.148716E-06  0.325E-02    5.95       1.8  T
   3     -5.6323202 -0.652871E-07  0.140E-03    5.95      41.3  T
   4     -5.6323202  0.177840E-08  0.967E-04    5.95      59.7  T
   5     -5.6323202 -0.226166E-08  0.127E-04    5.95     453.6  T
     SCC iter.                  ...        0 min,  0.000 sec
     gradient                   ...        0 min,  0.000 sec
 * total energy  :    -5.5040649 Eh     change       -0.3350805E-05 Eh
   gradient norm :     0.0010269 Eh/α   predicted    -0.4686305E-05 (  39.86%)
   displ. norm   :     0.0051873 α      lambda       -0.1875209E-05
   maximum displ.:     0.0040647 α      in ANC's #2, #1, #3, ...

........................................................................
.............................. CYCLE   10 ..............................
........................................................................
   1     -5.6325806 -0.563258E+01  0.215E-02    5.95       0.0  T
   2     -5.6325806 -0.192415E-07  0.118E-02    5.95       4.9  T
   3     -5.6325806 -0.838697E-08  0.506E-04    5.95     114.1  T
   4     -5.6325806 -0.212603E-10  0.351E-04    5.95     164.3  T
     SCC iter.                  ...        0 min,  0.000 sec
     gradient                   ...        0 min,  0.000 sec
 * total energy  :    -5.5040662 Eh     change       -0.1273763E-05 Eh
   gradient norm :     0.0003528 Eh/α   predicted    -0.9361629E-06 ( -26.50%)
   displ. norm   :     0.0007266 α      lambda       -0.1273918E-06
   maximum displ.:     0.0005570 α      in ANC's #1, #2, #3, ...

   *** GEOMETRY OPTIMIZATION CONVERGED AFTER 10 ITERATIONS ***

------------------------------------------------------------------------
 total energy gain   :        -0.1533444 Eh      -96.2251 kcal/mol
 total RMSD          :         0.6650874 a0        0.3519 Å
 total power (kW/mol):       -40.2605753 (step)********** (real)
------------------------------------------------------------------------

 ANCopt (total)                0 d,  0 h,  0 min,  0.009 sec
 optimizer setup                ...        0 min,  0.000 sec (  0.702%)
 model hessian                  ...        0 min,  0.000 sec (  0.471%)
 ANC generation                 ...        0 min,  0.000 sec (  0.356%)
 coordinate transformation      ...        0 min,  0.000 sec (  0.244%)
 single point calculation       ...        0 min,  0.008 sec ( 90.924%)
 optimization log               ...        0 min,  0.000 sec (  1.866%)
 hessian update                 ...        0 min,  0.000 sec (  0.230%)
 rational function              ...        0 min,  0.000 sec (  1.798%)

================
 final structure:
================
3
 xtb: 6.2.2 (9d81278992624c895f80dd42a50cac0aa55982e2)
C        -0.02639776740656   -0.00107283348041    0.00000000000000
N         1.11009889813823    0.04751626236639    0.00000000000000
H        -1.08370013073167   -0.04644242888598    0.00000000000000

 Bond Distances (Angstroems)
 ---------------------------
C1-N2=1.1375         C1-H3=1.0583         N2-C1=1.1375         H3-C1=1.0583         
 C  H  Rav=1.0583 sigma=0.0000  Rmin=1.0583  Rmax=1.0583     1
 N  C  Rav=1.1375 sigma=0.0000  Rmin=1.1375  Rmax=1.1375     1

 selected bond angles (degree)
 --------------------
H3-C1-N2=179.99                

 selected dihedral angles (degree)
 ---------------------------------

           -------------------------------------------------
          |                Final Singlepoint                |
           -------------------------------------------------

          ...................................................
          :                      SETUP                      :
          :.................................................:
          :  # basis functions                   9          :
          :  # atomic orbitals                   9          :
          :  # shells                            5          :
          :  # electrons                        10          :
          :  max. iterations                   250          :
          :  Hamiltonian                  GFN2-xTB          :
          :  restarted?                      false          :
          :  GBSA solvation                  false          :
          :  PC potential                    false          :
          :  electronic temp.          300.0000000     K    :
          :  accuracy                    1.0000000          :
          :  -> integral cutoff          0.2500000E+02      :
          :  -> integral neglect         0.1000000E-07      :
          :  -> SCF convergence          0.1000000E-05 Eh   :
          :  -> wf. convergence          0.1000000E-03 e    :
          :  Broyden damping             0.4000000          :
          ...................................................

 iter      E             dE          RMSdq      gap      omega  full diag
   1     -5.6325806 -0.563258E+01  0.725E-05    5.95       0.0  T
   2     -5.6325806 -0.358824E-12  0.391E-05    5.95    1475.2  T
   3     -5.6325806  0.141398E-11  0.370E-05    5.95    1561.3  T

   *** convergence criteria satisfied after 3 iterations ***

         #    Occupation            Energy/Eh            Energy/eV
      -------------------------------------------------------------
         1        2.0000           -0.6644533             -18.0807
         2        2.0000           -0.5757771             -15.6677
         3        2.0000           -0.5064863             -13.7822
         4        2.0000           -0.5064863             -13.7822
         5        2.0000           -0.4498742             -12.2417 (HOMO)
         6                         -0.2311817              -6.2908 (LUMO)
         7                         -0.2311817              -6.2908
         8                          0.1199623               3.2643
         9                          1.1401936              31.0262
      -------------------------------------------------------------
                  HL-Gap            0.2186926 Eh            5.9509 eV
             Fermi-level           -0.3405280 Eh           -9.2662 eV

 SCC (total)                   0 d,  0 h,  0 min,  0.001 sec
 SCC setup                      ...        0 min,  0.000 sec (  7.465%)
 Dispersion                     ...        0 min,  0.000 sec (  0.522%)
 integral evaluation            ...        0 min,  0.000 sec ( 39.539%)
 zeroth order Hamiltonian       ...        0 min,  0.000 sec (  0.492%)
 iterations                     ...        0 min,  0.000 sec ( 17.266%)
 molecular gradient             ...        0 min,  0.000 sec ( 29.278%)
 printout                       ...        0 min,  0.000 sec (  4.270%)

         :::::::::::::::::::::::::::::::::::::::::::::::::::::
         ::                     SUMMARY                     ::
         :::::::::::::::::::::::::::::::::::::::::::::::::::::
         :: total energy              -5.504066162868 Eh    ::
         :: gradient norm              0.000359441504 Eh/a0 ::
         :: HOMO-LUMO gap              5.950928115286 eV    ::
         ::.................................................::
         :: SCC energy                -5.632580638064 Eh    ::
         :: -> isotropic ES            0.004724217061 Eh    ::
         :: -> anisotropic ES          0.000296270619 Eh    ::
         :: -> anisotropic XC          0.021112401196 Eh    ::
         :: -> dispersion             -0.000496463416 Eh    ::
         :: repulsion energy           0.128514476101 Eh    ::
         :: add. restraining           0.000000000000 Eh    ::
         :::::::::::::::::::::::::::::::::::::::::::::::::::::

           ------------------------------------------------- 
          |                Numerical Hessian                |
           ------------------------------------------------- 
step length          :   0.00500
SCC accuracy         :   0.30000
Hessian scale factor :   1.00000
frozen atoms in %    :   0.00000    0
RMS gradient         :   0.00036
estimated CPU  time      0.00 min
estimated wall time      0.00 min

writing file <hessian>.

 vibrational frequencies (cm-1)
eigval :        0.00     0.00     0.00     0.00     0.00   776.00
eigval :      776.55  2295.65  3288.36
           -------------------------------------------------
          |                Property Printout                |
           -------------------------------------------------

    * Orbital Energies and Occupations

         #    Occupation            Energy/Eh            Energy/eV
      -------------------------------------------------------------
         1        2.0000           -0.6644533             -18.0807
         2        2.0000           -0.5757772             -15.6677
         3        2.0000           -0.5064863             -13.7822
         4        2.0000           -0.5064863             -13.7822
Molecule has the following symmetry elements: (Cinf) (sigma) 
It seems to be the Cinfv point group
         5        2.0000           -0.4498742             -12.2417 (HOMO)
         6                         -0.2311817              -6.2908 (LUMO)
         7                         -0.2311817              -6.2908
         8                          0.1199623               3.2643
         9                          1.1401935              31.0262
      -------------------------------------------------------------
                  HL-Gap            0.2186925 Eh            5.9509 eV
             Fermi-level           -0.3405280 Eh           -9.2662 eV

     #   Z        covCN         q      C6AA      α(0)
     1   6 C      1.838     0.075    29.261     8.739
     2   7 N      0.910    -0.158    24.421     7.147
     3   1 H      0.927     0.083     1.952     2.185

 Mol. C6AA /au·bohr⁶  :        137.588443
 Mol. C8AA /au·bohr⁸  :       3257.211471
 Mol. α(0) /au        :         18.070791


Wiberg/Mayer (AO) data.
largest (>0.10) Wiberg bond orders for each atom
          total WBO             WBO to atom ...
     1  C   3.933        N    2 2.985    H    3 0.948
     2  N   3.030        C    1 2.985
     3  H   0.993        C    1 0.948

MOs/occ written to file <molden.input>


molecular dipole:
                 x           y           z       tot (Debye)
 q only:       -0.504      -0.022       0.000
   full:       -1.030      -0.044       0.000       2.621
molecular quadrupole (traceless):
                xx          xy          yy          xz          yz          zz
 q only:       -0.348      -0.022       0.174       0.000       0.000       0.174
  q+dip:        0.408       0.026      -0.203      -0.000      -0.000      -0.205
   full:       -1.486      -0.095       0.741       0.000       0.000       0.745

           -------------------------------------------------
          |                Geometry Summary                 |
           -------------------------------------------------

      molecular mass/u    :       27.0253799
   center of mass at/Å    :        0.5231922       0.0224151      -0.0000019
  moments of inertia/u·Å² :        0.2024237E-07   0.1107541E+02   0.1107541E+02
rotational constants/cm⁻¹ :        0.8327896E+09   0.1522077E+01   0.1522077E+01

 * 1 selected distances

     #   Z        #   Z                                     value/Å
     1   6 C      2   7 N                                 1.1375349 (max)

 * 1 distinct bonds (by element types)

   Z      Z             #   av. dist./Å        max./Å        min./Å
   6 C    7 N           1     1.1375349     1.1375349     1.1375349

           -------------------------------------------------
          |               Frequency Printout                |
           -------------------------------------------------
 vibrational frequencies (cm-1)
eigval :        0.00     0.00     0.00     0.00     0.00   776.00
eigval :      776.55  2295.65  3288.36
 reduced masses (amu)
   1: 10.29   2:  9.59   3: 12.63   4: 12.63   5: 13.34   6:  4.11   7:  4.09   8: 11.52
   9:  2.87
 IR intensities (amu)
   1:  0.38   2:  0.19   3:  0.02   4:  0.10   5:  0.35   6:  0.00   7:  0.02   8:  0.61
   9:  0.27
 Raman intensities (amu)
   1:  0.00   2:  0.00   3:  0.00   4:  0.00   5:  0.00   6:  0.00   7:  0.00   8:  0.00
   9:  0.00
 output can be read by thermo (or use thermo option).
 writing <g98.out> molden fake output.
 recommended (thermochemical) frequency scaling factor: 1.0
           -------------------------------------------------
          |             Thermodynamic Functions             |
           -------------------------------------------------

cin symmetry found (for desy threshold:  0.10E+00) used in thermo

          ...................................................
          :                      SETUP                      :
          :.................................................:
          :  # frequencies                           4      :
          :  # imaginary freq.                       0      :
          :  linear?                              true      :
          :  only rotor calc.                    false      :
          :  symmetry                              cin      :
          :  rotational number                       1      :
          :  scaling factor                  1.0000000      :
          :  rotor cutoff                   50.0000000 cm⁻¹ :
          :  imag. cutoff                  -20.0000000 cm⁻¹ :
          :.................................................:

    mode    ω/cm⁻¹     T·S(HO)/kcal·mol⁻¹    T·S(FR)/kcal·mol⁻¹   T·S(vib)
   ------------------------------------------------------------------------
   ------------------------------------------------------------------------

   temp. (K)  partition function   enthalpy   heat capacity  entropy
                                   cal/mol     cal/K/mol   cal/K/mol   J/K/mol
 298.15  VIB   1.05                  107.446      1.385      0.455
         ROT   136.                  592.502      1.987     11.752
         INT   143.                  699.948      3.372     12.208
         TR   0.136E+27             1481.254      4.968     35.802
         TOT                        2181.2020     8.3406    48.0092   200.8706

   temp. (K)  partition function   enthalpy   heat capacity  entropy
                                   cal/mol     cal/K/mol   cal/K/mol   J/K/mol
 120.00  VIB   1.00                    0.403      0.031      0.004
         ROT   54.8                  238.471      1.987      9.943
         INT   54.8                  238.874      2.019      9.947
         TR   0.347E+26              596.178      4.968     31.282
         TOT                         835.0521     6.9867    41.2296   172.5046

   temp. (K)  partition function   enthalpy   heat capacity  entropy
                                   cal/mol     cal/K/mol   cal/K/mol   J/K/mol
 100.00  VIB   1.00                    0.063      0.007      0.001
         ROT   45.7                  198.726      1.987      9.581
         INT   45.7                  198.789      1.994      9.582
         TR   0.264E+26              496.815      4.968     30.377
         TOT                         695.6036     6.9624    39.9589   167.1879

   temp. (K)  partition function   enthalpy   heat capacity  entropy
                                   cal/mol     cal/K/mol   cal/K/mol   J/K/mol
  80.00  VIB   1.00                    0.004      0.001      0.000
         ROT   36.5                  158.981      1.987      9.138
         INT   36.5                  158.985      1.988      9.138
         TR   0.189E+26              397.452      4.968     29.269
         TOT                         556.4366     6.9561    38.4067   160.6937

   temp. (K)  partition function   enthalpy   heat capacity  entropy
                                   cal/mol     cal/K/mol   cal/K/mol   J/K/mol
  60.00  VIB   1.00                    0.000      0.000     -0.000
         ROT   27.4                  119.236      1.987      8.566
         INT   27.4                  119.236      1.987      8.566
         TR   0.123E+26              298.089      4.968     27.840
         TOT                         417.3246     6.9554    36.4064   152.3244

   temp. (K)  partition function   enthalpy   heat capacity  entropy
                                   cal/mol     cal/K/mol   cal/K/mol   J/K/mol
  40.00  VIB   1.00                    0.000      0.000     -0.000
         ROT   18.3                   79.490      1.987      7.760
         INT   18.3                   79.490      1.987      7.760
         TR   0.668E+25              198.726      4.968     25.827
         TOT                         278.2164     6.9554    33.5872   140.5289

   temp. (K)  partition function   enthalpy   heat capacity  entropy
                                   cal/mol     cal/K/mol   cal/K/mol   J/K/mol
  20.00  VIB   1.00                    0.000      0.000     -0.000
         ROT   9.13                   39.745      1.987      6.383
         INT   9.13                   39.745      1.987      6.383
         TR   0.236E+25               99.363      4.968     22.385
         TOT                         139.1082     6.9554    28.7677   120.3642

   temp. (K)  partition function   enthalpy   heat capacity  entropy
                                   cal/mol     cal/K/mol   cal/K/mol   J/K/mol
  10.00  VIB   1.00                    0.000      0.000     -0.000
         ROT   4.57                   19.873      1.987      5.005
         INT   4.57                   19.873      1.987      5.005
         TR   0.835E+24               49.681      4.968     18.943
         TOT                          69.5541     6.9554    23.9483   100.1996

       T/K    H(0)-H(T)+PV         H(T)/Eh          T*S/Eh         G(T)/Eh
   ------------------------------------------------------------------------
    298.15    0.347597E-02    0.197343E-01    0.228107E-01   -0.307648E-02
    120.00    0.133074E-02    0.175890E-01    0.788442E-02    0.970460E-02
    100.00    0.110851E-02    0.173668E-01    0.636785E-02    0.109989E-01
     80.00    0.886738E-03    0.171450E-01    0.489640E-02    0.122486E-01
     60.00    0.665049E-03    0.169233E-01    0.348104E-02    0.134423E-01
     40.00    0.443366E-03    0.167017E-01    0.214098E-02    0.145607E-01
     20.00    0.221683E-03    0.164800E-01    0.916886E-03    0.155631E-01
     10.00    0.110842E-03    0.163691E-01    0.381640E-03    0.159875E-01 (used)
   ------------------------------------------------------------------------

         :::::::::::::::::::::::::::::::::::::::::::::::::::::
         ::                  THERMODYNAMIC                  ::
         :::::::::::::::::::::::::::::::::::::::::::::::::::::
         :: total free energy          -5.488078674988 Eh   ::
         ::.................................................::
         :: total energy               -5.504066162876 Eh   ::
         :: zero point energy           0.016258286458 Eh   ::
         :: G(RRHO) w/o ZPVE           -0.000270798571 Eh   ::
         :: G(RRHO) contrib.            0.015987487888 Eh   ::
         :::::::::::::::::::::::::::::::::::::::::::::::::::::

optimized geometry written to: xtbopt.xyz


           -------------------------------------------------
          | TOTAL ENERGY               -5.504066162876 Eh   |
          | TOTAL ENTHALPY             -5.487697034904 Eh   |
          | TOTAL FREE ENERGY          -5.488078674988 Eh   |
          | GRADIENT NORM               0.000359320450 Eh/α |
          | HOMO-LUMO GAP               5.950927066647 eV   |
           -------------------------------------------------

------------------------------------------------------------------------
 * finished run on 2020/05/12 at 11:44:24.895     
------------------------------------------------------------------------
 total:
 * wall-time:     0 d,  0 h,  0 min,  0.040 sec
 *  cpu-time:     0 d,  0 h,  0 min,  0.040 sec
 * ratio c/w:     0.998 speedup
 SCF:
 * wall-time:     0 d,  0 h,  0 min,  0.002 sec
 *  cpu-time:     0 d,  0 h,  0 min,  0.002 sec
 * ratio c/w:     1.000 speedup
 ANC optimizer:
 * wall-time:     0 d,  0 h,  0 min,  0.010 sec
 *  cpu-time:     0 d,  0 h,  0 min,  0.010 sec
 * ratio c/w:     1.000 speedup
 numerical hessian:
 * wall-time:     0 d,  0 h,  0 min,  0.014 sec
 *  cpu-time:     0 d,  0 h,  0 min,  0.014 sec
 * ratio c/w:     0.999 speedup

