3
 energy: -5.504066162868 gnorm: 0.000359441504 xtb: 6.2.2 (9d81278992624c895f80dd42a50cac0aa55982e2)
C        -0.02639777302337   -0.00107269526200    0.00000009401804
N         1.11009914691052    0.04751044990142   -0.00000395790768
H        -1.08370037388192   -0.04643675464466    0.00000386388441
