$hessian                                                                        
        0.5618832974   0.1236526282  -0.2051766863  -0.1990510167   0.0301657091
       -0.0557693156  -0.3282465886  -0.1738703145   0.2575809192  -0.0106910192
        0.0174463828  -0.0087061177  -0.0238946729   0.0026055944   0.0120712004
        0.1236526282   0.2372222609  -0.2436435640   0.0780122580  -0.0749806919
        0.0351009696  -0.2139834267  -0.1579373208   0.1940883788   0.0274902242
       -0.0099690478   0.0182451667  -0.0151716836   0.0056647996  -0.0037909511
       -0.2051766863  -0.2436435640   0.3174386298  -0.0611114831   0.0319538988
       -0.0420996722   0.2940904916   0.1911317930  -0.2619413388  -0.0234463368
        0.0195835577  -0.0087956424  -0.0043559854   0.0009743145  -0.0046019764
       -0.1990510167   0.0780122580  -0.0611114831   0.5023308022   0.0810520742
        0.1346438102  -0.1084494157  -0.0326561187   0.0324610334  -0.0469864197
        0.0306009422  -0.0275805922  -0.1478439501  -0.1570091557  -0.0784127683
        0.0301657091  -0.0749806919   0.0319538988   0.0810520742   0.5733845597
       -0.0769168658   0.0020411247   0.0198957958  -0.0123981799   0.0476909102
       -0.2679069196   0.1278270073  -0.1609498182  -0.2503927441  -0.0704658604
       -0.0557693156   0.0351009696  -0.0420996722   0.1346438102  -0.0769168658
        0.1472732630   0.0119236289  -0.0073189415   0.0101487840  -0.0301403524
        0.1066654159  -0.0750468110  -0.0606577711  -0.0575305783  -0.0402755638
       -0.3282465886  -0.2139834267   0.2940904916  -0.1084494157   0.0020411247
        0.0119236289   0.4425066384   0.2091923274  -0.2947506475  -0.0026903416
        0.0031859519  -0.0033877792  -0.0031202925  -0.0004359772  -0.0078756938
       -0.1738703145  -0.1579373208   0.1911317930  -0.0326561187   0.0198957958
       -0.0073189415   0.2091923274   0.1334015513  -0.1724855260  -0.0040444476
        0.0040906572  -0.0093770726   0.0013785533   0.0005493165  -0.0019502529
        0.2575809192   0.1940883788  -0.2619413388   0.0324610334  -0.0123981799
        0.0101487840  -0.2947506475  -0.1724855260   0.2402260343   0.0070749505
       -0.0091299973   0.0052141922  -0.0023662555  -0.0000746756   0.0063523284
       -0.0106910192   0.0274902242  -0.0234463368  -0.0469864197   0.0476909102
       -0.0301403524  -0.0026903416  -0.0040444476   0.0070749505   0.0556084687
       -0.0560255402   0.0394208215   0.0047593118  -0.0151111466   0.0070909173
        0.0174463828  -0.0099690478   0.0195835577   0.0306009422  -0.2679069196
        0.1066654159   0.0031859519   0.0040906572  -0.0091299973  -0.0560255402
        0.2935650756  -0.1285590730   0.0047922633  -0.0197797653   0.0114400967
       -0.0087061177   0.0182451667  -0.0087956424  -0.0275805922   0.1278270073
       -0.0750468110  -0.0033877792  -0.0093770726   0.0052141922   0.0394208215
       -0.1285590730   0.0755782084   0.0002536676  -0.0081360284   0.0030500527
       -0.0238946729  -0.0151716836  -0.0043559854  -0.1478439501  -0.1609498182
       -0.0606577711  -0.0031202925   0.0013785533  -0.0023662555   0.0047593118
        0.0047922633   0.0002536676   0.1700996037   0.1699506851   0.0671263445
        0.0026055944   0.0056647996   0.0009743145  -0.1570091557  -0.2503927441
       -0.0575305783  -0.0004359772   0.0005493165  -0.0000746756  -0.0151111466
       -0.0197797653  -0.0081360284   0.1699506851   0.2639583933   0.0647669677
        0.0120712004  -0.0037909511  -0.0046019764  -0.0784127683  -0.0704658604
       -0.0402755638  -0.0078756938  -0.0019502529   0.0063523284   0.0070909173
        0.0114400967   0.0030500527   0.0671263445   0.0647669677   0.0354751590
