      -----------------------------------------------------------      
     |                   =====================                   |     
     |                           x T B                           |     
     |                   =====================                   |     
     |                         S. Grimme                         |     
     |          Mulliken Center for Theoretical Chemistry        |     
     |                    University of Bonn                     |     
      -----------------------------------------------------------      

   * xtb version 6.2.2 (9d81278992624c895f80dd42a50cac0aa55982e2) compiled by '@Darwin' on 04/03/2020

   xtb is free software: you can redistribute it and/or modify it under
   the terms of the GNU Lesser General Public License as published by
   the Free Software Foundation, either version 3 of the License, or
   (at your option) any later version.
   
   xtb is distributed in the hope that it will be useful,
   but WITHOUT ANY WARRANTY; without even the implied warranty of
   MERCHANTABILITY or FITNESS FOR A PARTICULAR PURPOSE.  See the
   GNU Lesser General Public License for more details.
   
   Cite this work as:
   * S. Grimme, C. Bannwarth, P. Shushkov, J. Chem. Theory Comput., 2017,
     13, 1989-2009. DOI: 10.1021/acs.jctc.7b00118
   * C. Bannwarth, S. Ehlert and S. Grimme., J. Chem. Theory Comput., 2019,
     15, 1652-1671. DOI: 10.1021/acs.jctc.8b01176
   * P. Pracht, E. Caldeweyher, S. Ehlert, S. Grimme, ChemRxiv, 2019, preprint.
     DOI: 10.26434/chemrxiv.8326202.v1
   
   for DFT-D4:
   * E. Caldeweyher, C. Bannwarth and S. Grimme, J. Chem. Phys., 2017,
     147, 034112. DOI: 10.1063/1.4993215
   * E. Caldeweyher, S. Ehlert, A. Hansen, H. Neugebauer, S. Spicher,
     C. Bannwarth and S. Grimme, J. Chem. Phys., 2019, 150, 154122.
     DOI: 10.1063/1.5090222
   
   for sTDA-xTB:
   * S. Grimme and C. Bannwarth, J. Chem. Phys., 2016, 145, 054103.
     DOI: 10.1063/1.4959605
   
   in the mass-spec context:
   * V. Asgeirsson, C. Bauer and S. Grimme, Chem. Sci., 2017, 8, 4879.
     DOI: 10.1039/c7sc00601b
   
   for metadynamics refer to:
   * S. Grimme, J. Chem. Theory Comput., 2019, 155, 2847-2862
     DOI: 10.1021/acs.jctc.9b00143
   
   with help from (in alphabetical order)
   C. Bannwarth, F. Bohle, G. Brandenburg, E. Caldeweyher, M. Checinski,
   S. Dohm, S. Ehlert, S. Ehrlich, F. März, H. Neugebauer, J. Pisarek,
   P. Pracht, P. Shushkov, and S. Spicher.
   
 * started run on 2020/05/12 at 11:45:22.754     

           -------------------------------------------------
          |                Calculation Setup                |
           -------------------------------------------------

          program call               : xtb --input H2C1N2_8_S_2.input H2C1N2_8_S_2.xyz --ohess --molden --namespace H2C1N2_8_S_2 output.out
          calculation namespace      : H2C1N2_8_S_2
          coordinate file            : H2C1N2_8_S_2.xyz
          number of atoms            :                     5
          number of electrons        :                    16
          charge                     :                     0
          spin                       :                   1.0
          first test random number   :      0.37691549211967

   ID    Z sym.   atoms
    1    6 C      1
    2    7 N      2, 3
    3    1 H      4, 5

           -------------------------------------------------
          |                 G F N 2 - x T B                 |
           -------------------------------------------------

        Reference                      10.1021/acs.jctc.8b01176
      * Hamiltonian:
        H0-scaling (s, p, d)           1.850000    2.230000    2.230000
        zeta-weighting                 0.500000
      * Dispersion:
        s8                             2.700000
        a1                             0.520000
        a2                             5.000000
        s9                             5.000000
      * Repulsion:
        kExp                           1.500000    1.000000
        rExp                           1.000000
      * Coulomb:
        alpha                          2.000000
        third order                    shell-resolved
        anisotropic                    true
        a3                             3.000000
        a5                             4.000000
        cn-shift                       1.200000
        cn-exp                         4.000000
        max-rad                        5.000000


          ...................................................
          :                      SETUP                      :
          :.................................................:
          :  # basis functions                  14          :
          :  # atomic orbitals                  14          :
          :  # shells                            8          :
          :  # electrons                        16          :
          :  max. iterations                   250          :
          :  Hamiltonian                  GFN2-xTB          :
          :  restarted?                      false          :
          :  GBSA solvation                  false          :
          :  PC potential                    false          :
          :  electronic temp.          300.0000000     K    :
          :  accuracy                    1.0000000          :
          :  -> integral cutoff          0.2500000E+02      :
          :  -> integral neglect         0.1000000E-07      :
          :  -> SCF convergence          0.1000000E-05 Eh   :
          :  -> wf. convergence          0.1000000E-03 e    :
          :  Broyden damping             0.4000000          :
          ...................................................

 iter      E             dE          RMSdq      gap      omega  full diag
   1     -8.6362973 -0.863630E+01  0.642E+00    1.42       0.0  T
   2     -8.5917580  0.445393E-01  0.698E+00    2.06       1.0  T
   3     -8.7718943 -0.180136E+00  0.300E+00    1.72       1.0  T
   4     -8.7661102  0.578408E-02  0.227E+00    1.83       1.0  T
   5     -8.7762080 -0.100978E-01  0.990E-01    1.72       1.0  T
   6     -8.7799942 -0.378620E-02  0.430E-01    1.78       1.0  T
   7     -8.7800732 -0.789383E-04  0.316E-01    1.79       1.0  T
   8     -8.7799815  0.917149E-04  0.378E-01    1.80       1.0  T
   9     -8.7801989 -0.217432E-03  0.868E-02    1.80       1.0  T
  10     -8.7802057 -0.684489E-05  0.203E-02    1.80       2.2  T
  11     -8.7802061 -0.361199E-06  0.423E-03    1.80      10.6  T
  12     -8.7802062 -0.653437E-07  0.127E-03    1.80      35.2  T
  13     -8.7802062 -0.116685E-08  0.948E-04    1.80      47.2  T
  14     -8.7802062 -0.182655E-08  0.102E-04    1.80     437.1  T

   *** convergence criteria satisfied after 14 iterations ***

         #    Occupation            Energy/Eh            Energy/eV
      -------------------------------------------------------------
         1        2.0000           -0.6626875             -18.0326
       ...           ...                  ...                  ...
         3        2.0000           -0.5695041             -15.4970
         4        2.0000           -0.5503343             -14.9754
         5        2.0000           -0.5016857             -13.6516
         6        2.0000           -0.4625672             -12.5871
         7        1.9534           -0.4186026             -11.3908
         8        1.0466           -0.4128672             -11.2347
         9        1.0000           -0.3506031              -9.5404 (HOMO)
        10                         -0.2843602              -7.7378 (LUMO)
        11                         -0.0016246              -0.0442
        12                          0.0789039               2.1471
        13                          0.0981409               2.6705
        14                          0.1284643               3.4957
      -------------------------------------------------------------
                  HL-Gap            0.0662428 Eh            1.8026 eV
             Fermi-level           -0.3666083 Eh           -9.9759 eV

 transition dipole moment (au) for excitation:           8           9
     X       Y       Z   
   0.8268   0.3423  -0.3277  total (au/Debye):    0.953   2.422
 dE (eV)             :    1.694
 oscillator strength :  0.53311E-01

 SCC (total)                   0 d,  0 h,  0 min,  0.004 sec
 SCC setup                      ...        0 min,  0.000 sec (  2.616%)
 Dispersion                     ...        0 min,  0.000 sec (  0.414%)
 integral evaluation            ...        0 min,  0.001 sec ( 21.536%)
 zeroth order Hamiltonian       ...        0 min,  0.000 sec (  0.467%)
 iterations                     ...        0 min,  0.001 sec ( 35.709%)
 molecular gradient             ...        0 min,  0.001 sec ( 21.279%)
 printout                       ...        0 min,  0.001 sec ( 17.677%)

         :::::::::::::::::::::::::::::::::::::::::::::::::::::
         ::                     SUMMARY                     ::
         :::::::::::::::::::::::::::::::::::::::::::::::::::::
         :: total energy              -8.729822405978 Eh    ::
         :: gradient norm              0.225451869952 Eh/a0 ::
         :: HOMO-LUMO gap              1.802559398314 eV    ::
         ::.................................................::
         :: SCC energy                -8.780206168191 Eh    ::
         :: -> isotropic ES            0.011358487967 Eh    ::
         :: -> anisotropic ES          0.003303172046 Eh    ::
         :: -> anisotropic XC          0.010488981929 Eh    ::
         :: -> dispersion             -0.001381718162 Eh    ::
         :: repulsion energy           0.050383750437 Eh    ::
         :: add. restraining           0.000000000000 Eh    ::
         :::::::::::::::::::::::::::::::::::::::::::::::::::::

      ----------------------------------------------------------- 
     |                   =====================                   |
     |                        A N C O P T                        |
     |                   =====================                   |
     |               Approximate Normal Coordinate               |
     |                Rational Function Optimizer                |
      ----------------------------------------------------------- 

          ...................................................
          :                      SETUP                      :
          :.................................................:
          :   optimization level            normal          :
          :   max. optcycles                   200          :
          :   ANC micro-cycles                  20          :
          :   degrees of freedom                 9          :
          :.................................................:
          :   RF solver                   davidson          :
          :   write xtbopt.log                true          :
          :   linear?                        false          :
          :   energy convergence         0.5000000E-05 Eh   :
          :   grad. convergence          0.1000000E-02 Eh/α :
          :   maximium RF displ.         1.0000000          :
          :   Hlow (freq-cutoff)         0.1000000E-01      :
          :   Hmax (freq-cutoff)         5.0000000          :
          :   S6 in model hess.         20.0000000          :
          ...................................................

generating ANC from model Hessian ...
Using Lindh-Hessian (1995)
 Shifting diagonal of input Hessian by    0.0000000000000000     
 Lowest  eigenvalues of input Hessian
   -0.000000   -0.000000   -0.000000    0.000000    0.000000    0.000000
    0.016805    0.062703    0.121747    0.144061    0.182544    0.759849
    0.986837    1.182485    1.265934
 Highest eigenvalues
    0.144061    0.182544    0.759849    0.986837    1.182485    1.265934


........................................................................
.............................. CYCLE    1 ..............................
........................................................................
   1     -8.7802062 -0.878021E+01  0.524E-05    1.80       0.0  T
   2     -8.7802062  0.146336E-10  0.737E-05    1.80     607.0  T
   3     -8.7802062 -0.238334E-10  0.102E-05    1.80    4371.6  T
     SCC iter.                  ...        0 min,  0.001 sec
     gradient                   ...        0 min,  0.001 sec
 * total energy  :    -8.7298224 Eh     change       -0.2285798E-09 Eh
   gradient norm :     0.2254517 Eh/α   predicted     0.0000000E+00 (-100.00%)
   displ. norm   :     0.2504078 α      lambda       -0.5376253E-01
   maximum displ.:     0.1667219 α      in ANC's #7, #6, #4, ...

........................................................................
.............................. CYCLE    2 ..............................
........................................................................
   1     -8.8523852 -0.885239E+01  0.142E+00    2.07       0.0  T
   2     -8.8524315 -0.463246E-04  0.861E-01    2.05       1.0  T
   3     -8.8510848  0.134676E-02  0.810E-01    2.00       1.0  T
   4     -8.8526477 -0.156288E-02  0.124E-01    2.00       1.0  T
   5     -8.8526972 -0.495026E-04  0.646E-02    2.00       1.0  T
   6     -8.8527009 -0.373973E-05  0.241E-02    2.00       1.9  T
   7     -8.8527016 -0.723013E-06  0.825E-03    2.00       5.4  T
   8     -8.8527017 -0.667437E-07  0.345E-03    2.00      13.0  T
   9     -8.8527017 -0.175985E-07  0.856E-04    2.00      52.2  T
  10     -8.8527017 -0.215936E-08  0.227E-04    2.00     196.8  T
     SCC iter.                  ...        0 min,  0.001 sec
     gradient                   ...        0 min,  0.001 sec
 * total energy  :    -8.7712622 Eh     change       -0.4143979E-01 Eh
   gradient norm :     0.1012212 Eh/α   predicted    -0.2856682E-01 ( -31.06%)
   displ. norm   :     0.2723487 α      lambda       -0.2156812E-01
   maximum displ.:     0.1318951 α      in ANC's #7, #6, #4, ...

........................................................................
.............................. CYCLE    3 ..............................
........................................................................
   1     -8.9053894 -0.890539E+01  0.126E+00    2.45       0.0  T
   2     -8.9053580  0.314849E-04  0.752E-01    2.42       1.0  T
   3     -8.9037202  0.163779E-02  0.681E-01    2.40       1.0  T
   4     -8.9056550 -0.193480E-02  0.615E-02    2.38       1.0  T
   5     -8.9056569 -0.194217E-05  0.212E-02    2.38       2.1  T
   6     -8.9056573 -0.370309E-06  0.901E-03    2.38       5.0  T
   7     -8.9056574 -0.128459E-06  0.479E-03    2.38       9.3  T
   8     -8.9056575 -0.578468E-07  0.971E-04    2.38      46.1  T
   9     -8.9056575 -0.115419E-08  0.105E-04    2.38     426.5  T
     SCC iter.                  ...        0 min,  0.001 sec
     gradient                   ...        0 min,  0.001 sec
 * total energy  :    -8.7722398 Eh     change       -0.9775865E-03 Eh
   gradient norm :     0.1640130 Eh/α   predicted    -0.1158396E-01 (1084.95%)
   displ. norm   :     0.1421437 α      lambda       -0.1644566E-01
   maximum displ.:     0.0878160 α      in ANC's #1, #7, #3, ...

........................................................................
.............................. CYCLE    4 ..............................
........................................................................
   1     -8.8790019 -0.887900E+01  0.661E-01    2.08       0.0  T
   2     -8.8787737  0.228183E-03  0.534E-01    2.09       1.0  T
   3     -8.8792076 -0.433964E-03  0.310E-01    2.10       1.0  T
   4     -8.8793961 -0.188442E-03  0.392E-02    2.11       1.1  T
   5     -8.8793980 -0.190155E-05  0.214E-02    2.11       2.1  T
   6     -8.8793987 -0.727310E-06  0.866E-03    2.11       5.2  T
   7     -8.8793988 -0.994646E-07  0.124E-03    2.11      36.2  T
   8     -8.8793988  0.675790E-09  0.685E-04    2.11      65.3  T
   9     -8.8793988 -0.952664E-09  0.749E-05    2.11     597.3  T
     SCC iter.                  ...        0 min,  0.001 sec
     gradient                   ...        0 min,  0.001 sec
 * total energy  :    -8.7793385 Eh     change       -0.7098693E-02 Eh
   gradient norm :     0.0276014 Eh/α   predicted    -0.8388969E-02 (  18.18%)
   displ. norm   :     0.1094450 α      lambda       -0.1503540E-02
   maximum displ.:     0.0825534 α      in ANC's #1, #4, #6, ...

........................................................................
.............................. CYCLE    5 ..............................
........................................................................
   1     -8.8841770 -0.888418E+01  0.513E-01    2.22       0.0  T
   2     -8.8841933 -0.162731E-04  0.289E-01    2.22       1.0  T
   3     -8.8839679  0.225395E-03  0.244E-01    2.23       1.0  T
   4     -8.8842251 -0.257262E-03  0.683E-02    2.22       1.0  T
   5     -8.8842354 -0.103264E-04  0.233E-02    2.22       1.9  T
   6     -8.8842369 -0.147710E-05  0.690E-03    2.22       6.5  T
   7     -8.8842369 -0.125650E-07  0.113E-03    2.22      39.5  T
   8     -8.8842369 -0.245226E-08  0.187E-04    2.22     239.0  T
   9     -8.8842369 -0.220179E-10  0.364E-05    2.22    1227.3  T
     SCC iter.                  ...        0 min,  0.001 sec
     gradient                   ...        0 min,  0.001 sec
 * total energy  :    -8.7805604 Eh     change       -0.1221913E-02 Eh
   gradient norm :     0.0206584 Eh/α   predicted    -0.7607766E-03 ( -37.74%)
   displ. norm   :     0.3010607 α      lambda       -0.4462591E-02
   maximum displ.:     0.2461107 α      in ANC's #4, #6, #3, ...

........................................................................
.............................. CYCLE    6 ..............................
........................................................................
   1     -8.8881009 -0.888810E+01  0.141E+00    2.45       0.0  T
   2     -8.8876737  0.427205E-03  0.888E-01    2.42       1.0  T
   3     -8.8853082  0.236548E-02  0.954E-01    2.46       1.0  T
   4     -8.8887366 -0.342843E-02  0.116E-01    2.44       1.0  T
   5     -8.8887785 -0.418630E-04  0.485E-02    2.43       1.0  T
   6     -8.8887788 -0.313933E-06  0.163E-02    2.43       2.7  T
   7     -8.8887787  0.601891E-07  0.659E-03    2.43       6.8  T
   8     -8.8887788 -0.950209E-07  0.102E-03    2.43      43.9  T
   9     -8.8887788 -0.827681E-09  0.388E-04    2.43     115.1  T
  10     -8.8887788 -0.226972E-09  0.378E-05    2.43    1182.2  T
     SCC iter.                  ...        0 min,  0.001 sec
     gradient                   ...        0 min,  0.001 sec
 * total energy  :    -8.7836333 Eh     change       -0.3072893E-02 Eh
   gradient norm :     0.0265447 Eh/α   predicted    -0.2433532E-02 ( -20.81%)
   displ. norm   :     0.2189224 α      lambda       -0.2661201E-02
   maximum displ.:     0.1576993 α      in ANC's #6, #4, #2, ...

........................................................................
.............................. CYCLE    7 ..............................
........................................................................
   1     -8.8900780 -0.889008E+01  0.101E+00    2.49       0.0  T
   2     -8.8899257  0.152258E-03  0.626E-01    2.47       1.0  T
   3     -8.8883340  0.159168E-02  0.725E-01    2.50       1.0  T
   4     -8.8903801 -0.204605E-02  0.852E-02    2.49       1.0  T
   5     -8.8903986 -0.185227E-04  0.427E-02    2.48       1.0  T
   6     -8.8904017 -0.306650E-05  0.146E-02    2.48       3.1  T
   7     -8.8904019 -0.246652E-06  0.552E-03    2.48       8.1  T
   8     -8.8904020 -0.311296E-07  0.751E-04    2.48      59.5  T
   9     -8.8904020 -0.593536E-09  0.150E-04    2.48     297.4  T
     SCC iter.                  ...        0 min,  0.001 sec
     gradient                   ...        0 min,  0.001 sec
 * total energy  :    -8.7852408 Eh     change       -0.1607518E-02 Eh
   gradient norm :     0.0229080 Eh/α   predicted    -0.1394369E-02 ( -13.26%)
   displ. norm   :     0.0888358 α      lambda       -0.1579461E-02
   maximum displ.:     0.0628446 α      in ANC's #6, #4, #7, ...

........................................................................
.............................. CYCLE    8 ..............................
........................................................................
   1     -8.8995994 -0.889960E+01  0.295E-01    2.40       0.0  T
   2     -8.8995613  0.381761E-04  0.262E-01    2.40       1.0  T
   3     -8.8996449 -0.836179E-04  0.133E-01    2.40       1.0  T
   4     -8.8996705 -0.256182E-04  0.395E-02    2.40       1.1  T
   5     -8.8996731 -0.259874E-05  0.181E-02    2.40       2.5  T
   6     -8.8996739 -0.773551E-06  0.601E-03    2.40       7.4  T
   7     -8.8996739 -0.755928E-07  0.805E-04    2.40      55.5  T
   8     -8.8996739 -0.239590E-09  0.163E-04    2.40     274.0  T
     SCC iter.                  ...        0 min,  0.001 sec
     gradient                   ...        0 min,  0.001 sec
 * total energy  :    -8.7856722 Eh     change       -0.4314216E-03 Eh
   gradient norm :     0.0173075 Eh/α   predicted    -0.7959634E-03 (  84.50%)
   displ. norm   :     0.0676888 α      lambda       -0.5920685E-03
   maximum displ.:     0.0474049 α      in ANC's #4, #2, #6, ...

........................................................................
.............................. CYCLE    9 ..............................
........................................................................
   1     -8.8943888 -0.889439E+01  0.322E-01    2.41       0.0  T
   2     -8.8943611  0.277083E-04  0.226E-01    2.42       1.0  T
   3     -8.8943624 -0.125794E-05  0.164E-01    2.41       1.0  T
   4     -8.8944326 -0.701833E-04  0.475E-02    2.42       1.0  T
   5     -8.8944412 -0.861291E-05  0.154E-02    2.42       2.9  T
   6     -8.8944416 -0.403021E-06  0.411E-03    2.42      10.9  T
   7     -8.8944416 -0.130035E-07  0.584E-04    2.42      76.6  T
   8     -8.8944416 -0.430411E-11  0.288E-04    2.42     155.5  T
     SCC iter.                  ...        0 min,  0.001 sec
     gradient                   ...        0 min,  0.001 sec
 * total energy  :    -8.7859957 Eh     change       -0.3234711E-03 Eh
   gradient norm :     0.0116604 Eh/α   predicted    -0.2973909E-03 (  -8.06%)
   displ. norm   :     0.0362831 α      lambda       -0.1591592E-03
   maximum displ.:     0.0246945 α      in ANC's #2, #1, #9, ...

........................................................................
.............................. CYCLE   10 ..............................
........................................................................
   1     -8.8939230 -0.889392E+01  0.166E-01    2.41       0.0  T
   2     -8.8938986  0.244364E-04  0.137E-01    2.41       1.0  T
   3     -8.8939414 -0.427696E-04  0.739E-02    2.41       1.0  T
   4     -8.8939506 -0.918341E-05  0.236E-02    2.41       1.9  T
   5     -8.8939528 -0.225626E-05  0.786E-03    2.41       5.7  T
   6     -8.8939530 -0.144222E-06  0.193E-03    2.41      23.2  T
   7     -8.8939530 -0.200725E-08  0.315E-04    2.41     142.1  T
   8     -8.8939530 -0.166056E-09  0.905E-05    2.41     494.4  T
     SCC iter.                  ...        0 min,  0.001 sec
     gradient                   ...        0 min,  0.001 sec
 * total energy  :    -8.7861219 Eh     change       -0.1262534E-03 Eh
   gradient norm :     0.0111871 Eh/α   predicted    -0.7968258E-04 ( -36.89%)
   displ. norm   :     0.0808155 α      lambda       -0.3794758E-03
   maximum displ.:     0.0662310 α      in ANC's #2, #9, #7, ...

........................................................................
.............................. CYCLE   11 ..............................
........................................................................
   1     -8.8927291 -0.889273E+01  0.376E-01    2.40       0.0  T
   2     -8.8925639  0.165182E-03  0.331E-01    2.41       1.0  T
   3     -8.8929085 -0.344661E-03  0.148E-01    2.41       1.0  T
   4     -8.8929383 -0.297620E-04  0.555E-02    2.41       1.0  T
   5     -8.8929515 -0.131523E-04  0.152E-02    2.41       2.9  T
   6     -8.8929519 -0.471014E-06  0.383E-03    2.41      11.7  T
   7     -8.8929519 -0.785990E-08  0.112E-03    2.41      40.0  T
   8     -8.8929519 -0.229290E-08  0.178E-04    2.41     251.6  T
   9     -8.8929519 -0.389697E-10  0.191E-05    2.41    2337.5  T
     SCC iter.                  ...        0 min,  0.001 sec
     gradient                   ...        0 min,  0.001 sec
 * total energy  :    -8.7862876 Eh     change       -0.1656623E-03 Eh
   gradient norm :     0.0106334 Eh/α   predicted    -0.1909780E-03 (  15.28%)
   displ. norm   :     0.0971752 α      lambda       -0.2422523E-03
   maximum displ.:     0.0743068 α      in ANC's #1, #2, #6, ...

........................................................................
.............................. CYCLE   12 ..............................
........................................................................
   1     -8.8929086 -0.889291E+01  0.378E-01    2.35       0.0  T
   2     -8.8929280 -0.194155E-04  0.205E-01    2.35       1.0  T
   3     -8.8928311  0.969082E-04  0.155E-01    2.34       1.0  T
   4     -8.8929456 -0.114484E-03  0.379E-02    2.34       1.2  T
   5     -8.8929498 -0.423261E-05  0.513E-03    2.34       8.7  T
   6     -8.8929498 -0.443796E-07  0.256E-03    2.34      17.4  T
   7     -8.8929498 -0.617504E-08  0.518E-04    2.34      86.3  T
   8     -8.8929498 -0.487967E-09  0.190E-04    2.34     235.5  T
     SCC iter.                  ...        0 min,  0.001 sec
     gradient                   ...        0 min,  0.001 sec
 * total energy  :    -8.7863758 Eh     change       -0.8820124E-04 Eh
   gradient norm :     0.0113769 Eh/α   predicted    -0.1222684E-03 (  38.62%)
   displ. norm   :     0.0183001 α      lambda       -0.1194184E-03
   maximum displ.:     0.0107384 α      in ANC's #2, #3, #4, ...

........................................................................
.............................. CYCLE   13 ..............................
........................................................................
   1     -8.8952001 -0.889520E+01  0.701E-02    2.35       0.0  T
   2     -8.8952007 -0.583604E-06  0.405E-02    2.35       1.1  T
   3     -8.8951974  0.327310E-05  0.275E-02    2.35       1.6  T
   4     -8.8952012 -0.373955E-05  0.675E-03    2.35       6.6  T
   5     -8.8952013 -0.120504E-06  0.208E-03    2.35      21.5  T
   6     -8.8952013 -0.136147E-07  0.839E-04    2.35      53.3  T
   7     -8.8952013 -0.638501E-09  0.105E-04    2.35     426.8  T
     SCC iter.                  ...        0 min,  0.000 sec
     gradient                   ...        0 min,  0.001 sec
 * total energy  :    -8.7864451 Eh     change       -0.6932399E-04 Eh
   gradient norm :     0.0040957 Eh/α   predicted    -0.5972960E-04 ( -13.84%)
   displ. norm   :     0.0280150 α      lambda       -0.3576757E-04
   maximum displ.:     0.0179661 α      in ANC's #2, #1, #6, ...

........................................................................
.............................. CYCLE   14 ..............................
........................................................................
   1     -8.8952854 -0.889529E+01  0.955E-02    2.35       0.0  T
   2     -8.8952871 -0.163324E-05  0.515E-02    2.35       1.0  T
   3     -8.8952844  0.265317E-05  0.340E-02    2.35       1.3  T
   4     -8.8952878 -0.342920E-05  0.129E-02    2.35       3.5  T
   5     -8.8952885 -0.646185E-06  0.462E-03    2.35       9.7  T
   6     -8.8952885 -0.609338E-07  0.488E-04    2.35      91.6  T
   7     -8.8952885 -0.203659E-10  0.699E-05    2.35     640.2  T
     SCC iter.                  ...        0 min,  0.000 sec
     gradient                   ...        0 min,  0.001 sec
 * total energy  :    -8.7864661 Eh     change       -0.2098702E-04 Eh
   gradient norm :     0.0010436 Eh/α   predicted    -0.1789652E-04 ( -14.73%)
   displ. norm   :     0.0292649 α      lambda       -0.8292451E-05
   maximum displ.:     0.0237511 α      in ANC's #1, #2, #9, ...

........................................................................
.............................. CYCLE   15 ..............................
........................................................................
   1     -8.8950877 -0.889509E+01  0.111E-01    2.33       0.0  T
   2     -8.8950868  0.839051E-06  0.679E-02    2.33       1.0  T
   3     -8.8950812  0.566940E-05  0.566E-02    2.33       1.0  T
   4     -8.8950937 -0.125623E-04  0.105E-02    2.33       4.3  T
   5     -8.8950941 -0.329747E-06  0.456E-03    2.33       9.8  T
   6     -8.8950941 -0.543897E-07  0.897E-04    2.33      49.9  T
   7     -8.8950941 -0.292502E-09  0.990E-05    2.33     451.7  T
     SCC iter.                  ...        0 min,  0.001 sec
     gradient                   ...        0 min,  0.001 sec
 * total energy  :    -8.7864704 Eh     change       -0.4306194E-05 Eh
   gradient norm :     0.0007498 Eh/α   predicted    -0.4148759E-05 (  -3.66%)
   displ. norm   :     0.0039396 α      lambda       -0.1003557E-05
   maximum displ.:     0.0023066 α      in ANC's #6, #9, #1, ...

   *** GEOMETRY OPTIMIZATION CONVERGED AFTER 15 ITERATIONS ***

------------------------------------------------------------------------
 total energy gain   :        -0.0566480 Eh      -35.5472 kcal/mol
 total RMSD          :         0.5063892 a0        0.2680 Å
 total power (kW/mol):        -9.9152909 (step)-4200.3297 (real)
------------------------------------------------------------------------

 ANCopt (total)                0 d,  0 h,  0 min,  0.035 sec
 optimizer setup                ...        0 min,  0.000 sec (  0.282%)
 model hessian                  ...        0 min,  0.000 sec (  0.308%)
 ANC generation                 ...        0 min,  0.000 sec (  0.172%)
 coordinate transformation      ...        0 min,  0.000 sec (  0.107%)
 single point calculation       ...        0 min,  0.034 sec ( 95.258%)
 optimization log               ...        0 min,  0.000 sec (  1.171%)
 hessian update                 ...        0 min,  0.000 sec (  0.101%)
 rational function              ...        0 min,  0.000 sec (  1.198%)

================
 final structure:
================
5
 xtb: 6.2.2 (9d81278992624c895f80dd42a50cac0aa55982e2)
C         0.76688036671163   -0.31543441151058    0.44486978446410
N        -0.53925573219069    0.00519841120936    0.16322828421522
N         1.67839989802049    0.18305959611420   -0.22906090404086
H        -0.76567944241603    0.89410243698220   -0.28533407605092
H        -1.14034509012541   -0.76692703279518   -0.09370308858753

 Bond Distances (Angstroems)
 ---------------------------
C1-N2=1.3741         C1-N3=1.2384         N2-C1=1.3741         N2-H4=1.0211         N2-H5=1.0117         N3-C1=1.2384         
H4-N2=1.0211         H5-N2=1.0117         
 N  H  Rav=1.0164 sigma=0.0047  Rmin=1.0117  Rmax=1.0211     2
 N  C  Rav=1.3062 sigma=0.0679  Rmin=1.2384  Rmax=1.3741     2

 selected bond angles (degree)
 --------------------
N3-C1-N2=119.62                H4-N2-C1=120.26                H5-N2-C1=116.02                H5-N2-H4=114.90                

 selected dihedral angles (degree)
 ---------------------------------
H4-N2-C1-N3=334.08            H5-N2-C1-N3=119.91            
           -------------------------------------------------
          |                Final Singlepoint                |
           -------------------------------------------------

          ...................................................
          :                      SETUP                      :
          :.................................................:
          :  # basis functions                  14          :
          :  # atomic orbitals                  14          :
          :  # shells                            8          :
          :  # electrons                        16          :
          :  max. iterations                   250          :
          :  Hamiltonian                  GFN2-xTB          :
          :  restarted?                      false          :
          :  GBSA solvation                  false          :
          :  PC potential                    false          :
          :  electronic temp.          300.0000000     K    :
          :  accuracy                    1.0000000          :
          :  -> integral cutoff          0.2500000E+02      :
          :  -> integral neglect         0.1000000E-07      :
          :  -> SCF convergence          0.1000000E-05 Eh   :
          :  -> wf. convergence          0.1000000E-03 e    :
          :  Broyden damping             0.4000000          :
          ...................................................

 iter      E             dE          RMSdq      gap      omega  full diag
   1     -8.8950941 -0.889509E+01  0.618E-05    2.33       0.0  T
   2     -8.8950941 -0.119549E-11  0.225E-05    2.33    1983.6  T
   3     -8.8950941 -0.118661E-11  0.244E-05    2.33    1835.1  T

   *** convergence criteria satisfied after 3 iterations ***

         #    Occupation            Energy/Eh            Energy/eV
      -------------------------------------------------------------
         1        2.0000           -0.6645431             -18.0831
       ...           ...                  ...                  ...
         3        2.0000           -0.5794695             -15.7682
         4        2.0000           -0.5665852             -15.4176
         5        2.0000           -0.4986077             -13.5678
         6        2.0000           -0.4613524             -12.5540
         7        2.0000           -0.4288932             -11.6708
         8        1.0000           -0.4010049             -10.9119
         9        1.0000           -0.2966820              -8.0731 (HOMO)
        10                         -0.2110948              -5.7442 (LUMO)
        11                          0.0124927               0.3399
        12                          0.1847311               5.0268
        13                          0.2746762               7.4743
        14                          0.5863586              15.9556
      -------------------------------------------------------------
                  HL-Gap            0.0855872 Eh            2.3289 eV
             Fermi-level           -0.3344187 Eh           -9.1000 eV

 transition dipole moment (au) for excitation:           8           9
     X       Y       Z   
   0.4784   0.1602  -0.3161  total (au/Debye):    0.595   1.513
 dE (eV)             :    2.839
 oscillator strength :  0.34861E-01

 SCC (total)                   0 d,  0 h,  0 min,  0.003 sec
 SCC setup                      ...        0 min,  0.000 sec (  2.156%)
 Dispersion                     ...        0 min,  0.000 sec (  0.437%)
 integral evaluation            ...        0 min,  0.001 sec ( 30.408%)
 zeroth order Hamiltonian       ...        0 min,  0.000 sec (  0.437%)
 iterations                     ...        0 min,  0.000 sec ( 11.038%)
 molecular gradient             ...        0 min,  0.001 sec ( 29.838%)
 printout                       ...        0 min,  0.001 sec ( 25.344%)

         :::::::::::::::::::::::::::::::::::::::::::::::::::::
         ::                     SUMMARY                     ::
         :::::::::::::::::::::::::::::::::::::::::::::::::::::
         :: total energy              -8.786470428805 Eh    ::
         :: gradient norm              0.000772769445 Eh/a0 ::
         :: HOMO-LUMO gap              2.328946932289 eV    ::
         ::.................................................::
         :: SCC energy                -8.895094125200 Eh    ::
         :: -> isotropic ES            0.014071794368 Eh    ::
         :: -> anisotropic ES          0.001168752547 Eh    ::
         :: -> anisotropic XC          0.010685713090 Eh    ::
         :: -> dispersion             -0.001395524531 Eh    ::
         :: repulsion energy           0.108623678082 Eh    ::
         :: add. restraining           0.000000000000 Eh    ::
         :::::::::::::::::::::::::::::::::::::::::::::::::::::

           ------------------------------------------------- 
          |                Numerical Hessian                |
           ------------------------------------------------- 
step length          :   0.00500
SCC accuracy         :   0.30000
Hessian scale factor :   1.00000
frozen atoms in %    :   0.00000    0
RMS gradient         :   0.00077
estimated CPU  time      0.00 min
estimated wall time      0.00 min

writing file <hessian>.

 projected vibrational frequencies (cm-1)
eigval :       -0.00    -0.00    -0.00     0.00     0.00     0.00
eigval :      326.37   499.47   637.67   933.48  1117.63  1399.89
eigval :     1745.77  3194.74  3413.43
           -------------------------------------------------
          |                Property Printout                |
           -------------------------------------------------

    * Orbital Energies and Occupations

         #    Occupation            Energy/Eh            Energy/eV
      -------------------------------------------------------------
         1        2.0000           -0.6645432             -18.0831
         2        2.0000           -0.6275760             -17.0772
         3        2.0000           -0.5794696             -15.7682
         4        2.0000           -0.5665853             -15.4176
         5        2.0000           -0.4986078             -13.5678
         6        2.0000           -0.4613523             -12.5540
         7        2.0000           -0.4288931             -11.6708
         8        1.0000           -0.4010048             -10.9119
         9        1.0000           -0.2966820              -8.0731 (HOMO)
        10                         -0.2110948              -5.7442 (LUMO)
        11                          0.0124926               0.3399
        12                          0.1847310               5.0268
        13                          0.2746761               7.4743
        14                          0.5863586              15.9556
      -------------------------------------------------------------
                  HL-Gap            0.0855872 Eh            2.3289 eV
             Fermi-level           -0.3344187 Eh           -9.1000 eV

     #   Z        covCN         q      C6AA      α(0)
     1   6 C      1.820     0.046    30.005     8.850
     2   7 N      2.649    -0.183    24.980     7.423
     3   7 N      0.930    -0.239    26.122     7.381
     4   1 H      0.860     0.184     1.192     1.711
     5   1 H      0.860     0.192     1.146     1.677

 Mol. C6AA /au·bohr⁶  :        314.047438
 Mol. C8AA /au·bohr⁸  :       7111.200671
 Mol. α(0) /au        :         27.041725


Wiberg/Mayer (AO) data.
largest (>0.10) Wiberg bond orders for each atom
          total WBO             WBO to atom ...
     1  C   3.098        N    3 1.945    N    2 1.144
     2  N   3.125        C    1 1.144    H    5 0.934    H    4 0.916    N    3 0.131
     3  N   2.105        C    1 1.945    N    2 0.131
     4  H   0.928        N    2 0.916
     5  H   0.960        N    2 0.934

MOs/occ written to file <molden.input>


molecular dipole:
                 x           y           z       tot (Debye)
 q only:       -1.184      -0.080      -0.048
   full:       -1.493      -0.029      -0.183       3.823
molecular quadrupole (traceless):
                xx          xy          yy          xz          yz          zz
 q only:       -1.689      -0.222       1.510       0.987      -0.159       0.180
  q+dip:       -2.154       0.303       2.286       1.537      -0.181      -0.133
   full:       -2.373       0.133       2.385       1.956       0.338      -0.012

           -------------------------------------------------
          |                Geometry Summary                 |
           -------------------------------------------------

      molecular mass/u    :       42.0400238
   center of mass at/Å    :        0.5529326      -0.0243495       0.0960749
  moments of inertia/u·Å² :        0.5544490E+01   0.4101866E+02   0.4517482E+02
rotational constants/cm⁻¹ :        0.3040429E+01   0.4109747E+00   0.3731643E+00

 * 3 selected distances

     #   Z        #   Z                                     value/Å
     1   6 C      3   7 N                                 1.2383645 (max)
     2   7 N      4   1 H                                 1.0210907
     2   7 N      5   1 H                                 1.0116817 (min)

 * 2 distinct bonds (by element types)

   Z      Z             #   av. dist./Å        max./Å        min./Å
   1 H    7 N           2     1.0163862     1.0210907     1.0116817
   6 C    7 N           1     1.2383645     1.2383645     1.2383645

           -------------------------------------------------
          |               Frequency Printout                |
           -------------------------------------------------
 projected vibrational frequencies (cm-1)
eigval :       -0.00    -0.00    -0.00     0.00     0.00     0.00
eigval :      326.37   499.47   637.67   933.48  1117.63  1399.89
Molecule has no symmetry elements
It seems to be the C1 point group
eigval :     1745.77  3194.74  3413.43
 reduced masses (amu)
   1:  9.61   2: 12.41   3: 12.66   4: 12.74   5: 13.30   6: 11.04   7:  4.00   8: 10.01
   9:  5.06  10:  4.66  11: 11.63  12:  2.60  13: 12.82  14:  1.65  15:  1.93
 IR intensities (amu)
   1:  0.17   2:  0.12   3:  0.31   4:  0.17   5:  0.22   6:  0.06   7:  0.30   8:  0.21
   9:  0.77  10:  0.16  11:  0.84  12:  0.28  13:  0.98  14:  0.04  15:  0.20
 Raman intensities (amu)
   1:  0.00   2:  0.00   3:  0.00   4:  0.00   5:  0.00   6:  0.00   7:  0.00   8:  0.00
   9:  0.00  10:  0.00  11:  0.00  12:  0.00  13:  0.00  14:  0.00  15:  0.00
 output can be read by thermo (or use thermo option).
 writing <g98.out> molden fake output.
 recommended (thermochemical) frequency scaling factor: 1.0
           -------------------------------------------------
          |             Thermodynamic Functions             |
           -------------------------------------------------

c1  symmetry found (for desy threshold:  0.10E+00) used in thermo

          ...................................................
          :                      SETUP                      :
          :.................................................:
          :  # frequencies                           9      :
          :  # imaginary freq.                       0      :
          :  linear?                             false      :
          :  only rotor calc.                    false      :
          :  symmetry                               c1      :
          :  rotational number                       1      :
          :  scaling factor                  1.0000000      :
          :  rotor cutoff                   50.0000000 cm⁻¹ :
          :  imag. cutoff                  -20.0000000 cm⁻¹ :
          :.................................................:

    mode    ω/cm⁻¹     T·S(HO)/kcal·mol⁻¹    T·S(FR)/kcal·mol⁻¹   T·S(vib)
   ------------------------------------------------------------------------
   ------------------------------------------------------------------------

   temp. (K)  partition function   enthalpy   heat capacity  entropy
                                   cal/mol     cal/K/mol   cal/K/mol   J/K/mol
 298.15  VIB   1.48                  522.782      4.685      2.529
         ROT  0.774E+04              888.752      2.981     20.776
         INT  0.114E+05             1411.534      7.666     23.305
         TR   0.264E+27             1481.254      4.968     37.118
         TOT                        2892.7880    12.6343    60.4234   252.8114

   temp. (K)  partition function   enthalpy   heat capacity  entropy
                                   cal/mol     cal/K/mol   cal/K/mol   J/K/mol
 120.00  VIB   1.02                   23.527      0.872      0.242
         ROT  0.198E+04              357.707      2.981     18.063
         INT  0.202E+04              381.234      3.853     18.305
         TR   0.673E+26              596.178      4.968     32.599
         TOT                         977.4117     8.8212    50.9043   212.9836

   temp. (K)  partition function   enthalpy   heat capacity  entropy
                                   cal/mol     cal/K/mol   cal/K/mol   J/K/mol
 100.00  VIB   1.01                    9.877      0.503      0.119
         ROT  0.150E+04              298.089      2.981     17.520
         INT  0.152E+04              307.966      3.484     17.638
         TR   0.512E+26              496.815      4.968     31.693
         TOT                         804.7813     8.4524    49.3320   206.4050

   temp. (K)  partition function   enthalpy   heat capacity  entropy
                                   cal/mol     cal/K/mol   cal/K/mol   J/K/mol
  80.00  VIB   1.00                    2.841      0.217      0.042
         ROT  0.108E+04              238.471      2.981     16.854
         INT  0.108E+04              241.312      3.198     16.896
         TR   0.367E+26              397.452      4.968     30.585
         TOT                         638.7643     8.1664    47.4813   198.6618

   temp. (K)  partition function   enthalpy   heat capacity  entropy
                                   cal/mol     cal/K/mol   cal/K/mol   J/K/mol
  60.00  VIB   1.00                    0.382      0.051      0.007
         ROT   699.                  178.853      2.981     15.997
         INT   699.                  179.235      3.031     16.004
         TR   0.238E+26              298.089      4.968     29.157
         TOT                         477.3244     7.9996    45.1608   188.9527

   temp. (K)  partition function   enthalpy   heat capacity  entropy
                                   cal/mol     cal/K/mol   cal/K/mol   J/K/mol
  40.00  VIB   1.00                    0.007      0.002     -0.000
         ROT   380.                  119.236      2.981     14.788
         INT   380.                  119.243      2.983     14.788
         TR   0.130E+26              198.726      4.968     27.143
         TOT                         317.9691     7.9512    41.9315   175.4412

   temp. (K)  partition function   enthalpy   heat capacity  entropy
                                   cal/mol     cal/K/mol   cal/K/mol   J/K/mol
  20.00  VIB   1.00                    0.000      0.000     -0.001
         ROT   135.                   59.618      2.981     12.722
         INT   135.                   59.618      2.981     12.721
         TR   0.458E+25               99.363      4.968     23.701
         TOT                         158.9808     7.9490    36.4226   152.3922

   temp. (K)  partition function   enthalpy   heat capacity  entropy
                                   cal/mol     cal/K/mol   cal/K/mol   J/K/mol
  10.00  VIB   1.00                    0.000      0.000     -0.001
         ROT   47.6                   29.809      2.981     10.656
         INT   47.6                   29.809      2.981     10.654
         TR   0.162E+25               49.681      4.968     20.259
         TOT                          79.4904     7.9490    30.9139   129.3440

       T/K    H(0)-H(T)+PV         H(T)/Eh          T*S/Eh         G(T)/Eh
   ------------------------------------------------------------------------
    298.15    0.460995E-02    0.348377E-01    0.287091E-01    0.612861E-02
    120.00    0.155760E-02    0.317854E-01    0.973454E-02    0.220508E-01
    100.00    0.128250E-02    0.315103E-01    0.786155E-02    0.236487E-01
     80.00    0.101794E-02    0.312457E-01    0.605330E-02    0.251924E-01
     60.00    0.760665E-03    0.309884E-01    0.431810E-02    0.266703E-01
     40.00    0.506716E-03    0.307345E-01    0.267288E-02    0.280616E-01
     20.00    0.253352E-03    0.304811E-01    0.116086E-02    0.293203E-01
     10.00    0.126676E-03    0.303544E-01    0.492645E-03    0.298618E-01 (used)
   ------------------------------------------------------------------------

         :::::::::::::::::::::::::::::::::::::::::::::::::::::
         ::                  THERMODYNAMIC                  ::
         :::::::::::::::::::::::::::::::::::::::::::::::::::::
         :: total free energy          -8.756608636884 Eh   ::
         ::.................................................::
         :: total energy               -8.786470428911 Eh   ::
         :: zero point energy           0.030227761125 Eh   ::
         :: G(RRHO) w/o ZPVE           -0.000365969098 Eh   ::
         :: G(RRHO) contrib.            0.029861792027 Eh   ::
         :::::::::::::::::::::::::::::::::::::::::::::::::::::

optimized geometry written to: xtbopt.xyz


           -------------------------------------------------
          | TOTAL ENERGY               -8.786470428911 Eh   |
          | TOTAL ENTHALPY             -8.756115991770 Eh   |
          | TOTAL FREE ENERGY          -8.756608636884 Eh   |
          | GRADIENT NORM               0.000772525728 Eh/α |
          | HOMO-LUMO GAP               2.328945967901 eV   |
           -------------------------------------------------

------------------------------------------------------------------------
 * finished run on 2020/05/12 at 11:45:22.875     
------------------------------------------------------------------------
 total:
 * wall-time:     0 d,  0 h,  0 min,  0.121 sec
 *  cpu-time:     0 d,  0 h,  0 min,  0.120 sec
 * ratio c/w:     0.994 speedup
 SCF:
 * wall-time:     0 d,  0 h,  0 min,  0.004 sec
 *  cpu-time:     0 d,  0 h,  0 min,  0.004 sec
 * ratio c/w:     1.000 speedup
 ANC optimizer:
 * wall-time:     0 d,  0 h,  0 min,  0.039 sec
 *  cpu-time:     0 d,  0 h,  0 min,  0.039 sec
 * ratio c/w:     0.999 speedup
 numerical hessian:
 * wall-time:     0 d,  0 h,  0 min,  0.060 sec
 *  cpu-time:     0 d,  0 h,  0 min,  0.060 sec
 * ratio c/w:     1.000 speedup

