4
 energy: -8.051899066885 gnorm: 0.125779255816 xtb: 6.2.2 (9d81278992624c895f80dd42a50cac0aa55982e2)
C        -1.24188000000000   -0.03322000000000    0.14500800000000
C        -0.00073700000000    0.75432000000000   -0.22954800000000
C         1.20537100000000    0.02633300000000    0.33283300000000
C         0.03724600000000   -0.74743300000000   -0.24829400000000
4
 energy: -8.074501585165 gnorm: 0.101390008786 xtb: 6.2.2 (9d81278992624c895f80dd42a50cac0aa55982e2)
C        -1.16166543475977   -0.03133406320616    0.15643333050954
C        -0.00074572952153    0.77055035960535   -0.23458491010213
C         1.12435717821365    0.02429577231176    0.33188463097974
C         0.03805398606766   -0.76351206871095   -0.25373405138714
4
 energy: -8.097326803396 gnorm: 0.237966941306 xtb: 6.2.2 (9d81278992624c895f80dd42a50cac0aa55982e2)
C        -0.91300679368023   -0.02512819645199    0.16302279547953
C        -0.00412860600673    0.86656756202276   -0.22096312278966
C         0.87759998287505    0.01844688458135    0.30045255745372
C         0.03953541681191   -0.85988625015212   -0.24251323014359
4
 energy: -8.112942621834 gnorm: 0.076009205943 xtb: 6.2.2 (9d81278992624c895f80dd42a50cac0aa55982e2)
C        -0.99855431989393   -0.02726281910033    0.16075637566044
C        -0.00366250258038    0.86111500544666   -0.22530561626615
C         0.96249266876545    0.02045894243794    0.31126662174148
C         0.03972415370886   -0.85431112878428   -0.24671838113576
4
 energy: -8.119217703516 gnorm: 0.045425782908 xtb: 6.2.2 (9d81278992624c895f80dd42a50cac0aa55982e2)
C        -1.00362049185504   -0.02676832815530    0.11089425100328
C        -0.00850317897500    0.90321179799448   -0.17558622339977
C         0.97507397485153    0.02138233626000    0.26275863621987
C         0.03704969597851   -0.89782580609919   -0.19806766382338
4
 energy: -8.122410502417 gnorm: 0.005246986373 xtb: 6.2.2 (9d81278992624c895f80dd42a50cac0aa55982e2)
C        -0.95789997688806   -0.02581538087455    0.12707287305340
C        -0.00886500520093    0.95573685027918   -0.18752974350505
C         0.92742878947866    0.02006277434237    0.27177148067338
C         0.03933619261034   -0.94998424374700   -0.21131561022173
4
 energy: -8.122483070930 gnorm: 0.000542080990 xtb: 6.2.2 (9d81278992624c895f80dd42a50cac0aa55982e2)
C        -0.96487491847731   -0.02589355752458    0.11928710926157
C        -0.00941058965615    0.95543262637757   -0.18032331137682
C         0.93550521072352    0.02035108251933    0.26514093125544
C         0.03878029740994   -0.94989015137232   -0.20410572914019
4
 energy: -8.122483814398 gnorm: 0.000260311524 xtb: 6.2.2 (9d81278992624c895f80dd42a50cac0aa55982e2)
C        -0.96426013309578   -0.02589406474955    0.12061851564389
C        -0.00930513488883    0.95514445659155   -0.18160342240765
C         0.93469518110856    0.02031605800756    0.26636293845334
C         0.03887008687605   -0.94956644984956   -0.20537903168958
