[Molden Format]
[Title]
[Atoms] AU
C      1     6 -0.18221868559098E+01 -0.48922747319276E-01  0.22794238501382E+00
C      2     6 -0.17575902046467E-01  0.18049607580343E+01 -0.34318378867373E+00
C      3     6  0.17663196964455E+01  0.38383412093125E-01  0.50334672410417E+00
C      4     6  0.73443061504231E-01 -0.17944214228115E+01 -0.38810721017021E+00
[GTO]
           1 0
 s           4   1.0000000000000000     
   51.049363095579913      -0.16312063210127389     
   8.7911227406887544      -0.19911024581000730     
  0.70640422258929825       0.31882047753655751     
  0.26922813413411617       0.12706504184240380     
 p           4   1.0000000000000000     
   5.8263656140800002       0.73716451545209605     
   1.5106896018720002       0.68216371614850257     
  0.53256483288000001       0.35783053929253711     
  0.21202323690600003        5.3983030275847881E-002

           2 0
 s           4   1.0000000000000000     
   51.049363095579913      -0.16312063210127389     
   8.7911227406887544      -0.19911024581000730     
  0.70640422258929825       0.31882047753655751     
  0.26922813413411617       0.12706504184240380     
 p           4   1.0000000000000000     
   5.8263656140800002       0.73716451545209605     
   1.5106896018720002       0.68216371614850257     
  0.53256483288000001       0.35783053929253711     
  0.21202323690600003        5.3983030275847881E-002

           3 0
 s           4   1.0000000000000000     
   51.049363095579913      -0.16312063210127389     
   8.7911227406887544      -0.19911024581000730     
  0.70640422258929825       0.31882047753655751     
  0.26922813413411617       0.12706504184240380     
 p           4   1.0000000000000000     
   5.8263656140800002       0.73716451545209605     
   1.5106896018720002       0.68216371614850257     
  0.53256483288000001       0.35783053929253711     
  0.21202323690600003        5.3983030275847881E-002

           4 0
 s           4   1.0000000000000000     
   51.049363095579913      -0.16312063210127389     
   8.7911227406887544      -0.19911024581000730     
  0.70640422258929825       0.31882047753655751     
  0.26922813413411617       0.12706504184240380     
 p           4   1.0000000000000000     
   5.8263656140800002       0.73716451545209605     
   1.5106896018720002       0.68216371614850257     
  0.53256483288000001       0.35783053929253711     
  0.21202323690600003        5.3983030275847881E-002

[MO]
Sym=     1a
Ene=  -0.73933750836291245     
Spin= Alpha
Occup=     2.00000000
           1 -0.31069699802807133     
           2 -0.14928400732018138     
           3  -4.1185667574288624E-003
           4   2.7501993264141208E-002
           5 -0.31068397037106460     
           6  -7.5178994984320484E-004
           7  0.14730281024889619     
           8  -3.6899936309876785E-002
           9 -0.31069662988473740     
          10  0.14336602639055041     
          11   3.0014587890242854E-003
          12   4.9961714010735465E-002
          13 -0.31068237063787324     
          14   6.6697225104399745E-003
          15 -0.14618584795295705     
          16  -4.0562660229721520E-002
Sym=     2a
Ene=  -0.62833489376653762     
Spin= Alpha
Occup=     2.00000000
           1  -2.4703112052720203E-004
           2   8.1544078086444351E-003
           3 -0.32154395896957338     
           4  -3.9795724573447990E-003
           5 -0.49370326916031704     
           6   6.2769577325419261E-003
           7  -5.0351632887445562E-002
           8  -6.3714853182575651E-002
           9   2.4827663402731212E-004
          10   8.1588620895386935E-003
          11 -0.32154249119936523     
          12  -4.0428891641163768E-003
          13  0.49370296412037201     
          14  -3.3626156245189272E-003
          15  -5.2168597869287160E-002
          16   6.2459849690106005E-002
Sym=     3a
Ene=  -0.62830419291038120     
Spin= Alpha
Occup=     2.00000000
           1  0.49370271940215660     
           2  -4.6401808979628950E-002
           3  -4.9764380270498146E-004
           4  -6.7020876783322594E-002
           5  -2.4778910256376330E-004
           6 -0.32065313920682709     
           7  -7.8266302288719034E-003
           8  -2.4641117470005875E-002
           9 -0.49370266813632502     
          10  -5.6040621190470465E-002
          11  -2.3175705879692945E-003
          12   5.9154145660742140E-002
          13   2.4751305162420604E-004
          14 -0.32065563116051526     
          15  -7.8275694945683337E-003
          16  -2.4577660530787172E-002
Sym=     4a
Ene=  -0.55315615313211530     
Spin= Alpha
Occup=     2.00000000
           1 -0.16459146146103137     
           2   5.4317275891011948E-003
           3   5.0186137925233801E-003
           4 -0.39111790670747987     
           5  0.16462612929113141     
           6   3.0352243055648206E-002
           7  -1.8734321460859311E-002
           8 -0.38954954303667605     
           9 -0.16459130815863490     
          10   5.4042624911754857E-002
          11   6.2013409272579706E-003
          12 -0.38738656839209468     
          13  0.16462540450875238     
          14   2.9120761775497703E-002
          15   2.9954626278198483E-002
          16 -0.38893919970616569     
Sym=     5a
Ene=  -0.53367659767543874     
Spin= Alpha
Occup=     2.00000000
           1  -1.5515764103400148E-006
           2  -1.0638604555789905E-002
           3  0.42072653674827426     
           4   5.2509749926996623E-003
           5  -2.4468636834618661E-007
           6 -0.41957816488042748     
           7  -1.0208087057244715E-002
           8  -3.2201020897234915E-002
           9   1.5818109786898874E-006
          10   1.0639627679504970E-002
          11 -0.42072667816432491     
          12  -5.2509553277668222E-003
          13   5.0923383474371012E-007
          14  0.41957876777486708     
          15   1.0207855223554919E-002
          16   3.2201050410613975E-002
Sym=     6a
Ene=  -0.48028820619084844     
Spin= Alpha
Occup=     2.00000000
           1  0.37249878633448646     
           2 -0.32103033132993947     
           3  -6.7421131266260448E-003
           4 -0.11018087338102939     
           5 -0.37310405850352468     
           6   1.4818199965196014E-002
           7 -0.32796179465037201     
           8  -8.9112089893126509E-002
           9  0.37249892996358414     
          10  0.33402393447156598     
          11   9.1949886806238119E-003
          12  -5.9907946554709476E-002
          13 -0.37310454249798392     
          14  -1.8300549433278386E-003
          15  0.33041017221642760     
          16  -8.0895239525129656E-002
Sym=     7a
Ene=  -0.46352231880281891     
Spin= Alpha
Occup=     2.00000000
           1 -0.30245553068017117     
           2  0.38670681139377527     
           3   9.6531208650631663E-003
           4   1.0154166709243906E-002
           5 -0.30176875320950136     
           6   8.2599198213507957E-003
           7 -0.38589808195135533     
           8   1.4703643903562885E-002
           9 -0.30245546228111408     
          10 -0.38374049374835789     
          11  -9.0917363860644838E-003
          12  -4.8974334665028596E-002
          13 -0.30176821717547186     
          14  -1.1242015043293694E-002
          15  0.38533238800778385     
          16   2.4327278558948440E-002
Sym=     8a
Ene=  -0.41332488386545491     
Spin= Alpha
Occup=     1.00000000
           1  -8.4337999285116218E-005
           2   5.7299169367315203E-003
           3 -0.22241960218238371     
           4  -2.9324903367435673E-003
           5  0.27726249839293537     
           6   3.3560661725243017E-002
           7  0.31139302841894462     
           8 -0.53689584269307600     
           9   8.4405263846639241E-005
          10   5.7029268896958288E-003
          11 -0.22242453024548364     
          12  -2.6032182036571073E-003
          13 -0.27726527293784725     
          14  -4.9050276096016872E-002
          15  0.29581024836545255     
          16  0.54446411471128475     
Sym=     9a
Ene=  -0.41328326797885323     
Spin= Alpha
Occup=     1.00000000
           1  0.27722331681204249     
           2 -0.34397111674678127     
           3  -1.5224606062007257E-002
           4  0.51752854900978140     
           5   8.4445114219360582E-005
           6  0.22184393003055417     
           7   5.4918034330861641E-003
           8   1.6861276504473322E-002
           9 -0.27722388622612149     
          10 -0.26134862074144710     
          11   3.6193869641529562E-004
          12 -0.56398658233497101     
          13  -8.4428826194143724E-005
          14  0.22181926184789288     
          15   5.4874810434166676E-003
          16   1.7190342817552336E-002
Sym=    10a
Ene=  -0.32139079098985751     
Spin= Alpha
Occup=     0.00000000
           1  -3.7384678200400787E-006
           2   5.7729506683899595E-003
           3 -0.22658351334685284     
           4  -2.7916536830256905E-003
           5   4.6512177492989581E-002
           6  -4.8630047451778027E-002
           7  0.58228918873069380     
           8  0.44882227409862574     
           9   3.6326965103768469E-006
          10   5.7780891612983524E-003
          11 -0.22658255416898856     
          12  -2.8600760511387916E-003
          13  -4.6513585674771936E-002
          14   1.8823710941645460E-002
          15  0.59501629146960511     
          16 -0.43413015519890502     
Sym=    11a
Ene=  -0.32129208921055569     
Spin= Alpha
Occup=     0.00000000
           1  -4.6505922081890111E-002
           2  0.55331067037849058     
           3   7.9372724205809576E-003
           4  0.48648107062762280     
           5  -3.5477684963651201E-006
           6 -0.22612392135995477     
           7  -5.5467765160561238E-003
           8  -1.7389787943804427E-002
           9   4.6506199394208900E-002
          10  0.62075725811889837     
          11   2.0662233213207308E-002
          12 -0.39637512703593553     
          13   3.5781815969241930E-006
          14 -0.22612932148978529     
          15  -5.5477885412486159E-003
          16  -1.7320831660517400E-002
Sym=    12a
Ene=  -0.23596327322281391     
Spin= Alpha
Occup=     0.00000000
           1  -6.2932614845108259E-002
           2  -2.6360566335588250E-002
           3   6.6323487009612237E-003
           4 -0.58480648784912126     
           5  -6.2880624726470213E-002
           6  -4.6056310146916878E-002
           7   6.2435338429919753E-002
           8  0.58031923901328575     
           9  -6.2932661846296450E-002
          10  0.11488592425579700     
          11   1.0068850513943371E-002
          12 -0.57396680322178584     
          13  -6.2880941655068759E-002
          14  -4.2476502166569695E-002
          15  -7.9139125690149553E-002
          16  0.57855459989318803     
Sym=    13a
Ene=   0.12724665079944317     
Spin= Alpha
Occup=     0.00000000
           1   2.0945080387929416E-006
           2   1.8658061961687202E-002
           3 -0.73777231737273652     
           4  -9.2087410353945826E-003
           5  -1.0572916636349655E-006
           6 -0.73563196974102252     
           7  -1.7896588375025377E-002
           8  -5.6457391402817275E-002
           9  -1.8460782838521891E-006
          10  -1.8655124971372946E-002
          11  0.73777448654698419     
          12   9.2088856084428464E-003
          13   7.9736667416605308E-007
          14  0.73563670390066993     
          15   1.7898131067833771E-002
          16   5.6457669057923987E-002
Sym=    14a
Ene=   0.17723000969081465     
Spin= Alpha
Occup=     0.00000000
           1  0.66042361939978111     
           2  0.51856633987242751     
           3   1.4904826545339539E-002
           4 -0.22414811803356677     
           5   9.7801108118981961E-004
           6  0.67841555537556275     
           7   1.5759879833843651E-002
           8   5.2446130385030078E-002
           9 -0.66042382049342174     
          10  0.47847552820130623     
          11   7.3358964401867184E-003
          12  0.30063835939107159     
          13  -9.7781876838714415E-004
          14  0.67846982609068873     
          15   1.5771114524048415E-002
          16   5.1668459473433195E-002
Sym=    15a
Ene=   0.17736065082711758     
Spin= Alpha
Occup=     0.00000000
           1  -9.7797544110205642E-004
           2   1.6439998859289796E-002
           3 -0.68051737420966596     
           4  -8.1613009800643142E-003
           5  0.66040001240931090     
           6  -8.4147576273756082E-003
           7 -0.50366438840104555     
           8  0.25611974214522604     
           9   9.7834094576888385E-004
          10   1.6499057332023320E-002
          11 -0.68050384959694721     
          12  -8.9384965734586527E-003
          13 -0.66040045830340288     
          14   3.1685472366023121E-002
          15 -0.49610066275264275     
          16 -0.26875158693783324     
Sym=    16a
Ene=   0.57106669307110203     
Spin= Alpha
Occup=     0.00000000
           1 -0.65071954125544618     
           2 -0.63183877919127107     
           3  -1.8347847901702821E-002
           4  0.18985707083114284     
           5  0.65068818262284944     
           6  -2.5285025033671732E-003
           7 -0.61905876676549476     
           8  0.22918903917109923     
           9 -0.65071903190880265     
          10  0.59563329294714040     
          11   1.1516473686995534E-002
          12  0.28406077384903411     
          13  0.65068684010451328     
          14  -3.3663878954342606E-002
          15  0.61223016524208840     
          16  0.24455624582035718     
