$hessian                                                                        
        0.3953004936   0.0058175850  -0.0983205113  -0.1225197550  -0.1723274113
        0.0649608111  -0.1366619433  -0.0036214568  -0.0379671857  -0.1361187953
        0.1701312831   0.0713268859
        0.0058175850   0.2158799675  -0.0006470347  -0.0993035114  -0.1285153627
        0.0424805697  -0.0042700317   0.0250628731  -0.0012072174   0.0977559582
       -0.1124274778  -0.0406263176
       -0.0983205113  -0.0006470347   0.0688632670   0.0414077762   0.0603597954
       -0.0555163385   0.0099994629   0.0000109288   0.0447109709   0.0469132722
       -0.0597236896  -0.0580578995
       -0.1225197550  -0.0993035114   0.0414077762   0.2144974748   0.0049640554
        0.0130145898  -0.1171131641   0.0920113479  -0.0534976266   0.0251354443
        0.0023281081  -0.0009247394
       -0.1723274113  -0.1285153627   0.0603597954   0.0049640554   0.3819061475
       -0.1177756144   0.1613668991  -0.1157984956   0.0836516638   0.0059964568
       -0.1375922892  -0.0262358449
        0.0649608111   0.0424805697  -0.0555163385   0.0130145898  -0.1177756144
        0.0835327439  -0.0758889521   0.0537259931  -0.0736516350  -0.0020864487
        0.0215690515   0.0456352295
       -0.1366619433  -0.0042700317   0.0099994629  -0.1171131641   0.1613668991
       -0.0758889521   0.3582299083   0.0018195531   0.1429175313  -0.1044548009
       -0.1589164204  -0.0770280421
       -0.0036214568   0.0250628731   0.0000109288   0.0920113479  -0.1157984956
        0.0537259931   0.0018195531   0.2157084039   0.0049828300  -0.0902094442
       -0.1249727814  -0.0587197520
       -0.0379671857  -0.0012072174   0.0447109709  -0.0534976266   0.0836516638
       -0.0736516350   0.1429175313   0.0049828300   0.1061289315  -0.0514527190
       -0.0874272765  -0.0771882674
       -0.1361187953   0.0977559582   0.0469132722   0.0251354443   0.0059964568
       -0.0020864487  -0.1044548009  -0.0902094442  -0.0514527190   0.2154381519
       -0.0135429708   0.0066258956
        0.1701312831  -0.1124274778  -0.0597236896   0.0023281081  -0.1375922892
        0.0215690515  -0.1589164204  -0.1249727814  -0.0874272765  -0.0135429708
        0.3749925484   0.1255819145
        0.0713268859  -0.0406263176  -0.0580578995  -0.0009247394  -0.0262358449
        0.0456352295  -0.0770280421  -0.0587197520  -0.0771882674   0.0066258956
        0.1255819145   0.0896109373
