 Entering Gaussian System
 *********************************************
 Gaussian 98:
 frequency output generated by the xtb code
 *********************************************
                         Standard orientation:
 --------------------------------------------------------------------
  Center     Atomic     Atomic              Coordinates (Angstroms)
  Number     Number      Type              X           Y           Z
 --------------------------------------------------------------------
    1          6             0       -0.964260   -0.025889    0.120622
    2          6             0       -0.009301    0.955144   -0.181605
    3          6             0        0.934696    0.020312    0.266360
    4          6             0        0.038864   -0.949567   -0.205378
 --------------------------------------------------------------------
     1 basis functions        1 primitive gaussians
     1 alpha electrons        1 beta electrons

 Harmonic frequencies (cm**-1), IR intensities (KM/Mole),
 Raman scattering activities (A**4/amu), Raman depolarization ratios,
 reduced masses (AMU), force constants (mDyne/A) and normal coordinates:
                      1                      2                      3
                        a                      a                      a 
 Frequencies --   559.5367               635.6949               915.6253
 Red. masses --    12.0107                12.0107                12.0107
 Frc consts  --     0.0000                 0.0000                 0.0000
 IR Inten    --     0.0033                 0.0955                 0.0025
 Raman Activ --     0.0000                 0.0000                 0.0000
 Depolar     --     0.0000                 0.0000                 0.0000
 Atom AN      X      Y      Z        X      Y      Z        X      Y      Z
   1   6     0.15  -0.00   0.48     0.50   0.01   0.04    -0.01   0.50   0.01
   2   6     0.04  -0.18  -0.46    -0.01   0.50   0.01    -0.50  -0.01  -0.04
   3   6    -0.23  -0.01   0.45    -0.50  -0.01  -0.04     0.01  -0.50  -0.01
   4   6     0.03   0.20  -0.46     0.01  -0.50  -0.01     0.50   0.01   0.04
                      4                      5                      6
                        a                      a                      a 
 Frequencies --  1071.0928              1071.3889              1460.7349
 Red. masses --    12.0107                12.0107                12.0107
 Frc consts  --     0.0000                 0.0000                 0.0000
 IR Inten    --     1.8049                 1.8045                 0.0012
 Raman Activ --     0.0000                 0.0000                 0.0000
 Depolar     --     0.0000                 0.0000                 0.0000
 Atom AN      X      Y      Z        X      Y      Z        X      Y      Z
   1   6    -0.49  -0.03   0.16     0.02  -0.48  -0.01     0.48   0.01  -0.16
   2   6     0.48   0.02   0.03    -0.01   0.48  -0.19    -0.00  -0.46   0.18
   3   6    -0.46  -0.02  -0.23     0.02  -0.48   0.00    -0.45  -0.01  -0.23
   4   6     0.48   0.02   0.04    -0.04   0.48   0.20    -0.03   0.46   0.20
