      -----------------------------------------------------------      
     |                   =====================                   |     
     |                           x T B                           |     
     |                   =====================                   |     
     |                         S. Grimme                         |     
     |          Mulliken Center for Theoretical Chemistry        |     
     |                    University of Bonn                     |     
      -----------------------------------------------------------      

   * xtb version 6.2.2 (9d81278992624c895f80dd42a50cac0aa55982e2) compiled by '@Darwin' on 04/03/2020

   xtb is free software: you can redistribute it and/or modify it under
   the terms of the GNU Lesser General Public License as published by
   the Free Software Foundation, either version 3 of the License, or
   (at your option) any later version.
   
   xtb is distributed in the hope that it will be useful,
   but WITHOUT ANY WARRANTY; without even the implied warranty of
   MERCHANTABILITY or FITNESS FOR A PARTICULAR PURPOSE.  See the
   GNU Lesser General Public License for more details.
   
   Cite this work as:
   * S. Grimme, C. Bannwarth, P. Shushkov, J. Chem. Theory Comput., 2017,
     13, 1989-2009. DOI: 10.1021/acs.jctc.7b00118
   * C. Bannwarth, S. Ehlert and S. Grimme., J. Chem. Theory Comput., 2019,
     15, 1652-1671. DOI: 10.1021/acs.jctc.8b01176
   * P. Pracht, E. Caldeweyher, S. Ehlert, S. Grimme, ChemRxiv, 2019, preprint.
     DOI: 10.26434/chemrxiv.8326202.v1
   
   for DFT-D4:
   * E. Caldeweyher, C. Bannwarth and S. Grimme, J. Chem. Phys., 2017,
     147, 034112. DOI: 10.1063/1.4993215
   * E. Caldeweyher, S. Ehlert, A. Hansen, H. Neugebauer, S. Spicher,
     C. Bannwarth and S. Grimme, J. Chem. Phys., 2019, 150, 154122.
     DOI: 10.1063/1.5090222
   
   for sTDA-xTB:
   * S. Grimme and C. Bannwarth, J. Chem. Phys., 2016, 145, 054103.
     DOI: 10.1063/1.4959605
   
   in the mass-spec context:
   * V. Asgeirsson, C. Bauer and S. Grimme, Chem. Sci., 2017, 8, 4879.
     DOI: 10.1039/c7sc00601b
   
   for metadynamics refer to:
   * S. Grimme, J. Chem. Theory Comput., 2019, 155, 2847-2862
     DOI: 10.1021/acs.jctc.9b00143
   
   with help from (in alphabetical order)
   C. Bannwarth, F. Bohle, G. Brandenburg, E. Caldeweyher, M. Checinski,
   S. Dohm, S. Ehlert, S. Ehrlich, F. März, H. Neugebauer, J. Pisarek,
   P. Pracht, P. Shushkov, and S. Spicher.
   
 * started run on 2020/05/12 at 14:38:40.633     

           -------------------------------------------------
          |                Calculation Setup                |
           -------------------------------------------------

          program call               : xtb --input C4_4_S_2.input C4_4_S_2.xyz --ohess --molden --namespace C4_4_S_2 output.out
          calculation namespace      : C4_4_S_2
          coordinate file            : C4_4_S_2.xyz
          number of atoms            :                     4
          number of electrons        :                    16
          charge                     :                     0
          spin                       :                   1.0
          first test random number   :      0.07485691545772

   ID    Z sym.   atoms
    1    6 C      1-4

           -------------------------------------------------
          |                 G F N 2 - x T B                 |
           -------------------------------------------------

        Reference                      10.1021/acs.jctc.8b01176
      * Hamiltonian:
        H0-scaling (s, p, d)           1.850000    2.230000    2.230000
        zeta-weighting                 0.500000
      * Dispersion:
        s8                             2.700000
        a1                             0.520000
        a2                             5.000000
        s9                             5.000000
      * Repulsion:
        kExp                           1.500000    1.000000
        rExp                           1.000000
      * Coulomb:
        alpha                          2.000000
        third order                    shell-resolved
        anisotropic                    true
        a3                             3.000000
        a5                             4.000000
        cn-shift                       1.200000
        cn-exp                         4.000000
        max-rad                        5.000000

q/qsh data taken from xtbrestart
CAMM data taken from xtbrestart

          ...................................................
          :                      SETUP                      :
          :.................................................:
          :  # basis functions                  16          :
          :  # atomic orbitals                  16          :
          :  # shells                            8          :
          :  # electrons                        16          :
          :  max. iterations                   250          :
          :  Hamiltonian                  GFN2-xTB          :
          :  restarted?                       true          :
          :  GBSA solvation                  false          :
          :  PC potential                    false          :
          :  electronic temp.          300.0000000     K    :
          :  accuracy                    1.0000000          :
          :  -> integral cutoff          0.2500000E+02      :
          :  -> integral neglect         0.1000000E-07      :
          :  -> SCF convergence          0.1000000E-05 Eh   :
          :  -> wf. convergence          0.1000000E-03 e    :
          :  Broyden damping             0.4000000          :
          ...................................................

 iter      E             dE          RMSdq      gap      omega  full diag
   1     -8.0711438 -0.807114E+01  0.746E+00    0.03       0.0  T
   2     -7.6899758  0.381168E+00  0.996E+00    1.55       1.0  T
   3     -8.0015011 -0.311525E+00  0.567E+00    0.16       1.0  T
   4     -7.9871380  0.143631E-01  0.587E+00    0.36       1.0  T
   5     -8.0586723 -0.715342E-01  0.430E+00    0.23       1.0  T
   6     -8.0445145  0.141577E-01  0.436E+00    0.24       1.0  T
   7     -8.0749741 -0.304596E-01  0.355E+00    0.21       1.0  T
   8     -8.1257603 -0.507862E-01  0.124E+00    0.11       1.0  T
   9     -8.1265938 -0.833464E-03  0.513E-01    0.10       1.0  T
  10     -8.1243684  0.222543E-02  0.731E-01    0.13       1.0  T
  11     -8.1251294 -0.761092E-03  0.672E-01    0.08       1.0  T
  12     -8.1250057  0.123757E-03  0.632E-01    0.07       1.0  T
  13     -8.1266465 -0.164080E-02  0.147E-01    0.10       1.0  T
  14     -8.1266482 -0.166727E-05  0.682E-02    0.10       1.0  T
  15     -8.1266493 -0.116674E-05  0.204E-02    0.10       2.5  T
  16     -8.1266494 -0.490886E-07  0.161E-03    0.10      31.2  T
  17     -8.1266494  0.518760E-08  0.142E-03    0.10      35.3  T
  18     -8.1266494 -0.620778E-08  0.198E-04    0.10     253.0  T
  19     -8.1266494 -0.132275E-09  0.563E-05    0.10     888.5  T

   *** convergence criteria satisfied after 19 iterations ***

         #    Occupation            Energy/Eh            Energy/eV
      -------------------------------------------------------------
         1        2.0000           -0.7372474             -20.0615
       ...           ...                  ...                  ...
         3        2.0000           -0.5890767             -16.0296
         4        2.0000           -0.5617782             -15.2868
         5        2.0000           -0.5068890             -13.7932
         6        2.0000           -0.5033587             -13.6971
         7        1.8922           -0.4590326             -12.4909
         8        1.1078           -0.4550163             -12.3816
         9        0.8776           -0.3891188             -10.5885 (HOMO)
        10        0.1224           -0.3853765             -10.4866 (LUMO)
        11                         -0.3152086              -8.5773
        12                         -0.2357253              -6.4144
        13                         -0.0273133              -0.7432
        14                          0.0904900               2.4624
       ...                                ...                  ...
        16                          0.1581905               4.3046
      -------------------------------------------------------------
                  HL-Gap            0.0037423 Eh            0.1018 eV
             Fermi-level           -0.4221361 Eh          -11.4869 eV

 transition dipole moment (au) for excitation:           8           9
     X       Y       Z   
   0.0205  -0.8105  -0.0101  total (au/Debye):    0.811   2.061
 dE (eV)             :    1.793
 oscillator strength :  0.40844E-01

 SCC (total)                   0 d,  0 h,  0 min,  0.005 sec
 SCC setup                      ...        0 min,  0.000 sec (  1.402%)
 Dispersion                     ...        0 min,  0.000 sec (  0.301%)
 integral evaluation            ...        0 min,  0.001 sec ( 25.846%)
 zeroth order Hamiltonian       ...        0 min,  0.000 sec (  0.364%)
 iterations                     ...        0 min,  0.002 sec ( 40.500%)
 molecular gradient             ...        0 min,  0.001 sec ( 17.597%)
 printout                       ...        0 min,  0.001 sec ( 13.789%)

         :::::::::::::::::::::::::::::::::::::::::::::::::::::
         ::                     SUMMARY                     ::
         :::::::::::::::::::::::::::::::::::::::::::::::::::::
         :: total energy              -8.051899066803 Eh    ::
         :: gradient norm              0.125778878976 Eh/a0 ::
         :: HOMO-LUMO gap              0.101831970115 eV    ::
         ::.................................................::
         :: SCC energy                -8.126649372775 Eh    ::
         :: -> isotropic ES           -0.016777444961 Eh    ::
         :: -> anisotropic ES          0.000776018958 Eh    ::
         :: -> anisotropic XC          0.006316467003 Eh    ::
         :: -> dispersion             -0.001794915830 Eh    ::
         :: repulsion energy           0.074750300314 Eh    ::
         :: add. restraining           0.000000000000 Eh    ::
         :::::::::::::::::::::::::::::::::::::::::::::::::::::

      ----------------------------------------------------------- 
     |                   =====================                   |
     |                        A N C O P T                        |
     |                   =====================                   |
     |               Approximate Normal Coordinate               |
     |                Rational Function Optimizer                |
      ----------------------------------------------------------- 

          ...................................................
          :                      SETUP                      :
          :.................................................:
          :   optimization level            normal          :
          :   max. optcycles                   200          :
          :   ANC micro-cycles                  20          :
          :   degrees of freedom                 6          :
          :.................................................:
          :   RF solver                   davidson          :
          :   write xtbopt.log                true          :
          :   linear?                        false          :
          :   energy convergence         0.5000000E-05 Eh   :
          :   grad. convergence          0.1000000E-02 Eh/α :
          :   maximium RF displ.         1.0000000          :
          :   Hlow (freq-cutoff)         0.1000000E-01      :
          :   Hmax (freq-cutoff)         5.0000000          :
          :   S6 in model hess.         20.0000000          :
          ...................................................

generating ANC from model Hessian ...
Using Lindh-Hessian (1995)
 Shifting diagonal of input Hessian by    0.0000000000000000     
 Lowest  eigenvalues of input Hessian
   -0.000000   -0.000000   -0.000000   -0.000000    0.000000    0.000000
    0.065417    0.568362    0.610822    0.818530    1.179707    1.312994
 Highest eigenvalues
    0.065417    0.568362    0.610822    0.818530    1.179707    1.312994


........................................................................
.............................. CYCLE    1 ..............................
........................................................................
   1     -8.1266494 -0.812665E+01  0.473E-05    0.10       0.0  T
   2     -8.1266494  0.542283E-09  0.340E-04    0.10     147.0  T
   3     -8.1266494 -0.543647E-09  0.419E-05    0.10    1192.7  T
     SCC iter.                  ...        0 min,  0.000 sec
     gradient                   ...        0 min,  0.001 sec
 * total energy  :    -8.0518991 Eh     change       -0.8260415E-10 Eh
   gradient norm :     0.1257793 Eh/α   predicted     0.0000000E+00 (-100.00%)
   displ. norm   :     0.2213025 α      lambda       -0.2419519E-01
   maximum displ.:     0.1851097 α      in ANC's #2, #1, #6, ...

........................................................................
.............................. CYCLE    2 ..............................
........................................................................
   1     -8.1358839 -0.813588E+01  0.330E+00    0.56       0.0  T
   2     -7.7165198  0.419364E+00  0.989E+00    0.71       1.0  T
   3     -8.1570378 -0.440518E+00  0.222E+00    0.30       1.0  T
   4     -8.1704447 -0.134069E-01  0.696E-01    0.42       1.0  T
   5     -8.1705936 -0.148965E-03  0.865E-02    0.39       1.0  T
   6     -8.1706106 -0.169166E-04  0.471E-02    0.38       1.1  T
   7     -8.1706107 -0.122302E-06  0.132E-02    0.38       3.8  T
   8     -8.1706104  0.306526E-06  0.144E-02    0.38       3.5  T
   9     -8.1706106 -0.241715E-06  0.118E-02    0.38       4.2  T
  10     -8.1706109 -0.306805E-06  0.814E-03    0.38       6.1  T
  11     -8.1706110 -0.804599E-07  0.606E-03    0.38       8.2  T
  12     -8.1706111 -0.739800E-07  0.318E-03    0.38      15.7  T
  13     -8.1706111 -0.222292E-07  0.128E-03    0.38      39.1  T
  14     -8.1706111 -0.414948E-08  0.195E-04    0.38     256.2  T
  15     -8.1706111 -0.923599E-10  0.365E-05    0.38    1370.9  T
     SCC iter.                  ...        0 min,  0.001 sec
     gradient                   ...        0 min,  0.001 sec
 * total energy  :    -8.0745016 Eh     change       -0.2260252E-01 Eh
   gradient norm :     0.1013900 Eh/α   predicted    -0.1269008E-01 ( -43.86%)
   displ. norm   :     0.7137481 α      lambda       -0.7002092E-01
   maximum displ.:     0.6684716 α      in ANC's #2, #1, #6, ...

........................................................................
.............................. CYCLE    3 ..............................
........................................................................
   1     -8.3002699 -0.830027E+01  0.480E+00    3.37       0.0  T
   2     -8.3005232 -0.253233E-03  0.289E+00    3.37       1.0  T
   3     -8.3006363 -0.113119E-03  0.204E-01    3.31       1.0  T
   4     -8.3006619 -0.256039E-04  0.971E-02    3.35       1.0  T
   5     -8.3006695 -0.763559E-05  0.244E-02    3.34       2.0  T
   6     -8.3006713 -0.175791E-05  0.734E-03    3.34       6.8  T
   7     -8.3006714 -0.146835E-06  0.486E-03    3.34      10.3  T
   8     -8.3006715 -0.663095E-07  0.122E-03    3.33      41.1  T
   9     -8.3006715 -0.922041E-08  0.164E-04    3.33     305.2  T
  10     -8.3006715 -0.379590E-10  0.108E-04    3.33     463.9  T
     SCC iter.                  ...        0 min,  0.001 sec
     gradient                   ...        0 min,  0.001 sec
 * total energy  :    -8.0973268 Eh     change       -0.2282522E-01 Eh
   gradient norm :     0.2379669 Eh/α   predicted    -0.5284604E-01 ( 131.52%)
   displ. norm   :     0.2295332 α      lambda       -0.3288186E-01
   maximum displ.:     0.1949650 α      in ANC's #2, #1, #6, ...

........................................................................
.............................. CYCLE    4 ..............................
........................................................................
   1     -8.2513753 -0.825138E+01  0.164E+00    2.08       0.0  T
   2     -8.2525468 -0.117148E-02  0.960E-01    1.77       1.0  T
   3     -8.2526847 -0.137966E-03  0.575E-01    2.00       1.0  T
   4     -8.2531418 -0.457071E-03  0.500E-02    1.90       1.0  T
   5     -8.2531406  0.126109E-05  0.163E-02    1.91       3.1  T
   6     -8.2531398  0.718139E-06  0.175E-02    1.91       2.9  T
   7     -8.2531420 -0.214151E-05  0.124E-03    1.91      40.4  T
   8     -8.2531420  0.142751E-07  0.159E-03    1.91      31.4  T
   9     -8.2531420 -0.157103E-07  0.150E-04    1.91     332.9  T
  10     -8.2531420 -0.430020E-10  0.449E-05    1.91    1114.4  T
     SCC iter.                  ...        0 min,  0.001 sec
     gradient                   ...        0 min,  0.001 sec
 * total energy  :    -8.1129426 Eh     change       -0.1561582E-01 Eh
   gradient norm :     0.0760092 Eh/α   predicted    -0.1730713E-01 (  10.83%)
   displ. norm   :     0.2200494 α      lambda       -0.1000643E-01
   maximum displ.:     0.1820657 α      in ANC's #1, #2, #6, ...

........................................................................
.............................. CYCLE    5 ..............................
........................................................................
   1     -8.2545524 -0.825455E+01  0.135E+00    1.50       0.0  T
   2     -8.2547130 -0.160643E-03  0.790E-01    1.61       1.0  T
   3     -8.2545038  0.209187E-03  0.299E-01    1.47       1.0  T
   4     -8.2547881 -0.284293E-03  0.235E-02    1.55       2.1  T
   5     -8.2547881 -0.189963E-07  0.315E-03    1.55      15.9  T
   6     -8.2547881  0.303871E-07  0.277E-03    1.55      18.0  T
   7     -8.2547882 -0.481396E-07  0.908E-04    1.55      55.1  T
   8     -8.2547882 -0.102380E-08  0.316E-04    1.55     158.1  T
     SCC iter.                  ...        0 min,  0.001 sec
     gradient                   ...        0 min,  0.001 sec
 * total energy  :    -8.1192177 Eh     change       -0.6275082E-02 Eh
   gradient norm :     0.0454258 Eh/α   predicted    -0.5245476E-02 ( -16.41%)
   displ. norm   :     0.1937219 α      lambda       -0.6994902E-02
   maximum displ.:     0.1481613 α      in ANC's #2, #1, #6, ...

........................................................................
.............................. CYCLE    6 ..............................
........................................................................
   1     -8.2474528 -0.824745E+01  0.157E+00    2.47       0.0  T
   2     -8.2489088 -0.145597E-02  0.908E-01    2.37       1.0  T
   3     -8.2493740 -0.465214E-03  0.557E-01    2.56       1.0  T
   4     -8.2496989 -0.324878E-03  0.378E-02    2.52       1.3  T
   5     -8.2496989 -0.567869E-07  0.845E-03    2.52       5.9  T
   6     -8.2496981  0.798749E-06  0.125E-02    2.52       4.0  T
   7     -8.2496992 -0.110561E-05  0.606E-04    2.52      82.5  T
   8     -8.2496992  0.339675E-10  0.118E-04    2.52     423.7  T
   9     -8.2496992 -0.712692E-10  0.583E-05    2.52     857.9  T
     SCC iter.                  ...        0 min,  0.001 sec
     gradient                   ...        0 min,  0.001 sec
 * total energy  :    -8.1224105 Eh     change       -0.3192799E-02 Eh
   gradient norm :     0.0052470 Eh/α   predicted    -0.3628705E-02 (  13.65%)
   displ. norm   :     0.0339716 α      lambda       -0.1614628E-03
   maximum displ.:     0.0334103 α      in ANC's #1, #2, #6, ...

........................................................................
.............................. CYCLE    7 ..............................
........................................................................
   1     -8.2488998 -0.824890E+01  0.198E-01    2.47       0.0  T
   2     -8.2489086 -0.880214E-05  0.115E-01    2.47       1.0  T
   3     -8.2489052  0.340354E-05  0.622E-02    2.47       1.0  T
   4     -8.2489134 -0.822539E-05  0.397E-03    2.48      12.6  T
   5     -8.2489133  0.961388E-07  0.381E-03    2.48      13.1  T
   6     -8.2489134 -0.100351E-06  0.396E-04    2.48     126.4  T
   7     -8.2489134 -0.658329E-09  0.123E-04    2.48     405.1  T
     SCC iter.                  ...        0 min,  0.000 sec
     gradient                   ...        0 min,  0.001 sec
 * total energy  :    -8.1224831 Eh     change       -0.7256851E-04 Eh
   gradient norm :     0.0005421 Eh/α   predicted    -0.8082332E-04 (  11.38%)
   displ. norm   :     0.0052670 α      lambda       -0.1824475E-05
   maximum displ.:     0.0052132 α      in ANC's #1, #2, #6, ...

........................................................................
.............................. CYCLE    8 ..............................
........................................................................
   1     -8.2489182 -0.824892E+01  0.274E-02    2.50       0.0  T
   2     -8.2489183 -0.269554E-07  0.159E-02    2.50       3.1  T
   3     -8.2489182  0.639418E-07  0.451E-03    2.50      11.1  T
   4     -8.2489183 -0.781851E-07  0.454E-04    2.50     110.1  T
   5     -8.2489183  0.170878E-08  0.612E-04    2.50      81.7  T
     SCC iter.                  ...        0 min,  0.000 sec
     gradient                   ...        0 min,  0.001 sec
 * total energy  :    -8.1224838 Eh     change       -0.7434679E-06 Eh
   gradient norm :     0.0002603 Eh/α   predicted    -0.9112200E-06 (  22.56%)
   displ. norm   :     0.0016619 α      lambda       -0.2718152E-06
   maximum displ.:     0.0016503 α      in ANC's #1, #6, #2, ...

   *** GEOMETRY OPTIMIZATION CONVERGED AFTER 8 ITERATIONS ***

------------------------------------------------------------------------
 total energy gain   :        -0.0705847 Eh      -44.2926 kcal/mol
 total RMSD          :         0.4637016 a0        0.2454 Å
 total power (kW/mol):       -23.1650287 (step)-8615.5841 (real)
------------------------------------------------------------------------

 ANCopt (total)                0 d,  0 h,  0 min,  0.022 sec
 optimizer setup                ...        0 min,  0.000 sec (  0.278%)
 model hessian                  ...        0 min,  0.000 sec (  0.362%)
 ANC generation                 ...        0 min,  0.000 sec (  0.176%)
 coordinate transformation      ...        0 min,  0.000 sec (  0.070%)
 single point calculation       ...        0 min,  0.021 sec ( 95.459%)
 optimization log               ...        0 min,  0.000 sec (  1.752%)
 hessian update                 ...        0 min,  0.000 sec (  0.048%)
 rational function              ...        0 min,  0.000 sec (  0.676%)

================
 final structure:
================
4
 xtb: 6.2.2 (9d81278992624c895f80dd42a50cac0aa55982e2)
C        -0.96426013309578   -0.02589406474955    0.12061851564389
C        -0.00930513488883    0.95514445659155   -0.18160342240765
C         0.93469518110856    0.02031605800756    0.26636293845334
C         0.03887008687605   -0.94956644984956   -0.20537903168958

 Bond Distances (Angstroems)
 ---------------------------
C1-C2=1.4020         C1-C3=1.9051         C1-C4=1.4020         C2-C1=1.4020         C2-C3=1.4020         C2-C4=1.9055         
C3-C1=1.9051         C3-C2=1.4020         C3-C4=1.4020         C4-C1=1.4020         C4-C2=1.9055         C4-C3=1.4020         
 C  C  Rav=1.5698 sigma=0.2372  Rmin=1.4020  Rmax=1.9055     6

 selected bond angles (degree)
 --------------------
C3-C1-C2= 47.20                C4-C1-C2= 85.61                C4-C1-C3= 47.20                C3-C2-C1= 85.59                
C4-C2-C1= 47.19                C4-C2-C3= 47.19                C2-C3-C1= 47.20                C4-C3-C1= 47.20                
C4-C3-C2= 85.61                C2-C4-C1= 47.19                C3-C4-C1= 85.59                C3-C4-C2= 47.19                

 selected dihedral angles (degree)
 ---------------------------------
C3-C2-C1-C4=329.05            C4-C2-C1-C3= 30.95            C1-C3-C2-C4=329.05            C4-C3-C2-C1= 30.95            
C2-C4-C1-C3=329.05            C3-C4-C1-C2= 30.95            C1-C4-C3-C2=329.05            C2-C4-C3-C1= 30.95            
           -------------------------------------------------
          |                Final Singlepoint                |
           -------------------------------------------------

          ...................................................
          :                      SETUP                      :
          :.................................................:
          :  # basis functions                  16          :
          :  # atomic orbitals                  16          :
          :  # shells                            8          :
          :  # electrons                        16          :
          :  max. iterations                   250          :
          :  Hamiltonian                  GFN2-xTB          :
          :  restarted?                      false          :
          :  GBSA solvation                  false          :
          :  PC potential                    false          :
          :  electronic temp.          300.0000000     K    :
          :  accuracy                    1.0000000          :
          :  -> integral cutoff          0.2500000E+02      :
          :  -> integral neglect         0.1000000E-07      :
          :  -> SCF convergence          0.1000000E-05 Eh   :
          :  -> wf. convergence          0.1000000E-03 e    :
          :  Broyden damping             0.4000000          :
          ...................................................

 iter      E             dE          RMSdq      gap      omega  full diag
   1     -8.2489183 -0.824892E+01  0.211E-04    2.50       0.0  T
   2     -8.2489183  0.136779E-12  0.134E-04    2.50     373.5  T
   3     -8.2489183  0.432330E-10  0.813E-05    2.50     615.1  T

   *** convergence criteria satisfied after 3 iterations ***

         #    Occupation            Energy/Eh            Energy/eV
      -------------------------------------------------------------
         1        2.0000           -0.7393375             -20.1184
       ...           ...                  ...                  ...
         3        2.0000           -0.6283042             -17.0970
         4        2.0000           -0.5531562             -15.0521
         5        2.0000           -0.5336766             -14.5221
         6        2.0000           -0.4802882             -13.0693
         7        2.0000           -0.4635223             -12.6131
         8        1.0000           -0.4133249             -11.2471
         9        1.0000           -0.4132833             -11.2460 (HOMO)
        10                         -0.3213908              -8.7455 (LUMO)
        11                         -0.3212921              -8.7428
        12                         -0.2359633              -6.4209
        13                          0.1272467               3.4626
        14                          0.1772300               4.8227
       ...                                ...                  ...
        16                          0.5710667              15.5395
      -------------------------------------------------------------
                  HL-Gap            0.0918925 Eh            2.5005 eV
             Fermi-level           -0.4030341 Eh          -10.9671 eV

 transition dipole moment (au) for excitation:           8           9
     X       Y       Z   
  -0.0000  -0.0000   0.0004  total (au/Debye):    0.000   0.001
 dE (eV)             :    0.001
 oscillator strength :  0.52787E-11

 SCC (total)                   0 d,  0 h,  0 min,  0.003 sec
 SCC setup                      ...        0 min,  0.000 sec (  2.429%)
 Dispersion                     ...        0 min,  0.000 sec (  0.318%)
 integral evaluation            ...        0 min,  0.001 sec ( 27.060%)
 zeroth order Hamiltonian       ...        0 min,  0.000 sec (  0.335%)
 iterations                     ...        0 min,  0.000 sec ( 16.452%)
 molecular gradient             ...        0 min,  0.001 sec ( 32.312%)
 printout                       ...        0 min,  0.001 sec ( 20.949%)

         :::::::::::::::::::::::::::::::::::::::::::::::::::::
         ::                     SUMMARY                     ::
         :::::::::::::::::::::::::::::::::::::::::::::::::::::
         :: total energy              -8.122483816624 Eh    ::
         :: gradient norm              0.000260031836 Eh/a0 ::
         :: HOMO-LUMO gap              2.500522805119 eV    ::
         ::.................................................::
         :: SCC energy                -8.248918277708 Eh    ::
         :: -> isotropic ES           -0.009287459085 Eh    ::
         :: -> anisotropic ES          0.000503351527 Eh    ::
         :: -> anisotropic XC          0.004851811250 Eh    ::
         :: -> dispersion             -0.001705822564 Eh    ::
         :: repulsion energy           0.126434455661 Eh    ::
         :: add. restraining           0.000000000000 Eh    ::
         :::::::::::::::::::::::::::::::::::::::::::::::::::::

           ------------------------------------------------- 
          |                Numerical Hessian                |
           ------------------------------------------------- 
step length          :   0.00500
SCC accuracy         :   0.30000
Hessian scale factor :   1.00000
frozen atoms in %    :   0.00000    0
RMS gradient         :   0.00026
estimated CPU  time      0.00 min
estimated wall time      0.00 min

writing file <hessian>.

 projected vibrational frequencies (cm-1)
eigval :       -0.00    -0.00    -0.00     0.00     0.00     0.00
eigval :      559.54   635.69   915.63  1071.09  1071.39  1460.73
           -------------------------------------------------
          |                Property Printout                |
           -------------------------------------------------

    * Orbital Energies and Occupations

         #    Occupation            Energy/Eh            Energy/eV
      -------------------------------------------------------------
         1        2.0000           -0.7393375             -20.1184
         2        2.0000           -0.6283349             -17.0979
         3        2.0000           -0.6283042             -17.0970
         4        2.0000           -0.5531562             -15.0521
         5        2.0000           -0.5336766             -14.5221
         6        2.0000           -0.4802882             -13.0693
         7        2.0000           -0.4635223             -12.6131
         8        1.0000           -0.4133249             -11.2471
         9        1.0000           -0.4132833             -11.2460 (HOMO)
        10                         -0.3213908              -8.7455 (LUMO)
        11                         -0.3212921              -8.7428
        12                         -0.2359633              -6.4209
        13                          0.1272467               3.4626
        14                          0.1772300               4.8227
        15                          0.1773607               4.8262
        16                          0.5710667              15.5395
      -------------------------------------------------------------
                  HL-Gap            0.0918925 Eh            2.5005 eV
             Fermi-level           -0.4030341 Eh          -10.9671 eV

     #   Z        covCN         q      C6AA      α(0)
     1   6 C      2.640    -0.000    28.013     8.658
     2   6 C      2.639     0.000    28.013     8.658
     3   6 C      2.640    -0.000    28.013     8.658
     4   6 C      2.639     0.000    28.013     8.658

 Mol. C6AA /au·bohr⁶  :        448.212244
 Mol. C8AA /au·bohr⁸  :      12963.076976
 Mol. α(0) /au        :         34.632767


Wiberg/Mayer (AO) data.
largest (>0.10) Wiberg bond orders for each atom
          total WBO             WBO to atom ...
     1  C   2.904        C    2 1.176    C    4 1.176    C    3 0.552
     2  C   2.904        C    1 1.176    C    3 1.176    C    4 0.552
     3  C   2.904        C    2 1.176    C    4 1.176    C    1 0.552
     4  C   2.904        C    3 1.176    C    1 1.176    C    2 0.552

MOs/occ written to file <molden.input>


molecular dipole:
                 x           y           z       tot (Debye)
 q only:        0.000       0.000      -0.000
   full:        0.000       0.000      -0.000       0.000
molecular quadrupole (traceless):
                xx          xy          yy          xz          yz          zz
 q only:       -0.000      -0.000       0.000      -0.000       0.000      -0.000
  q+dip:       -0.468       0.001      -0.473      -0.108      -0.020       0.941
   full:       -1.252       0.004      -1.271      -0.290      -0.055       2.523

           -------------------------------------------------
          |                Geometry Summary                 |
Refinement of some symmetry elements was terminated before convergence was reached.
Some symmetry elements may remain unidentified.
Molecule has the following symmetry elements: 3*(C2) (S4) 2*(sigma) 
It seems to be the D2d point group
           -------------------------------------------------

      molecular mass/u    :       48.0429436
   center of mass at/Å    :       -0.0000000      -0.0000000      -0.0000003
  moments of inertia/u·Å² :        0.2360547E+02   0.2361389E+02   0.4360028E+02
rotational constants/cm⁻¹ :        0.7141409E+00   0.7138863E+00   0.3866405E+00

           -------------------------------------------------
          |               Frequency Printout                |
           -------------------------------------------------
 projected vibrational frequencies (cm-1)
eigval :       -0.00    -0.00    -0.00     0.00     0.00     0.00
eigval :      559.54   635.69   915.63  1071.09  1071.39  1460.73
 reduced masses (amu)
   1: 12.01   2: 12.01   3: 12.01   4: 12.01   5: 12.01   6: 12.01   7: 12.01   8: 12.01
   9: 12.01  10: 12.01  11: 12.01  12: 12.01
 IR intensities (amu)
   1:  0.00   2:  0.00   3:  0.00   4:  0.00   5:  0.01   6:  0.00   7:  0.00   8:  0.10
   9:  0.00  10:  1.80  11:  1.80  12:  0.00
 Raman intensities (amu)
   1:  0.00   2:  0.00   3:  0.00   4:  0.00   5:  0.00   6:  0.00   7:  0.00   8:  0.00
   9:  0.00  10:  0.00  11:  0.00  12:  0.00
 output can be read by thermo (or use thermo option).
 writing <g98.out> molden fake output.
 recommended (thermochemical) frequency scaling factor: 1.0
           -------------------------------------------------
          |             Thermodynamic Functions             |
           -------------------------------------------------

d2d symmetry found (for desy threshold:  0.10E+00) used in thermo

          ...................................................
          :                      SETUP                      :
          :.................................................:
          :  # frequencies                           6      :
          :  # imaginary freq.                       0      :
          :  linear?                             false      :
          :  only rotor calc.                    false      :
          :  symmetry                              d2d      :
          :  rotational number                       4      :
          :  scaling factor                  1.0000000      :
          :  rotor cutoff                   50.0000000 cm⁻¹ :
          :  imag. cutoff                  -20.0000000 cm⁻¹ :
          :.................................................:

    mode    ω/cm⁻¹     T·S(HO)/kcal·mol⁻¹    T·S(FR)/kcal·mol⁻¹   T·S(vib)
   ------------------------------------------------------------------------
   ------------------------------------------------------------------------

   temp. (K)  partition function   enthalpy   heat capacity  entropy
                                   cal/mol     cal/K/mol   cal/K/mol   J/K/mol
 298.15  VIB   1.15                  274.552      3.252      1.202
         ROT  0.298E+04              888.752      2.981     18.876
         INT  0.343E+04             1163.305      6.233     20.079
         TR   0.322E+27             1481.254      4.968     37.516
         TOT                        2644.5587    11.2011    57.5947   240.9761

   temp. (K)  partition function   enthalpy   heat capacity  entropy
                                   cal/mol     cal/K/mol   cal/K/mol   J/K/mol
 120.00  VIB   1.00                    2.906      0.172      0.028
         ROT   760.                  357.707      2.981     16.164
         INT   762.                  360.613      3.153     16.191
         TR   0.823E+26              596.178      4.968     32.997
         TOT                         956.7907     8.1209    49.1878   205.8016

   temp. (K)  partition function   enthalpy   heat capacity  entropy
                                   cal/mol     cal/K/mol   cal/K/mol   J/K/mol
 100.00  VIB   1.00                    0.710      0.060      0.008
         ROT   578.                  298.089      2.981     15.620
         INT   579.                  298.799      3.041     15.628
         TR   0.626E+26              496.815      4.968     32.091
         TOT                         795.6145     8.0087    47.7192   199.6571

   temp. (K)  partition function   enthalpy   heat capacity  entropy
                                   cal/mol     cal/K/mol   cal/K/mol   J/K/mol
  80.00  VIB   1.00                    0.088      0.011      0.001
         ROT   414.                  238.471      2.981     14.955
         INT   414.                  238.559      2.992     14.956
         TR   0.448E+26              397.452      4.968     30.983
         TOT                         636.0113     7.9605    45.9392   192.2095

   temp. (K)  partition function   enthalpy   heat capacity  entropy
                                   cal/mol     cal/K/mol   cal/K/mol   J/K/mol
  60.00  VIB   1.00                    0.003      0.001     -0.000
         ROT   269.                  178.853      2.981     14.097
         INT   269.                  178.856      2.982     14.097
         TR   0.291E+26              298.089      4.968     29.555
         TOT                         476.9452     7.9497    43.6519   182.6395

   temp. (K)  partition function   enthalpy   heat capacity  entropy
                                   cal/mol     cal/K/mol   cal/K/mol   J/K/mol
  40.00  VIB   1.00                    0.000      0.000     -0.000
         ROT   146.                  119.236      2.981     12.889
         INT   146.                  119.236      2.981     12.889
         TR   0.158E+26              198.726      4.968     27.541
         TOT                         317.9616     7.9490    40.4297   169.1579

   temp. (K)  partition function   enthalpy   heat capacity  entropy
                                   cal/mol     cal/K/mol   cal/K/mol   J/K/mol
  20.00  VIB   1.00                    0.000      0.000     -0.000
         ROT   51.7                   59.618      2.981     10.823
         INT   51.7                   59.618      2.981     10.822
         TR   0.560E+25               99.363      4.968     24.099
         TOT                         158.9808     7.9490    34.9215   146.1114

   temp. (K)  partition function   enthalpy   heat capacity  entropy
                                   cal/mol     cal/K/mol   cal/K/mol   J/K/mol
  10.00  VIB   1.00                    0.000      0.000     -0.000
         ROT   18.3                   29.809      2.981      8.756
         INT   18.3                   29.809      2.981      8.756
         TR   0.198E+25               49.681      4.968     20.657
         TOT                          79.4904     7.9490    29.4132   123.0648

       T/K    H(0)-H(T)+PV         H(T)/Eh          T*S/Eh         G(T)/Eh
   ------------------------------------------------------------------------
    298.15    0.421437E-02    0.172320E-01    0.273651E-01   -0.101331E-01
    120.00    0.152474E-02    0.145424E-01    0.940628E-02    0.513608E-02
    100.00    0.126789E-02    0.142855E-01    0.760454E-02    0.668097E-02
     80.00    0.101355E-02    0.140312E-01    0.585670E-02    0.817447E-02
     60.00    0.760061E-03    0.137777E-01    0.417382E-02    0.960386E-02
     40.00    0.506704E-03    0.135243E-01    0.257715E-02    0.109472E-01
     20.00    0.253352E-03    0.132710E-01    0.111302E-02    0.121580E-01
     10.00    0.126676E-03    0.131443E-01    0.468729E-03    0.126756E-01 (used)
   ------------------------------------------------------------------------

         :::::::::::::::::::::::::::::::::::::::::::::::::::::
         ::                  THERMODYNAMIC                  ::
         :::::::::::::::::::::::::::::::::::::::::::::::::::::
         :: total free energy          -8.109808252250 Eh   ::
         ::.................................................::
         :: total energy               -8.122483816642 Eh   ::
         :: zero point energy           0.013017617628 Eh   ::
         :: G(RRHO) w/o ZPVE           -0.000342053236 Eh   ::
         :: G(RRHO) contrib.            0.012675564392 Eh   ::
         :::::::::::::::::::::::::::::::::::::::::::::::::::::

optimized geometry written to: xtbopt.xyz


           -------------------------------------------------
          | TOTAL ENERGY               -8.122483816642 Eh   |
          | TOTAL ENTHALPY             -8.109339522999 Eh   |
          | TOTAL FREE ENERGY          -8.109808252250 Eh   |
          | GRADIENT NORM               0.000260041862 Eh/α |
          | HOMO-LUMO GAP               2.500521574546 eV   |
           -------------------------------------------------

------------------------------------------------------------------------
 * finished run on 2020/05/12 at 14:38:40.738     
------------------------------------------------------------------------
 total:
 * wall-time:     0 d,  0 h,  0 min,  0.104 sec
 *  cpu-time:     0 d,  0 h,  0 min,  0.103 sec
 * ratio c/w:     0.988 speedup
 SCF:
 * wall-time:     0 d,  0 h,  0 min,  0.005 sec
 *  cpu-time:     0 d,  0 h,  0 min,  0.005 sec
 * ratio c/w:     0.997 speedup
 ANC optimizer:
 * wall-time:     0 d,  0 h,  0 min,  0.025 sec
 *  cpu-time:     0 d,  0 h,  0 min,  0.025 sec
 * ratio c/w:     0.993 speedup
 numerical hessian:
 * wall-time:     0 d,  0 h,  0 min,  0.057 sec
 *  cpu-time:     0 d,  0 h,  0 min,  0.057 sec
 * ratio c/w:     0.993 speedup

