5
 energy: -10.947517128795 gnorm: 0.000599158549 xtb: 6.2.2 (9d81278992624c895f80dd42a50cac0aa55982e2)
C         1.33385134751792   -0.02345981239305   -0.02643054490271
C         0.14411918571719    0.84060128141115    0.08668802065114
C        -0.84910014900317    0.11139480792849   -0.69578408021171
N        -0.73869053790580   -0.09004231991003    0.77686433344377
C         0.10982015366862   -0.83849495703656   -0.14133772897876
