5
 energy: -9.356852002521 gnorm: 0.283142829249 xtb: 6.2.2 (9d81278992624c895f80dd42a50cac0aa55982e2)
C        -0.89079400000000    1.24407900000000    0.36001700000000
N        -0.47701400000000    0.02278000000000   -0.30870600000000
C         0.66970800000000   -0.49320200000000    0.41871200000000
C         1.94917700000000   -0.10882100000000   -0.29880900000000
H        -1.25107700000000   -0.66483600000000   -0.17121400000000
5
 energy: -9.437874047250 gnorm: 0.184147186384 xtb: 6.2.2 (9d81278992624c895f80dd42a50cac0aa55982e2)
C        -0.88512161766514    1.22828028173734    0.33102865437209
N        -0.49357323658839    0.03194370316717   -0.21382124090029
C         0.73489108366884   -0.44572148323023    0.32577496032705
C         1.89505384573614   -0.14383856138523   -0.24688860675155
H        -1.25125007515145   -0.67066394028906   -0.19609376704730
5
 energy: -9.427103876882 gnorm: 0.578572771558 xtb: 6.2.2 (9d81278992624c895f80dd42a50cac0aa55982e2)
C        -0.89719621232305    1.21297489028412    0.29202997251301
N        -0.51989524148378    0.06232721563390   -0.06643861659195
C         0.82500156002105   -0.37014831525554    0.19290664774466
C         1.82346621347878   -0.21528628720347   -0.17980768427708
H        -1.23137631969299   -0.68986750345900   -0.23869031938864
5
 energy: -9.475822338449 gnorm: 0.082166352212 xtb: 6.2.2 (9d81278992624c895f80dd42a50cac0aa55982e2)
C        -0.92916076704953    1.22164861058295    0.30518611077106
N        -0.55865814347274    0.06905720256243   -0.05948658671439
C         0.76846442818353   -0.34761521774416    0.17687319863950
C         1.96069321006346   -0.23800032762813   -0.19288089960340
H        -1.24133872772472   -0.70509026777308   -0.22969182309277
5
 energy: -9.479605321321 gnorm: 0.047459770905 xtb: 6.2.2 (9d81278992624c895f80dd42a50cac0aa55982e2)
C        -0.96903319054628    1.25139490733494    0.30557222012657
N        -0.54546610713302    0.07255981198716   -0.00834934891388
C         0.77839268757531   -0.33701588973327    0.17992853962210
C         1.94896493132182   -0.27101221972071   -0.21201471343843
H        -1.21285832121783   -0.71592660986812   -0.26513669739637
5
 energy: -9.482830241775 gnorm: 0.012302159777 xtb: 6.2.2 (9d81278992624c895f80dd42a50cac0aa55982e2)
C        -0.99070780649275    1.24803161408002    0.30163604744689
N        -0.54036970246912    0.07018337523752    0.02511882661503
C         0.76839371968011   -0.31374804309245    0.13422895539266
C         1.93425230677928   -0.29895016294875   -0.19731138080880
H        -1.17156851749752   -0.70551678327633   -0.26367244864579
5
 energy: -9.482690726516 gnorm: 0.062704286285 xtb: 6.2.2 (9d81278992624c895f80dd42a50cac0aa55982e2)
C        -1.06387510588097    1.23252008825863    0.32628337744212
N        -0.53969407978809    0.09557706013457    0.05004705272306
C         0.77857466507447   -0.22334888548550    0.12810935234626
C         1.95267126552756   -0.39735550559187   -0.21347490493056
H        -1.12767674493297   -0.70739275731583   -0.29096487758088
5
 energy: -9.483624919892 gnorm: 0.009444738226 xtb: 6.2.2 (9d81278992624c895f80dd42a50cac0aa55982e2)
C        -1.02944088828630    1.23371171672131    0.31305374032405
N        -0.54189487014410    0.07621299362691    0.03892776476672
C         0.77602104064047   -0.26218948809647    0.11643675744708
C         1.94359557159479   -0.35114095015284   -0.19658853698266
H        -1.14828085380486   -0.69659427209891   -0.27182972555519
5
 energy: -9.483788956175 gnorm: 0.009895914191 xtb: 6.2.2 (9d81278992624c895f80dd42a50cac0aa55982e2)
C        -1.04554807402167    1.23143167431892    0.31880408280764
N        -0.53769984291843    0.08195126638296    0.04085781243642
C         0.78000683587752   -0.24676882930500    0.12260911237237
C         1.94100376042854   -0.37047059171485   -0.20342327215290
H        -1.13776267936596   -0.69614351968203   -0.27884773546354
5
 energy: -9.483954453563 gnorm: 0.031465012410 xtb: 6.2.2 (9d81278992624c895f80dd42a50cac0aa55982e2)
C        -1.10997870728096    1.21981881333721    0.34016445917070
N        -0.53263006655912    0.10542403438690    0.04511795623709
C         0.79983547814458   -0.18425165831722    0.12446320122565
C         1.94296882435369   -0.44830135072460   -0.21530751958066
H        -1.10019552865819   -0.69268983868228   -0.29443809705278
5
 energy: -9.484201517950 gnorm: 0.007736144817 xtb: 6.2.2 (9d81278992624c895f80dd42a50cac0aa55982e2)
C        -1.08995983821037    1.22144657063794    0.33466000907977
N        -0.53391063048574    0.10034484550452    0.04173886405720
C         0.79498849020944   -0.19961869663207    0.12210229903795
C         1.93696466515764   -0.42767004824232   -0.20972951760038
H        -1.10808268667097   -0.69450267126807   -0.28877165457453
5
 energy: -9.484341093228 gnorm: 0.004380584666 xtb: 6.2.2 (9d81278992624c895f80dd42a50cac0aa55982e2)
C        -1.10511384754905    1.21654211872835    0.34034984459288
N        -0.53244350780137    0.10862155786125    0.03976050223391
C         0.79940914080377   -0.18204099001532    0.11710594641167
C         1.93277196711271   -0.44888526088415   -0.20848924988364
H        -1.09462375256605   -0.69423742569013   -0.28872704335481
5
 energy: -9.484501837549 gnorm: 0.014099051509 xtb: 6.2.2 (9d81278992624c895f80dd42a50cac0aa55982e2)
C        -1.15380701426889    1.20426840325055    0.35563871254909
N        -0.52965460410312    0.13289327177183    0.03877468849585
C         0.81494635211182   -0.13099885358803    0.09523997367684
C         1.92721173628004   -0.51258804017391   -0.20196505332321
H        -1.05869647001985   -0.69357478126044   -0.28768832139857
5
 energy: -9.484579518447 gnorm: 0.004270890096 xtb: 6.2.2 (9d81278992624c895f80dd42a50cac0aa55982e2)
C        -1.14678553198802    1.20487790539738    0.35309339457854
N        -0.53002722433905    0.13075579649983    0.03837901087521
C         0.81356722554191   -0.13623453187326    0.08932445575625
C         1.92613032203013   -0.50515089136236   -0.19706187561453
H        -1.06288479124496   -0.69424827866159   -0.28373498559546
5
 energy: -9.484633582385 gnorm: 0.003848147383 xtb: 6.2.2 (9d81278992624c895f80dd42a50cac0aa55982e2)
C        -1.15661110979079    1.19977267657648    0.35734186323515
N        -0.52792316734005    0.13613236306898    0.03706651427923
C         0.81664411865445   -0.11950878170202    0.07709661196299
C         1.92183267777233   -0.52190578298317   -0.19086645562639
H        -1.05394251929594   -0.69449047496027   -0.28063853385099
5
 energy: -9.484677954828 gnorm: 0.005880960363 xtb: 6.2.2 (9d81278992624c895f80dd42a50cac0aa55982e2)
C        -1.17508200268339    1.19266185996481    0.36439413325062
N        -0.52572011518353    0.14483831528211    0.03734110252720
C         0.82454050976710   -0.08917422727253    0.04947454837014
C         1.91742812810351   -0.55230381494025   -0.17667765817269
H        -1.04116652000369   -0.69602213303413   -0.27453212597527
5
 energy: -9.484712281553 gnorm: 0.002143517741 xtb: 6.2.2 (9d81278992624c895f80dd42a50cac0aa55982e2)
C        -1.17000347464456    1.19332954682793    0.36376099617475
N        -0.52540414270748    0.14190261135759    0.03718657285215
C         0.82347451381476   -0.08930629974911    0.04266374813180
C         1.91734644976519   -0.54856382525709   -0.17184497988369
H        -1.04541334622791   -0.69736203317932   -0.27176633727502
5
 energy: -9.484738368313 gnorm: 0.001894913615 xtb: 6.2.2 (9d81278992624c895f80dd42a50cac0aa55982e2)
C        -1.16941538807360    1.19253176356628    0.36526494760046
N        -0.52576672708835    0.14107787947108    0.03696023988314
C         0.82473103018455   -0.07924081833166    0.02122637184522
C         1.91777388900977   -0.55390127394776   -0.15876510763276
H        -1.04732280403237   -0.70046755075793   -0.26468645169606
5
 energy: -9.484753553092 gnorm: 0.001514284959 xtb: 6.2.2 (9d81278992624c895f80dd42a50cac0aa55982e2)
C        -1.16696149167910    1.19431644870814    0.36586165348745
N        -0.52673260759851    0.13942640227529    0.03586487080647
C         0.82453353438250   -0.07230523106043   -0.00893289360392
C         1.92099100738660   -0.55606092205641   -0.14018165865556
H        -1.05183044249149   -0.70537669786658   -0.25261197203444
5
 energy: -9.484754451574 gnorm: 0.002172482119 xtb: 6.2.2 (9d81278992624c895f80dd42a50cac0aa55982e2)
C        -1.16109306750214    1.19627056930316    0.36390582850755
N        -0.52759446237926    0.13728017496793    0.03493667797046
C         0.82208360670162   -0.08002954968137   -0.00618008623979
C         1.92319245358803   -0.54755932246990   -0.14091741383441
H        -1.05658853040825   -0.70596187211983   -0.25174500640381
5
 energy: -9.484756540790 gnorm: 0.000734028951 xtb: 6.2.2 (9d81278992624c895f80dd42a50cac0aa55982e2)
C        -1.16249628127724    1.19534794655752    0.36440821788903
N        -0.52734780529906    0.13807374921096    0.03459703143203
C         0.82262770452921   -0.07788183208168   -0.00790584767115
C         1.92292033004817   -0.54973855714016   -0.13998840096176
H        -1.05570394800107   -0.70580130654664   -0.25111100068815
