      -----------------------------------------------------------      
     |                   =====================                   |     
     |                           x T B                           |     
     |                   =====================                   |     
     |                         S. Grimme                         |     
     |          Mulliken Center for Theoretical Chemistry        |     
     |                    University of Bonn                     |     
      -----------------------------------------------------------      

   * xtb version 6.2.2 (9d81278992624c895f80dd42a50cac0aa55982e2) compiled by '@Darwin' on 04/03/2020

   xtb is free software: you can redistribute it and/or modify it under
   the terms of the GNU Lesser General Public License as published by
   the Free Software Foundation, either version 3 of the License, or
   (at your option) any later version.
   
   xtb is distributed in the hope that it will be useful,
   but WITHOUT ANY WARRANTY; without even the implied warranty of
   MERCHANTABILITY or FITNESS FOR A PARTICULAR PURPOSE.  See the
   GNU Lesser General Public License for more details.
   
   Cite this work as:
   * S. Grimme, C. Bannwarth, P. Shushkov, J. Chem. Theory Comput., 2017,
     13, 1989-2009. DOI: 10.1021/acs.jctc.7b00118
   * C. Bannwarth, S. Ehlert and S. Grimme., J. Chem. Theory Comput., 2019,
     15, 1652-1671. DOI: 10.1021/acs.jctc.8b01176
   * P. Pracht, E. Caldeweyher, S. Ehlert, S. Grimme, ChemRxiv, 2019, preprint.
     DOI: 10.26434/chemrxiv.8326202.v1
   
   for DFT-D4:
   * E. Caldeweyher, C. Bannwarth and S. Grimme, J. Chem. Phys., 2017,
     147, 034112. DOI: 10.1063/1.4993215
   * E. Caldeweyher, S. Ehlert, A. Hansen, H. Neugebauer, S. Spicher,
     C. Bannwarth and S. Grimme, J. Chem. Phys., 2019, 150, 154122.
     DOI: 10.1063/1.5090222
   
   for sTDA-xTB:
   * S. Grimme and C. Bannwarth, J. Chem. Phys., 2016, 145, 054103.
     DOI: 10.1063/1.4959605
   
   in the mass-spec context:
   * V. Asgeirsson, C. Bauer and S. Grimme, Chem. Sci., 2017, 8, 4879.
     DOI: 10.1039/c7sc00601b
   
   for metadynamics refer to:
   * S. Grimme, J. Chem. Theory Comput., 2019, 155, 2847-2862
     DOI: 10.1021/acs.jctc.9b00143
   
   with help from (in alphabetical order)
   C. Bannwarth, F. Bohle, G. Brandenburg, E. Caldeweyher, M. Checinski,
   S. Dohm, S. Ehlert, S. Ehrlich, F. März, H. Neugebauer, J. Pisarek,
   P. Pracht, P. Shushkov, and S. Spicher.
   
 * started run on 2020/05/12 at 11:44:54.224     

           -------------------------------------------------
          |                Calculation Setup                |
           -------------------------------------------------

          program call               : xtb --input H1C3N1_10_S_2.input H1C3N1_10_S_2.xyz --ohess --molden --namespace H1C3N1_10_S_2 output.out
          calculation namespace      : H1C3N1_10_S_2
          coordinate file            : H1C3N1_10_S_2.xyz
          number of atoms            :                     5
          number of electrons        :                    18
          charge                     :                     0
          spin                       :                   1.0
          first test random number   :      0.03772519657191

   ID    Z sym.   atoms
    1    6 C      1, 3, 4
    2    7 N      2
    3    1 H      5

           -------------------------------------------------
          |                 G F N 2 - x T B                 |
           -------------------------------------------------

        Reference                      10.1021/acs.jctc.8b01176
      * Hamiltonian:
        H0-scaling (s, p, d)           1.850000    2.230000    2.230000
        zeta-weighting                 0.500000
      * Dispersion:
        s8                             2.700000
        a1                             0.520000
        a2                             5.000000
        s9                             5.000000
      * Repulsion:
        kExp                           1.500000    1.000000
        rExp                           1.000000
      * Coulomb:
        alpha                          2.000000
        third order                    shell-resolved
        anisotropic                    true
        a3                             3.000000
        a5                             4.000000
        cn-shift                       1.200000
        cn-exp                         4.000000
        max-rad                        5.000000


          ...................................................
          :                      SETUP                      :
          :.................................................:
          :  # basis functions                  17          :
          :  # atomic orbitals                  17          :
          :  # shells                            9          :
          :  # electrons                        18          :
          :  max. iterations                   250          :
          :  Hamiltonian                  GFN2-xTB          :
          :  restarted?                      false          :
          :  GBSA solvation                  false          :
          :  PC potential                    false          :
          :  electronic temp.          300.0000000     K    :
          :  accuracy                    1.0000000          :
          :  -> integral cutoff          0.2500000E+02      :
          :  -> integral neglect         0.1000000E-07      :
          :  -> SCF convergence          0.1000000E-05 Eh   :
          :  -> wf. convergence          0.1000000E-03 e    :
          :  Broyden damping             0.4000000          :
          ...................................................

 iter      E             dE          RMSdq      gap      omega  full diag
   1     -9.3057005 -0.930570E+01  0.987E+00    0.50       0.0  T
   2     -8.0801828  0.122552E+01  0.119E+01    0.56       1.0  T
   3     -7.3523165  0.727866E+00  0.129E+01    1.67       1.0  T
   4     -9.1399022 -0.178759E+01  0.700E+00    0.50       1.0  T
   5     -9.3255280 -0.185626E+00  0.443E+00    0.43       1.0  T
   6     -9.4033849 -0.778569E-01  0.229E+00    0.39       1.0  T
   7     -9.3908066  0.125782E-01  0.209E+00    0.36       1.0  T
   8     -9.3901451  0.661499E-03  0.179E+00    0.35       1.0  T
   9     -9.4067155 -0.165704E-01  0.112E+00    0.35       1.0  T
  10     -9.4067887 -0.731812E-04  0.114E+00    0.35       1.0  T
  11     -9.4073422 -0.553472E-03  0.346E-01    0.33       1.0  T
  12     -9.4076825 -0.340373E-03  0.990E-02    0.33       1.0  T
  13     -9.4076800  0.251803E-05  0.964E-02    0.33       1.0  T
  14     -9.4077179 -0.379068E-04  0.151E-02    0.33       3.0  T
  15     -9.4077194 -0.149752E-05  0.134E-02    0.33       3.3  T
  16     -9.4077195 -0.504080E-07  0.598E-03    0.33       7.5  T
  17     -9.4077196 -0.668553E-07  0.540E-04    0.33      82.8  T
  18     -9.4077196 -0.166839E-09  0.227E-04    0.33     197.0  T

   *** convergence criteria satisfied after 18 iterations ***

         #    Occupation            Energy/Eh            Energy/eV
      -------------------------------------------------------------
         1        2.0000           -0.7057785             -19.2052
       ...           ...                  ...                  ...
         4        2.0000           -0.5919142             -16.1068
         5        2.0000           -0.5493216             -14.9478
         6        2.0000           -0.4987224             -13.5709
         7        2.0000           -0.4840593             -13.1719
         8        1.9989           -0.4238269             -11.5329
         9        1.0011           -0.4109231             -11.1818
        10        0.9983           -0.3731912             -10.1550 (HOMO)
        11        0.0017           -0.3610256              -9.8240 (LUMO)
        12                         -0.3356898              -9.1346
        13                         -0.2904145              -7.9026
        14                         -0.0067569              -0.1839
        15                          0.0629183               1.7121
       ...                                ...                  ...
        17                          0.1082020               2.9443
      -------------------------------------------------------------
                  HL-Gap            0.0121656 Eh            0.3310 eV
             Fermi-level           -0.3922417 Eh          -10.6734 eV

 transition dipole moment (au) for excitation:           9          10
     X       Y       Z   
   0.1010  -0.2467   0.0971  total (au/Debye):    0.284   0.721
 dE (eV)             :    1.027
 oscillator strength :  0.28638E-02

 SCC (total)                   0 d,  0 h,  0 min,  0.005 sec
 SCC setup                      ...        0 min,  0.000 sec (  1.890%)
 Dispersion                     ...        0 min,  0.000 sec (  0.370%)
 integral evaluation            ...        0 min,  0.001 sec ( 21.566%)
 zeroth order Hamiltonian       ...        0 min,  0.000 sec (  0.432%)
 iterations                     ...        0 min,  0.002 sec ( 36.155%)
 molecular gradient             ...        0 min,  0.001 sec ( 21.694%)
 printout                       ...        0 min,  0.001 sec ( 17.733%)

         :::::::::::::::::::::::::::::::::::::::::::::::::::::
         ::                     SUMMARY                     ::
         :::::::::::::::::::::::::::::::::::::::::::::::::::::
         :: total energy              -9.356852002447 Eh    ::
         :: gradient norm              0.283142919808 Eh/a0 ::
         :: HOMO-LUMO gap              0.331042937352 eV    ::
         ::.................................................::
         :: SCC energy                -9.407719550401 Eh    ::
         :: -> isotropic ES           -0.028660593921 Eh    ::
         :: -> anisotropic ES          0.001016409756 Eh    ::
         :: -> anisotropic XC          0.008075824965 Eh    ::
         :: -> dispersion             -0.002250052559 Eh    ::
         :: repulsion energy           0.050867450725 Eh    ::
         :: add. restraining           0.000000000000 Eh    ::
         :::::::::::::::::::::::::::::::::::::::::::::::::::::

      ----------------------------------------------------------- 
     |                   =====================                   |
     |                        A N C O P T                        |
     |                   =====================                   |
     |               Approximate Normal Coordinate               |
     |                Rational Function Optimizer                |
      ----------------------------------------------------------- 

          ...................................................
          :                      SETUP                      :
          :.................................................:
          :   optimization level            normal          :
          :   max. optcycles                   200          :
          :   ANC micro-cycles                  20          :
          :   degrees of freedom                 9          :
          :.................................................:
          :   RF solver                   davidson          :
          :   write xtbopt.log                true          :
          :   linear?                        false          :
          :   energy convergence         0.5000000E-05 Eh   :
          :   grad. convergence          0.1000000E-02 Eh/α :
          :   maximium RF displ.         1.0000000          :
          :   Hlow (freq-cutoff)         0.1000000E-01      :
          :   Hmax (freq-cutoff)         5.0000000          :
          :   S6 in model hess.         20.0000000          :
          ...................................................

generating ANC from model Hessian ...
Using Lindh-Hessian (1995)
 Shifting diagonal of input Hessian by    0.0000000000000000     
 Lowest  eigenvalues of input Hessian
   -0.000000   -0.000000   -0.000000    0.000000    0.000000    0.000000
    0.011950    0.055689    0.110856    0.121761    0.152489    0.737121
    0.856868    1.164092    1.217990
 Highest eigenvalues
    0.121761    0.152489    0.737121    0.856868    1.164092    1.217990


........................................................................
.............................. CYCLE    1 ..............................
........................................................................
   1     -9.4077196 -0.940772E+01  0.461E-05    0.33       0.0  T
   2     -9.4077196  0.593428E-10  0.803E-05    0.33     556.9  T
   3     -9.4077196  0.327507E-10  0.116E-04    0.33     384.8  T
     SCC iter.                  ...        0 min,  0.000 sec
     gradient                   ...        0 min,  0.001 sec
 * total energy  :    -9.3568520 Eh     change       -0.7347012E-10 Eh
   gradient norm :     0.2831428 Eh/α   predicted     0.0000000E+00 (-100.00%)
   displ. norm   :     0.3439519 α      lambda       -0.9339605E-01
   maximum displ.:     0.2913487 α      in ANC's #6, #7, #5, ...

........................................................................
.............................. CYCLE    2 ..............................
........................................................................
   1     -9.5249940 -0.952499E+01  0.252E+00    0.61       0.0  T
   2     -9.5032040  0.217900E-01  0.261E+00    0.51       1.0  T
   3     -9.5313764 -0.281724E-01  0.138E+00    0.53       1.0  T
   4     -9.5180743  0.133021E-01  0.149E+00    0.64       1.0  T
   5     -9.5355548 -0.174804E-01  0.490E-01    0.51       1.0  T
   6     -9.5369114 -0.135667E-02  0.202E-01    0.53       1.0  T
   7     -9.5370425 -0.131106E-03  0.483E-02    0.53       1.0  T
   8     -9.5370492 -0.665133E-05  0.146E-02    0.53       3.1  T
   9     -9.5370496 -0.359993E-06  0.333E-03    0.53      13.4  T
  10     -9.5370496 -0.728898E-07  0.464E-04    0.53      96.4  T
  11     -9.5370496 -0.181121E-09  0.849E-05    0.53     526.5  T
     SCC iter.                  ...        0 min,  0.001 sec
     gradient                   ...        0 min,  0.001 sec
 * total energy  :    -9.4378740 Eh     change       -0.8102204E-01 Eh
   gradient norm :     0.1841413 Eh/α   predicted    -0.5222252E-01 ( -35.55%)
   displ. norm   :     0.5141701 α      lambda       -0.8952905E-01
   maximum displ.:     0.4229873 α      in ANC's #6, #5, #7, ...

........................................................................
.............................. CYCLE    3 ..............................
........................................................................
   1     -9.7242732 -0.972427E+01  0.329E+00    1.30       0.0  T
   2     -9.7237308  0.542415E-03  0.226E+00    1.17       1.0  T
   3     -9.7210310  0.269974E-02  0.162E+00    1.27       1.0  T
   4     -9.7288431 -0.781209E-02  0.852E-01    1.19       1.0  T
   5     -9.7324266 -0.358350E-02  0.265E-01    1.21       1.0  T
   6     -9.7324811 -0.544945E-04  0.147E-01    1.20       1.0  T
   7     -9.7325428 -0.616695E-04  0.451E-02    1.20       1.0  T
   8     -9.7325473 -0.456895E-05  0.776E-03    1.20       5.8  T
   9     -9.7325474 -0.562449E-07  0.421E-04    1.20     106.2  T
  10     -9.7325474 -0.190669E-09  0.217E-04    1.20     206.2  T
     SCC iter.                  ...        0 min,  0.001 sec
     gradient                   ...        0 min,  0.001 sec
 * total energy  :    -9.4271039 Eh     change        0.1077017E-01 Eh
   gradient norm :     0.5766151 Eh/α   predicted    -0.5659895E-01 (-625.52%)
   displ. norm   :     0.3091163 α      lambda       -0.1385952E+00
   maximum displ.:     0.2015682 α      in ANC's #2, #7, #6, ...

........................................................................
.............................. CYCLE    4 ..............................
........................................................................
   1     -9.6277603 -0.962776E+01  0.130E+00    1.04       0.0  T
   2     -9.6271818  0.578498E-03  0.100E+00    1.11       1.0  T
   3     -9.6178430  0.933875E-02  0.109E+00    0.98       1.0  T
   4     -9.6262749 -0.843188E-02  0.642E-01    1.10       1.0  T
   5     -9.6288084 -0.253351E-02  0.179E-01    1.09       1.0  T
   6     -9.6289548 -0.146440E-03  0.685E-02    1.07       1.0  T
   7     -9.6289437  0.111227E-04  0.410E-02    1.07       1.1  T
   8     -9.6289554 -0.116621E-04  0.723E-03    1.07       6.2  T
   9     -9.6289556 -0.203238E-06  0.259E-03    1.07      17.3  T
  10     -9.6289556 -0.545157E-08  0.695E-04    1.07      64.3  T
  11     -9.6289556 -0.118114E-08  0.165E-04    1.07     271.4  T
     SCC iter.                  ...        0 min,  0.001 sec
     gradient                   ...        0 min,  0.001 sec
 * total energy  :    -9.4758223 Eh     change       -0.4871846E-01 Eh
   gradient norm :     0.0819289 Eh/α   predicted    -0.7591915E-01 (  55.83%)
   displ. norm   :     0.1819906 α      lambda       -0.5911942E-02
   maximum displ.:     0.1254599 α      in ANC's #1, #3, #5, ...

........................................................................
.............................. CYCLE    5 ..............................
........................................................................
   1     -9.6331709 -0.963317E+01  0.643E-01    1.07       0.0  T
   2     -9.6332680 -0.970904E-04  0.361E-01    1.08       1.0  T
   3     -9.6329827  0.285248E-03  0.244E-01    1.05       1.0  T
   4     -9.6330619 -0.791659E-04  0.171E-01    1.08       1.0  T
   5     -9.6332960 -0.234116E-03  0.492E-02    1.07       1.0  T
   6     -9.6333009 -0.483453E-05  0.314E-02    1.07       1.4  T
   7     -9.6333045 -0.364814E-05  0.452E-03    1.07       9.9  T
   8     -9.6333045 -0.327464E-07  0.198E-03    1.07      22.6  T
   9     -9.6333045 -0.540790E-08  0.529E-04    1.07      84.5  T
  10     -9.6333045 -0.245679E-09  0.697E-05    1.07     641.7  T
     SCC iter.                  ...        0 min,  0.001 sec
     gradient                   ...        0 min,  0.001 sec
 * total energy  :    -9.4796053 Eh     change       -0.3782983E-02 Eh
   gradient norm :     0.0473711 Eh/α   predicted    -0.3053875E-02 ( -19.27%)
   displ. norm   :     0.1626339 α      lambda       -0.5537227E-02
   maximum displ.:     0.1274829 α      in ANC's #6, #4, #1, ...

........................................................................
.............................. CYCLE    6 ..............................
........................................................................
   1     -9.6575293 -0.965753E+01  0.684E-01    1.10       0.0  T
   2     -9.6575154  0.139277E-04  0.475E-01    1.08       1.0  T
   3     -9.6568657  0.649664E-03  0.421E-01    1.09       1.0  T
   4     -9.6574009 -0.535173E-03  0.206E-01    1.10       1.0  T
   5     -9.6577174 -0.316506E-03  0.624E-02    1.08       1.0  T
   6     -9.6577266 -0.923000E-05  0.230E-02    1.08       1.9  T
   7     -9.6577281 -0.150763E-05  0.446E-03    1.08      10.0  T
   8     -9.6577281 -0.247693E-07  0.111E-03    1.08      40.4  T
   9     -9.6577281 -0.838497E-09  0.240E-04    1.08     186.1  T
  10     -9.6577281 -0.402380E-10  0.542E-05    1.08     825.1  T
     SCC iter.                  ...        0 min,  0.001 sec
     gradient                   ...        0 min,  0.001 sec
 * total energy  :    -9.4828302 Eh     change       -0.3224920E-02 Eh
   gradient norm :     0.0121111 Eh/α   predicted    -0.2841844E-02 ( -11.88%)
   displ. norm   :     0.3203650 α      lambda       -0.1862179E-02
   maximum displ.:     0.2950936 α      in ANC's #1, #6, #2, ...

........................................................................
.............................. CYCLE    7 ..............................
........................................................................
   1     -9.6450501 -0.964505E+01  0.125E+00    1.09       0.0  T
   2     -9.6397736  0.527652E-02  0.108E+00    1.17       1.0  T
   3     -9.6368218  0.295174E-02  0.122E+00    1.05       1.0  T
   4     -9.6464614 -0.963961E-02  0.135E-01    1.11       1.0  T
   5     -9.6464900 -0.285696E-04  0.858E-02    1.10       1.0  T
   6     -9.6465151 -0.250627E-04  0.602E-02    1.11       1.0  T
   7     -9.6465229 -0.781385E-05  0.138E-02    1.10       3.2  T
   8     -9.6465234 -0.524689E-06  0.188E-03    1.10      23.8  T
   9     -9.6465234 -0.461226E-08  0.582E-04    1.10      76.8  T
  10     -9.6465234 -0.155290E-08  0.184E-04    1.10     242.6  T
     SCC iter.                  ...        0 min,  0.001 sec
     gradient                   ...        0 min,  0.001 sec
 * total energy  :    -9.4826907 Eh     change        0.1395153E-03 Eh
   gradient norm :     0.0619049 Eh/α   predicted    -0.1026653E-02 (-835.87%)
   displ. norm   :     0.1572856 α      lambda       -0.2289625E-02
   maximum displ.:     0.1539257 α      in ANC's #1, #5, #2, ...

........................................................................
.............................. CYCLE    8 ..............................
........................................................................
   1     -9.6619149 -0.966191E+01  0.629E-01    1.11       0.0  T
   2     -9.6605223  0.139267E-02  0.539E-01    1.07       1.0  T
   3     -9.6602736  0.248684E-03  0.573E-01    1.13       1.0  T
   4     -9.6621280 -0.185444E-02  0.151E-01    1.11       1.0  T
   5     -9.6622340 -0.105946E-03  0.516E-02    1.10       1.0  T
   6     -9.6622401 -0.612623E-05  0.384E-02    1.10       1.2  T
   7     -9.6622442 -0.409144E-05  0.877E-03    1.10       5.1  T
   8     -9.6622446 -0.442870E-06  0.261E-03    1.10      17.1  T
   9     -9.6622446 -0.273868E-09  0.967E-04    1.10      46.3  T
  10     -9.6622446 -0.418182E-08  0.180E-04    1.10     249.1  T
     SCC iter.                  ...        0 min,  0.001 sec
     gradient                   ...        0 min,  0.001 sec
 * total energy  :    -9.4836249 Eh     change       -0.9341934E-03 Eh
   gradient norm :     0.0093633 Eh/α   predicted    -0.1173131E-02 (  25.58%)
   displ. norm   :     0.0662993 α      lambda       -0.1932919E-03
   maximum displ.:     0.0649374 α      in ANC's #1, #6, #7, ...

........................................................................
.............................. CYCLE    9 ..............................
........................................................................
   1     -9.6618248 -0.966182E+01  0.254E-01    1.09       0.0  T
   2     -9.6616255  0.199291E-03  0.206E-01    1.10       1.0  T
   3     -9.6614923  0.133250E-03  0.247E-01    1.08       1.0  T
   4     -9.6618712 -0.378932E-03  0.226E-02    1.09       2.0  T
   5     -9.6618730 -0.186210E-05  0.119E-02    1.09       3.7  T
   6     -9.6618733 -0.232914E-06  0.669E-03    1.09       6.7  T
   7     -9.6618735 -0.188668E-06  0.564E-04    1.09      79.3  T
   8     -9.6618735 -0.408084E-09  0.131E-04    1.09     341.4  T
     SCC iter.                  ...        0 min,  0.001 sec
     gradient                   ...        0 min,  0.001 sec
 * total energy  :    -9.4837890 Eh     change       -0.1640363E-03 Eh
   gradient norm :     0.0097581 Eh/α   predicted    -0.9707079E-04 ( -40.82%)
   displ. norm   :     0.2500677 α      lambda       -0.6356389E-03
   maximum displ.:     0.2340060 α      in ANC's #1, #2, #6, ...

........................................................................
.............................. CYCLE   10 ..............................
........................................................................
   1     -9.6538847 -0.965388E+01  0.951E-01    1.07       0.0  T
   2     -9.6517156  0.216907E-02  0.721E-01    1.13       1.0  T
   3     -9.6448205  0.689510E-02  0.112E+00    1.03       1.0  T
   4     -9.6543348 -0.951430E-02  0.140E-01    1.09       1.0  T
   5     -9.6544391 -0.104282E-03  0.645E-02    1.09       1.0  T
   6     -9.6544491 -0.100090E-04  0.444E-02    1.09       1.0  T
   7     -9.6544484  0.730900E-06  0.213E-02    1.09       2.1  T
   8     -9.6544496 -0.124505E-05  0.165E-03    1.09      27.2  T
   9     -9.6544496 -0.380390E-08  0.387E-04    1.09     115.7  T
  10     -9.6544496 -0.746446E-09  0.103E-04    1.09     433.7  T
     SCC iter.                  ...        0 min,  0.001 sec
     gradient                   ...        0 min,  0.001 sec
 * total energy  :    -9.4839545 Eh     change       -0.1654974E-03 Eh
   gradient norm :     0.0308382 Eh/α   predicted    -0.3376957E-03 ( 104.05%)
   displ. norm   :     0.0688698 α      lambda       -0.4880304E-03
   maximum displ.:     0.0655930 α      in ANC's #1, #2, #6, ...

........................................................................
.............................. CYCLE   11 ..............................
........................................................................
   1     -9.6627573 -0.966276E+01  0.255E-01    1.11       0.0  T
   2     -9.6626326  0.124669E-03  0.185E-01    1.10       1.0  T
   3     -9.6622184  0.414276E-03  0.280E-01    1.13       1.0  T
   4     -9.6627594 -0.541049E-03  0.750E-02    1.11       1.0  T
   5     -9.6627879 -0.284448E-04  0.200E-02    1.11       2.2  T
   6     -9.6627891 -0.122892E-05  0.656E-03    1.11       6.8  T
   7     -9.6627893 -0.216732E-06  0.179E-03    1.11      25.0  T
   8     -9.6627893  0.159540E-08  0.105E-03    1.11      42.7  T
   9     -9.6627893 -0.307264E-08  0.120E-04    1.11     373.6  T
  10     -9.6627893 -0.223466E-10  0.181E-05    1.11    2475.8  T
     SCC iter.                  ...        0 min,  0.001 sec
     gradient                   ...        0 min,  0.001 sec
 * total energy  :    -9.4842015 Eh     change       -0.2470644E-03 Eh
   gradient norm :     0.0075729 Eh/α   predicted    -0.2451729E-03 (  -0.77%)
   displ. norm   :     0.0698059 α      lambda       -0.1650506E-03
   maximum displ.:     0.0568062 α      in ANC's #1, #6, #2, ...

........................................................................
.............................. CYCLE   12 ..............................
........................................................................
   1     -9.6647726 -0.966477E+01  0.278E-01    1.12       0.0  T
   2     -9.6646049  0.167755E-03  0.206E-01    1.13       1.0  T
   3     -9.6639878  0.617036E-03  0.325E-01    1.10       1.0  T
   4     -9.6648066 -0.818773E-03  0.235E-02    1.12       1.9  T
   5     -9.6648086 -0.203109E-05  0.137E-02    1.12       3.3  T
   6     -9.6648091 -0.466481E-06  0.696E-03    1.12       6.4  T
   7     -9.6648093 -0.185389E-06  0.310E-04    1.12     144.1  T
   8     -9.6648093  0.106779E-09  0.214E-04    1.12     208.6  T
     SCC iter.                  ...        0 min,  0.001 sec
     gradient                   ...        0 min,  0.001 sec
 * total energy  :    -9.4843411 Eh     change       -0.1395753E-03 Eh
   gradient norm :     0.0042542 Eh/α   predicted    -0.8292714E-04 ( -40.59%)
   displ. norm   :     0.2078864 α      lambda       -0.3555410E-03
   maximum displ.:     0.1653123 α      in ANC's #1, #2, #6, ...

........................................................................
.............................. CYCLE   13 ..............................
........................................................................
   1     -9.6621068 -0.966211E+01  0.830E-01    1.13       0.0  T
   2     -9.6608874  0.121940E-02  0.592E-01    1.17       1.0  T
   3     -9.6508194  0.100680E-01  0.114E+00    1.08       1.0  T
   4     -9.6623088 -0.114894E-01  0.105E-01    1.14       1.0  T
   5     -9.6623687 -0.599097E-04  0.504E-02    1.14       1.0  T
   6     -9.6623770 -0.832602E-05  0.286E-02    1.14       1.6  T
   7     -9.6623766  0.456028E-06  0.128E-02    1.14       3.5  T
   8     -9.6623771 -0.543606E-06  0.126E-03    1.14      35.6  T
   9     -9.6623771 -0.588425E-08  0.273E-04    1.14     164.1  T
  10     -9.6623771 -0.407720E-09  0.938E-05    1.14     476.8  T
     SCC iter.                  ...        0 min,  0.001 sec
     gradient                   ...        0 min,  0.001 sec
 * total energy  :    -9.4845018 Eh     change       -0.1607443E-03 Eh
   gradient norm :     0.0137537 Eh/α   predicted    -0.1854549E-03 (  15.37%)
   displ. norm   :     0.0292431 α      lambda       -0.1450537E-03
   maximum displ.:     0.0285600 α      in ANC's #1, #8, #6, ...

........................................................................
.............................. CYCLE   14 ..............................
........................................................................
   1     -9.6671929 -0.966719E+01  0.123E-01    1.15       0.0  T
   2     -9.6671795  0.134113E-04  0.850E-02    1.15       1.0  T
   3     -9.6669973  0.182200E-03  0.150E-01    1.16       1.0  T
   4     -9.6671934 -0.196114E-03  0.280E-02    1.15       1.6  T
   5     -9.6671968 -0.335975E-05  0.835E-03    1.15       5.4  T
   6     -9.6671967  0.146382E-07  0.444E-03    1.15      10.1  T
   7     -9.6671968 -0.662351E-07  0.762E-04    1.15      58.7  T
   8     -9.6671968 -0.194932E-08  0.195E-04    1.15     229.0  T
     SCC iter.                  ...        0 min,  0.001 sec
     gradient                   ...        0 min,  0.001 sec
 * total energy  :    -9.4845795 Eh     change       -0.7768090E-04 Eh
   gradient norm :     0.0042035 Eh/α   predicted    -0.7258889E-04 (  -6.56%)
   displ. norm   :     0.0609899 α      lambda       -0.6915253E-04
   maximum displ.:     0.0361400 α      in ANC's #1, #6, #2, ...

........................................................................
.............................. CYCLE   15 ..............................
........................................................................
   1     -9.6681722 -0.966817E+01  0.273E-01    1.16       0.0  T
   2     -9.6680628  0.109359E-03  0.194E-01    1.16       1.0  T
   3     -9.6670931  0.969724E-03  0.355E-01    1.14       1.0  T
   4     -9.6681897 -0.109659E-02  0.235E-02    1.16       1.9  T
   5     -9.6681916 -0.187830E-05  0.131E-02    1.16       3.4  T
   6     -9.6681925 -0.925178E-06  0.501E-03    1.16       8.9  T
   7     -9.6681925 -0.360847E-07  0.308E-04    1.16     145.4  T
   8     -9.6681925 -0.353266E-09  0.138E-04    1.16     324.7  T
     SCC iter.                  ...        0 min,  0.001 sec
     gradient                   ...        0 min,  0.001 sec
 * total energy  :    -9.4846336 Eh     change       -0.5406394E-04 Eh
   gradient norm :     0.0037969 Eh/α   predicted    -0.3470394E-04 ( -35.81%)
   displ. norm   :     0.1136248 α      lambda       -0.9253049E-04
   maximum displ.:     0.0602775 α      in ANC's #1, #2, #6, ...

........................................................................
.............................. CYCLE   16 ..............................
........................................................................
   1     -9.6668306 -0.966683E+01  0.531E-01    1.16       0.0  T
   2     -9.6666194  0.211152E-03  0.347E-01    1.18       1.0  T
   3     -9.6610204  0.559901E-02  0.777E-01    1.13       1.0  T
   4     -9.6668668 -0.584643E-02  0.278E-02    1.17       1.6  T
   5     -9.6668695 -0.268636E-05  0.149E-02    1.17       3.0  T
   6     -9.6668693  0.276521E-06  0.980E-03    1.17       4.6  T
   7     -9.6668698 -0.515226E-06  0.253E-03    1.17      17.6  T
   8     -9.6668698 -0.312890E-07  0.440E-04    1.17     101.5  T
   9     -9.6668698 -0.212790E-09  0.468E-05    1.17     955.8  T
     SCC iter.                  ...        0 min,  0.001 sec
     gradient                   ...        0 min,  0.001 sec
 * total energy  :    -9.4846780 Eh     change       -0.4437244E-04 Eh
   gradient norm :     0.0057197 Eh/α   predicted    -0.4686217E-04 (   5.61%)
   displ. norm   :     0.0229701 α      lambda       -0.5112487E-04
   maximum displ.:     0.0185295 α      in ANC's #1, #2, #9, ...

........................................................................
.............................. CYCLE   17 ..............................
........................................................................
   1     -9.6688358 -0.966884E+01  0.930E-02    1.17       0.0  T
   2     -9.6688356  0.208384E-06  0.586E-02    1.16       1.0  T
   3     -9.6688105  0.251354E-04  0.538E-02    1.17       1.0  T
   4     -9.6688299 -0.193959E-04  0.291E-02    1.16       1.5  T
   5     -9.6688367 -0.687655E-05  0.655E-03    1.17       6.8  T
   6     -9.6688369 -0.135554E-06  0.923E-04    1.17      48.5  T
   7     -9.6688369 -0.148864E-08  0.475E-04    1.17      94.2  T
     SCC iter.                  ...        0 min,  0.001 sec
     gradient                   ...        0 min,  0.001 sec
 * total energy  :    -9.4847123 Eh     change       -0.3432672E-04 Eh
   gradient norm :     0.0021049 Eh/α   predicted    -0.2557736E-04 ( -25.49%)
   displ. norm   :     0.0544336 α      lambda       -0.3654889E-04
   maximum displ.:     0.0355632 α      in ANC's #2, #6, #7, ...

........................................................................
.............................. CYCLE   18 ..............................
........................................................................
   1     -9.6691088 -0.966911E+01  0.276E-01    1.17       0.0  T
   2     -9.6691021  0.671715E-05  0.169E-01    1.17       1.0  T
   3     -9.6685381  0.563982E-03  0.240E-01    1.15       1.0  T
   4     -9.6691116 -0.573430E-03  0.111E-02    1.17       4.0  T
   5     -9.6691116 -0.481979E-07  0.187E-03    1.17      23.9  T
   6     -9.6691116  0.212630E-08  0.940E-04    1.17      47.6  T
   7     -9.6691116 -0.553594E-08  0.428E-04    1.17     104.6  T
     SCC iter.                  ...        0 min,  0.001 sec
     gradient                   ...        0 min,  0.001 sec
 * total energy  :    -9.4847384 Eh     change       -0.2608676E-04 Eh
   gradient norm :     0.0018480 Eh/α   predicted    -0.1832847E-04 ( -29.74%)
   displ. norm   :     0.0737409 α      lambda       -0.2239710E-04
   maximum displ.:     0.0504820 α      in ANC's #2, #6, #1, ...

........................................................................
.............................. CYCLE   19 ..............................
........................................................................
   1     -9.6682957 -0.966830E+01  0.355E-01    1.16       0.0  T
   2     -9.6682975 -0.180402E-05  0.216E-01    1.16       1.0  T
   3     -9.6682694  0.281599E-04  0.625E-02    1.16       1.0  T
   4     -9.6682876 -0.182542E-04  0.373E-02    1.16       1.2  T
   5     -9.6682989 -0.112354E-04  0.152E-02    1.16       2.9  T
   6     -9.6682997 -0.839422E-06  0.267E-03    1.16      16.8  T
   7     -9.6682997 -0.243747E-07  0.632E-04    1.16      70.7  T
   8     -9.6682997 -0.667345E-09  0.184E-04    1.16     243.0  T
     SCC iter.                  ...        0 min,  0.001 sec
     gradient                   ...        0 min,  0.001 sec
 * total energy  :    -9.4847536 Eh     change       -0.1518478E-04 Eh
   gradient norm :     0.0014571 Eh/α   predicted    -0.1122348E-04 ( -26.09%)
   displ. norm   :     0.0282156 α      lambda       -0.6438401E-05
   maximum displ.:     0.0224062 α      in ANC's #1, #6, #7, ...

........................................................................
.............................. CYCLE   20 ..............................
........................................................................
   1     -9.6696485 -0.966965E+01  0.115E-01    1.16       0.0  T
   2     -9.6696436  0.492546E-05  0.727E-02    1.16       1.0  T
   3     -9.6694600  0.183561E-03  0.142E-01    1.17       1.0  T
   4     -9.6696495 -0.189518E-03  0.886E-03    1.16       5.1  T
   5     -9.6696496 -0.892876E-07  0.543E-03    1.16       8.2  T
   6     -9.6696497 -0.517841E-07  0.265E-03    1.16      16.9  T
   7     -9.6696497 -0.349616E-07  0.538E-04    1.16      83.1  T
   8     -9.6696497 -0.326303E-09  0.148E-04    1.16     301.8  T
     SCC iter.                  ...        0 min,  0.001 sec
     gradient                   ...        0 min,  0.001 sec
 * total energy  :    -9.4847545 Eh     change       -0.8984820E-06 Eh
   gradient norm :     0.0021034 Eh/α   predicted    -0.3219874E-05 ( 258.37%)
   displ. norm   :     0.0081635 α      lambda       -0.3114963E-05
   maximum displ.:     0.0044703 α      in ANC's #1, #2, #6, ...
 * RMSD in coord.:     0.7811366 α      energy gain  -0.1279024E+00 Eh

generating ANC from model Hessian ...
Using Lindh-Hessian (1995)
 Shifting diagonal of input Hessian by    9.0059145098526916E-003
 Lowest  eigenvalues of input Hessian
   -0.000000   -0.000000   -0.000000   -0.000000   -0.000000    0.000000
    0.010000    0.010989    0.120796    0.252896    0.505065    0.552795
    1.385698    1.921874    2.532169
 Highest eigenvalues
    0.252896    0.505065    0.552795    1.385698    1.921874    2.532169


........................................................................
.............................. CYCLE   21 ..............................
........................................................................
   1     -9.6693207 -0.966932E+01  0.365E-02    1.16       0.0  T
   2     -9.6693204  0.295872E-06  0.229E-02    1.16       1.9  T
   3     -9.6693056  0.148441E-04  0.409E-02    1.16       1.1  T
   4     -9.6693208 -0.151760E-04  0.410E-03    1.16      10.9  T
   5     -9.6693208 -0.596233E-07  0.283E-03    1.16      15.8  T
   6     -9.6693209 -0.442532E-07  0.101E-03    1.16      44.4  T
   7     -9.6693209 -0.399606E-09  0.182E-04    1.16     245.5  T
   8     -9.6693209 -0.435776E-10  0.178E-05    1.16    2508.6  T
     SCC iter.                  ...        0 min,  0.001 sec
     gradient                   ...        0 min,  0.001 sec
 * total energy  :    -9.4847565 Eh     change       -0.2089216E-05 Eh
   gradient norm :     0.0007340 Eh/α   predicted     0.0000000E+00 (-100.00%)
   displ. norm   :     0.0112467 α      lambda       -0.1072103E-05
   maximum displ.:     0.0079312 α      in ANC's #1, #2, #4, ...

   *** GEOMETRY OPTIMIZATION CONVERGED AFTER 21 ITERATIONS ***

------------------------------------------------------------------------
 total energy gain   :        -0.1279045 Eh      -80.2613 kcal/mol
 total RMSD          :         0.7811366 a0        0.4134 Å
 total power (kW/mol):       -15.9911104 (step)-5463.4015 (real)
------------------------------------------------------------------------

 ANCopt (total)                0 d,  0 h,  0 min,  0.061 sec
 optimizer setup                ...        0 min,  0.000 sec (  0.101%)
 model hessian                  ...        0 min,  0.000 sec (  0.205%)
 ANC generation                 ...        0 min,  0.000 sec (  0.152%)
 coordinate transformation      ...        0 min,  0.000 sec (  0.076%)
 single point calculation       ...        0 min,  0.059 sec ( 96.753%)
 optimization log               ...        0 min,  0.001 sec (  0.877%)
 hessian update                 ...        0 min,  0.000 sec (  0.072%)
 rational function              ...        0 min,  0.000 sec (  0.768%)

================
 final structure:
================
5
 xtb: 6.2.2 (9d81278992624c895f80dd42a50cac0aa55982e2)
C        -1.16249628127724    1.19534794655752    0.36440821788903
N        -0.52734780529906    0.13807374921096    0.03459703143203
C         0.82262770452921   -0.07788183208168   -0.00790584767115
C         1.92292033004817   -0.54973855714016   -0.13998840096176
H        -1.05570394800107   -0.70580130654664   -0.25111100068815

 Bond Distances (Angstroems)
 ---------------------------
C1-N2=1.2767         N2-C1=1.2767         N2-C3=1.3678         N2-H5=1.0358         C3-N2=1.3678         C3-C4=1.2045         
C4-C3=1.2045         H5-N2=1.0358         
 C  C  Rav=1.2045 sigma=0.0000  Rmin=1.2045  Rmax=1.2045     1
 N  H  Rav=1.0358 sigma=0.0000  Rmin=1.0358  Rmax=1.0358     1
 N  C  Rav=1.3223 sigma=0.0455  Rmin=1.2767  Rmax=1.3678     2

 selected bond angles (degree)
 --------------------
C3-N2-C1=129.03                H5-N2-C1=119.48                H5-N2-C3=111.48                C4-C3-N2=165.21                

 selected dihedral angles (degree)
 ---------------------------------
C4-C3-N2-C1=180.27            C4-C3-N2-H5=  0.19            
           -------------------------------------------------
          |                Final Singlepoint                |
           -------------------------------------------------

          ...................................................
          :                      SETUP                      :
          :.................................................:
          :  # basis functions                  17          :
          :  # atomic orbitals                  17          :
          :  # shells                            9          :
          :  # electrons                        18          :
          :  max. iterations                   250          :
          :  Hamiltonian                  GFN2-xTB          :
          :  restarted?                      false          :
          :  GBSA solvation                  false          :
          :  PC potential                    false          :
          :  electronic temp.          300.0000000     K    :
          :  accuracy                    1.0000000          :
          :  -> integral cutoff          0.2500000E+02      :
          :  -> integral neglect         0.1000000E-07      :
          :  -> SCF convergence          0.1000000E-05 Eh   :
          :  -> wf. convergence          0.1000000E-03 e    :
          :  Broyden damping             0.4000000          :
          ...................................................

 iter      E             dE          RMSdq      gap      omega  full diag
   1     -9.6693209 -0.966932E+01  0.584E-06    1.16       0.0  T
   2     -9.6693209  0.190070E-12  0.499E-06    1.16    8958.9  T
   3     -9.6693209  0.147438E-12  0.712E-06    1.16    6280.9  T

   *** convergence criteria satisfied after 3 iterations ***

         #    Occupation            Energy/Eh            Energy/eV
      -------------------------------------------------------------
         1        2.0000           -0.6918475             -18.8261
       ...           ...                  ...                  ...
         4        2.0000           -0.6030607             -16.4101
         5        2.0000           -0.5426929             -14.7674
         6        2.0000           -0.4605921             -12.5334
         7        2.0000           -0.4408424             -11.9959
         8        2.0000           -0.4353201             -11.8457
         9        1.0000           -0.4129265             -11.2363
        10        1.0000           -0.3217516              -8.7553 (HOMO)
        11                         -0.2789924              -7.5918 (LUMO)
        12                         -0.1956802              -5.3247
        13                         -0.1511976              -4.1143
        14                          0.0225930               0.6148
        15                          0.1631373               4.4392
       ...                                ...                  ...
        17                          1.1583236              31.5196
      -------------------------------------------------------------
                  HL-Gap            0.0427592 Eh            1.1635 eV
             Fermi-level           -0.3622470 Eh           -9.8572 eV

 transition dipole moment (au) for excitation:           9          10
     X       Y       Z   
   0.7358  -0.4544  -0.1329  total (au/Debye):    0.875   2.224
 dE (eV)             :    2.481
 oscillator strength :  0.65804E-01

 SCC (total)                   0 d,  0 h,  0 min,  0.003 sec
 SCC setup                      ...        0 min,  0.000 sec (  2.204%)
 Dispersion                     ...        0 min,  0.000 sec (  0.299%)
 integral evaluation            ...        0 min,  0.001 sec ( 29.928%)
 zeroth order Hamiltonian       ...        0 min,  0.000 sec (  0.365%)
 iterations                     ...        0 min,  0.000 sec ( 13.924%)
 molecular gradient             ...        0 min,  0.001 sec ( 30.081%)
 printout                       ...        0 min,  0.001 sec ( 22.893%)

         :::::::::::::::::::::::::::::::::::::::::::::::::::::
         ::                     SUMMARY                     ::
         :::::::::::::::::::::::::::::::::::::::::::::::::::::
         :: total energy              -9.484756540571 Eh    ::
         :: gradient norm              0.000734155354 Eh/a0 ::
         :: HOMO-LUMO gap              1.163538201673 eV    ::
         ::.................................................::
         :: SCC energy                -9.669320866129 Eh    ::
         :: -> isotropic ES           -0.006472668465 Eh    ::
         :: -> anisotropic ES          0.001070397990 Eh    ::
         :: -> anisotropic XC          0.006997861012 Eh    ::
         :: -> dispersion             -0.002217201654 Eh    ::
         :: repulsion energy           0.184564306003 Eh    ::
         :: add. restraining           0.000000000000 Eh    ::
         :::::::::::::::::::::::::::::::::::::::::::::::::::::

           ------------------------------------------------- 
          |                Numerical Hessian                |
           ------------------------------------------------- 
step length          :   0.00500
SCC accuracy         :   0.30000
Hessian scale factor :   1.00000
frozen atoms in %    :   0.00000    0
RMS gradient         :   0.00073
estimated CPU  time      0.00 min
estimated wall time      0.00 min

writing file <hessian>.

 projected vibrational frequencies (cm-1)
eigval :       -0.00    -0.00     0.00     0.00     0.00     0.00
eigval :       91.76   186.79   502.85   606.29   960.87  1231.86
eigval :     1457.26  2165.10  2959.17
           -------------------------------------------------
          |                Property Printout                |
           -------------------------------------------------

    * Orbital Energies and Occupations

         #    Occupation            Energy/Eh            Energy/eV
      -------------------------------------------------------------
         1        2.0000           -0.6918474             -18.8261
         2        2.0000           -0.6585354             -17.9197
         3        2.0000           -0.6216779             -16.9167
         4        2.0000           -0.6030606             -16.4101
         5        2.0000           -0.5426928             -14.7674
         6        2.0000           -0.4605921             -12.5333
         7        2.0000           -0.4408425             -11.9959
         8        2.0000           -0.4353202             -11.8457
         9        1.0000           -0.4129266             -11.2363
        10        1.0000           -0.3217514              -8.7553 (HOMO)
        11                         -0.2789922              -7.5918 (LUMO)
        12                         -0.1956803              -5.3247
        13                         -0.1511977              -4.1143
        14                          0.0225931               0.6148
        15                          0.1631373               4.4392
        16                          0.4836878              13.1618
        17                          1.1583235              31.5196
      -------------------------------------------------------------
                  HL-Gap            0.0427592 Eh            1.1635 eV
             Fermi-level           -0.3622469 Eh           -9.8572 eV

     #   Z        covCN         q      C6AA      α(0)
     1   6 C      0.930    -0.176    41.348    10.772
     2   7 N      2.679     0.062    20.161     6.669
     3   6 C      1.910     0.025    30.462     8.913
     4   6 C      0.981    -0.098    39.023    10.493
     5   1 H      0.858     0.186     1.179     1.701

 Mol. C6AA /au·bohr⁶  :        563.802324
 Mol. C8AA /au·bohr⁸  :      15028.204472
 Mol. α(0) /au        :         38.548011


Wiberg/Mayer (AO) data.
largest (>0.10) Wiberg bond orders for each atom
          total WBO             WBO to atom ...
     1  C   1.901        N    2 1.671    C    4 0.189
     2  N   3.628        C    1 1.671    C    3 1.045    H    5 0.869
     3  C   3.823        C    4 2.738    N    2 1.045
     4  C   2.996        C    3 2.738    C    1 0.189
     5  H   0.904        N    2 0.869

MOs/occ written to file <molden.input>


molecular dipole:
                 x           y           z       tot (Debye)
 q only:       -0.364      -0.531      -0.180
   full:       -0.293      -0.809      -0.269       2.292
molecular quadrupole (traceless):
                xx          xy          yy          xz          yz          zz
 q only:       -0.919       2.573      -0.004       0.797      -0.272       0.923
  q+dip:        0.410       4.059      -1.086       1.310      -0.537       0.676
   full:       -0.939       5.266      -1.111       1.646      -1.015       2.050

           -------------------------------------------------
          |                Geometry Summary                 |
           -------------------------------------------------

      molecular mass/u    :       51.0468517
   center of mass at/Å    :        0.2069310       0.1575284       0.0554770
  moments of inertia/u·Å² :        0.5362937E+01   0.8836105E+02   0.9372397E+02
rotational constants/cm⁻¹ :        0.3143358E+01   0.1907813E+00   0.1798647E+00
Molecule has the following symmetry elements: (sigma) 
It seems to be the Cs point group

 * 4 selected distances

     #   Z        #   Z                                     value/Å
     1   6 C      2   7 N                                 1.2767215
     2   7 N      3   6 C                                 1.3678001 (max)
     3   6 C      4   6 C                                 1.2044660
     2   7 N      5   1 H                                 1.0358158 (min)

 * 3 distinct bonds (by element types)

   Z      Z             #   av. dist./Å        max./Å        min./Å
   6 C    6 C           1     1.2044660     1.2044660     1.2044660
   1 H    7 N           1     1.0358158     1.0358158     1.0358158
   6 C    7 N           2     1.3222608     1.3678001     1.2767215

           -------------------------------------------------
          |               Frequency Printout                |
           -------------------------------------------------
 projected vibrational frequencies (cm-1)
eigval :       -0.00    -0.00     0.00     0.00     0.00     0.00
eigval :       91.76   186.79   502.85   606.29   960.87  1231.86
eigval :     1457.26  2165.10  2959.17
 reduced masses (amu)
   1: 12.16   2: 12.14   3: 12.17   4: 12.33   5: 12.08   6:  8.80   7: 11.88   8: 11.84
   9: 12.29  10:  6.06  11: 12.42  12:  2.33  13: 12.90  14: 12.01  15:  1.73
 IR intensities (amu)
   1:  0.07   2:  0.18   3:  0.08   4:  0.04   5:  0.04   6:  0.14   7:  0.34   8:  0.29
   9:  0.41  10:  0.38  11:  0.23  12:  0.24  13:  1.23  14:  1.33  15:  0.07
 Raman intensities (amu)
   1:  0.00   2:  0.00   3:  0.00   4:  0.00   5:  0.00   6:  0.00   7:  0.00   8:  0.00
   9:  0.00  10:  0.00  11:  0.00  12:  0.00  13:  0.00  14:  0.00  15:  0.00
 output can be read by thermo (or use thermo option).
 writing <g98.out> molden fake output.
 recommended (thermochemical) frequency scaling factor: 1.0
           -------------------------------------------------
          |             Thermodynamic Functions             |
           -------------------------------------------------

cs  symmetry found (for desy threshold:  0.10E+00) used in thermo

          ...................................................
          :                      SETUP                      :
          :.................................................:
          :  # frequencies                           9      :
          :  # imaginary freq.                       0      :
          :  linear?                             false      :
          :  only rotor calc.                    false      :
          :  symmetry                               cs      :
          :  rotational number                       1      :
          :  scaling factor                  1.0000000      :
          :  rotor cutoff                   50.0000000 cm⁻¹ :
          :  imag. cutoff                  -20.0000000 cm⁻¹ :
          :.................................................:

    mode    ω/cm⁻¹     T·S(HO)/kcal·mol⁻¹    T·S(FR)/kcal·mol⁻¹   T·S(vib)
   ------------------------------------------------------------------------
       1     91.76    -0.00000 ( 91.90%)     0.00436 (  8.10%)     0.00035
       2    186.79    -0.00000 ( 99.49%)     0.01141 (  0.51%)     0.00006
   ------------------------------------------------------------------------

   temp. (K)  partition function   enthalpy   heat capacity  entropy
                                   cal/mol     cal/K/mol   cal/K/mol   J/K/mol
 298.15  VIB   5.53                 1113.566      6.776      7.077
         ROT  0.161E+05              888.752      2.981     22.231
         INT  0.890E+05             2002.318      9.757     29.307
         TR   0.353E+27             1481.254      4.968     37.697
         TOT                        3483.5720    14.7249    67.0040   280.3448

   temp. (K)  partition function   enthalpy   heat capacity  entropy
                                   cal/mol     cal/K/mol   cal/K/mol   J/K/mol
 120.00  VIB   1.68                  199.247      3.379      2.709
         ROT  0.411E+04              357.707      2.981     19.518
         INT  0.692E+04              556.954      6.360     22.226
         TR   0.901E+26              596.178      4.968     33.177
         TOT                        1153.1321    11.3280    55.4036   231.8088

   temp. (K)  partition function   enthalpy   heat capacity  entropy
                                   cal/mol     cal/K/mol   cal/K/mol   J/K/mol
 100.00  VIB   1.47                  135.931      2.947      2.144
         ROT  0.313E+04              298.089      2.981     18.974
         INT  0.458E+04              434.020      5.928     21.118
         TR   0.685E+26              496.815      4.968     32.272
         TOT                         930.8350    10.8960    53.3903   223.3852

   temp. (K)  partition function   enthalpy   heat capacity  entropy
                                   cal/mol     cal/K/mol   cal/K/mol   J/K/mol
  80.00  VIB   1.28                   81.780      2.452      1.554
         ROT  0.224E+04              238.471      2.981     18.309
         INT  0.287E+04              320.251      5.433     19.863
         TR   0.490E+26              397.452      4.968     31.164
         TOT                         717.7033    10.4009    51.0270   213.4970

   temp. (K)  partition function   enthalpy   heat capacity  entropy
                                   cal/mol     cal/K/mol   cal/K/mol   J/K/mol
  60.00  VIB   1.14                   38.819      1.812      0.951
         ROT  0.145E+04              178.853      2.981     17.451
         INT  0.165E+04              217.673      4.793     18.403
         TR   0.319E+26              298.089      4.968     29.735
         TOT                         515.7617     9.7614    48.1381   201.4097

   temp. (K)  partition function   enthalpy   heat capacity  entropy
                                   cal/mol     cal/K/mol   cal/K/mol   J/K/mol
  40.00  VIB   1.04                   10.689      0.969      0.395
         ROT   791.                  119.236      2.981     16.243
         INT   822.                  129.925      3.950     16.638
         TR   0.173E+26              198.726      4.968     27.722
         TOT                         328.6505     8.9180    44.3597   185.6011

   temp. (K)  partition function   enthalpy   heat capacity  entropy
                                   cal/mol     cal/K/mol   cal/K/mol   J/K/mol
  20.00  VIB   1.00                    0.358      0.119      0.037
         ROT   280.                   59.618      2.981     14.177
         INT   280.                   59.976      3.099     14.213
         TR   0.613E+25               99.363      4.968     24.280
         TOT                         159.3387     8.0676    38.4933   161.0558

   temp. (K)  partition function   enthalpy   heat capacity  entropy
                                   cal/mol     cal/K/mol   cal/K/mol   J/K/mol
  10.00  VIB   1.00                    0.000      0.001     -0.041
         ROT   98.9                   29.809      2.981     12.110
         INT   98.9                   29.809      2.982     12.069
         TR   0.217E+25               49.681      4.968     20.838
         TOT                          79.4909     7.9497    32.9068   137.6819

       T/K    H(0)-H(T)+PV         H(T)/Eh          T*S/Eh         G(T)/Eh
   ------------------------------------------------------------------------
    298.15    0.555143E-02    0.287020E-01    0.318358E-01   -0.313376E-02
    120.00    0.183763E-02    0.249882E-01    0.105950E-01    0.143933E-01
    100.00    0.148338E-02    0.246340E-01    0.850829E-02    0.161257E-01
     80.00    0.114373E-02    0.242943E-01    0.650534E-02    0.177890E-01
     60.00    0.821919E-03    0.239725E-01    0.460277E-02    0.193697E-01
     40.00    0.523738E-03    0.236743E-01    0.282767E-02    0.208467E-01
     20.00    0.253922E-03    0.234045E-01    0.122686E-02    0.221776E-01
     10.00    0.126677E-03    0.232773E-01    0.524403E-03    0.227529E-01 (used)
   ------------------------------------------------------------------------

         :::::::::::::::::::::::::::::::::::::::::::::::::::::
         ::                  THERMODYNAMIC                  ::
         :::::::::::::::::::::::::::::::::::::::::::::::::::::
         :: total free energy          -9.462003684191 Eh   ::
         ::.................................................::
         :: total energy               -9.484756540632 Eh   ::
         :: zero point energy           0.023150582275 Eh   ::
         :: G(RRHO) w/o ZPVE           -0.000397725833 Eh   ::
         :: G(RRHO) contrib.            0.022752856442 Eh   ::
         :::::::::::::::::::::::::::::::::::::::::::::::::::::

optimized geometry written to: xtbopt.xyz


           -------------------------------------------------
          | TOTAL ENERGY               -9.484756540632 Eh   |
          | TOTAL ENTHALPY             -9.461479281569 Eh   |
          | TOTAL FREE ENERGY          -9.462003684191 Eh   |
          | GRADIENT NORM               0.000734379229 Eh/α |
          | HOMO-LUMO GAP               1.163536391929 eV   |
           -------------------------------------------------

------------------------------------------------------------------------
 * finished run on 2020/05/12 at 11:44:54.392     
------------------------------------------------------------------------
 total:
 * wall-time:     0 d,  0 h,  0 min,  0.166 sec
 *  cpu-time:     0 d,  0 h,  0 min,  0.166 sec
 * ratio c/w:     0.999 speedup
 SCF:
 * wall-time:     0 d,  0 h,  0 min,  0.005 sec
 *  cpu-time:     0 d,  0 h,  0 min,  0.005 sec
 * ratio c/w:     1.000 speedup
 ANC optimizer:
 * wall-time:     0 d,  0 h,  0 min,  0.065 sec
 *  cpu-time:     0 d,  0 h,  0 min,  0.065 sec
 * ratio c/w:     0.999 speedup
 numerical hessian:
 * wall-time:     0 d,  0 h,  0 min,  0.078 sec
 *  cpu-time:     0 d,  0 h,  0 min,  0.078 sec
 * ratio c/w:     0.998 speedup

