      -----------------------------------------------------------      
     |                   =====================                   |     
     |                           x T B                           |     
     |                   =====================                   |     
     |                         S. Grimme                         |     
     |          Mulliken Center for Theoretical Chemistry        |     
     |                    University of Bonn                     |     
      -----------------------------------------------------------      

   * xtb version 6.2.2 (9d81278992624c895f80dd42a50cac0aa55982e2) compiled by '@Darwin' on 04/03/2020

   xtb is free software: you can redistribute it and/or modify it under
   the terms of the GNU Lesser General Public License as published by
   the Free Software Foundation, either version 3 of the License, or
   (at your option) any later version.
   
   xtb is distributed in the hope that it will be useful,
   but WITHOUT ANY WARRANTY; without even the implied warranty of
   MERCHANTABILITY or FITNESS FOR A PARTICULAR PURPOSE.  See the
   GNU Lesser General Public License for more details.
   
   Cite this work as:
   * S. Grimme, C. Bannwarth, P. Shushkov, J. Chem. Theory Comput., 2017,
     13, 1989-2009. DOI: 10.1021/acs.jctc.7b00118
   * C. Bannwarth, S. Ehlert and S. Grimme., J. Chem. Theory Comput., 2019,
     15, 1652-1671. DOI: 10.1021/acs.jctc.8b01176
   * P. Pracht, E. Caldeweyher, S. Ehlert, S. Grimme, ChemRxiv, 2019, preprint.
     DOI: 10.26434/chemrxiv.8326202.v1
   
   for DFT-D4:
   * E. Caldeweyher, C. Bannwarth and S. Grimme, J. Chem. Phys., 2017,
     147, 034112. DOI: 10.1063/1.4993215
   * E. Caldeweyher, S. Ehlert, A. Hansen, H. Neugebauer, S. Spicher,
     C. Bannwarth and S. Grimme, J. Chem. Phys., 2019, 150, 154122.
     DOI: 10.1063/1.5090222
   
   for sTDA-xTB:
   * S. Grimme and C. Bannwarth, J. Chem. Phys., 2016, 145, 054103.
     DOI: 10.1063/1.4959605
   
   in the mass-spec context:
   * V. Asgeirsson, C. Bauer and S. Grimme, Chem. Sci., 2017, 8, 4879.
     DOI: 10.1039/c7sc00601b
   
   for metadynamics refer to:
   * S. Grimme, J. Chem. Theory Comput., 2019, 155, 2847-2862
     DOI: 10.1021/acs.jctc.9b00143
   
   with help from (in alphabetical order)
   C. Bannwarth, F. Bohle, G. Brandenburg, E. Caldeweyher, M. Checinski,
   S. Dohm, S. Ehlert, S. Ehrlich, F. März, H. Neugebauer, J. Pisarek,
   P. Pracht, P. Shushkov, and S. Spicher.
   
 * started run on 2020/05/12 at 11:44:15.295     

           -------------------------------------------------
          |                Calculation Setup                |
           -------------------------------------------------

          program call               : xtb --input C4N1_38_S_3.input C4N1_38_S_3.xyz --ohess --molden --namespace C4N1_38_S_3 output.out
          calculation namespace      : C4N1_38_S_3
          coordinate file            : C4N1_38_S_3.xyz
          number of atoms            :                     5
          number of electrons        :                    21
          charge                     :                     0
          spin                       :                   1.5
          first test random number   :      0.62954066480665

   ID    Z sym.   atoms
    1    6 C      1, 3-5
    2    7 N      2

           -------------------------------------------------
          |                 G F N 2 - x T B                 |
           -------------------------------------------------

        Reference                      10.1021/acs.jctc.8b01176
      * Hamiltonian:
        H0-scaling (s, p, d)           1.850000    2.230000    2.230000
        zeta-weighting                 0.500000
      * Dispersion:
        s8                             2.700000
        a1                             0.520000
        a2                             5.000000
        s9                             5.000000
      * Repulsion:
        kExp                           1.500000    1.000000
        rExp                           1.000000
      * Coulomb:
        alpha                          2.000000
        third order                    shell-resolved
        anisotropic                    true
        a3                             3.000000
        a5                             4.000000
        cn-shift                       1.200000
        cn-exp                         4.000000
        max-rad                        5.000000


          ...................................................
          :                      SETUP                      :
          :.................................................:
          :  # basis functions                  20          :
          :  # atomic orbitals                  20          :
          :  # shells                           10          :
          :  # electrons                        21          :
          :  max. iterations                   250          :
          :  Hamiltonian                  GFN2-xTB          :
          :  restarted?                      false          :
          :  GBSA solvation                  false          :
          :  PC potential                    false          :
          :  electronic temp.          300.0000000     K    :
          :  accuracy                    1.0000000          :
          :  -> integral cutoff          0.2500000E+02      :
          :  -> integral neglect         0.1000000E-07      :
          :  -> SCF convergence          0.1000000E-05 Eh   :
          :  -> wf. convergence          0.1000000E-03 e    :
          :  Broyden damping             0.4000000          :
          ...................................................

 iter      E             dE          RMSdq      gap      omega  full diag
   1    -10.9502930 -0.109503E+02  0.729E+00    0.00       0.0  T
   2    -10.9619723 -0.116794E-01  0.501E+00    0.00       1.0  T
   3    -10.9542512  0.772109E-02  0.297E+00    0.00       1.0  T
   4    -10.9839474 -0.296961E-01  0.728E-01    0.00       1.0  T
   5    -10.9862954 -0.234801E-02  0.280E-01    0.00       1.0  T
   6    -10.9854520  0.843417E-03  0.377E-01    0.01       1.0  T
   7    -10.9861935 -0.741483E-03  0.181E-01    0.00       1.0  T
   8    -10.9863491 -0.155661E-03  0.308E-02    0.00       1.5  T
   9    -10.9863457  0.346005E-05  0.316E-02    0.00       1.4  T
  10    -10.9863509 -0.528121E-05  0.134E-02    0.00       3.3  T
  11    -10.9863516 -0.647972E-06  0.250E-03    0.00      17.9  T
  12    -10.9863516 -0.244274E-07  0.123E-03    0.00      36.3  T
  13    -10.9863516 -0.290085E-08  0.923E-04    0.00      48.4  T
  14    -10.9863516 -0.118657E-08  0.653E-04    0.00      68.5  T

   *** convergence criteria satisfied after 14 iterations ***

         #    Occupation            Energy/Eh            Energy/eV
      -------------------------------------------------------------
         1        2.0000           -0.7817422             -21.2723
       ...           ...                  ...                  ...
         6        2.0000           -0.5520016             -15.0207
         7        2.0000           -0.5171845             -14.0733
         8        2.0000           -0.4980461             -13.5525
         9        1.5001           -0.4843054             -13.1786
        10        1.4999           -0.4843050             -13.1786
        11        1.0000           -0.3909385             -10.6380
        12        0.5001           -0.3568217              -9.7096 (HOMO)
        13        0.4999           -0.3568208              -9.7096 (LUMO)
        14                         -0.3205561              -8.7228
        15                         -0.0576711              -1.5693
        16                         -0.0576693              -1.5693
        17                         -0.0370642              -1.0086
       ...                                ...                  ...
        20                          0.3196334               8.6977
      -------------------------------------------------------------
                  HL-Gap            0.0000009 Eh            0.0000 eV
             Fermi-level           -0.4205632 Eh          -11.4441 eV

 SCC (total)                   0 d,  0 h,  0 min,  0.004 sec
 SCC setup                      ...        0 min,  0.000 sec (  1.537%)
 Dispersion                     ...        0 min,  0.000 sec (  0.372%)
 integral evaluation            ...        0 min,  0.001 sec ( 28.110%)
 zeroth order Hamiltonian       ...        0 min,  0.000 sec (  0.416%)
 iterations                     ...        0 min,  0.002 sec ( 35.867%)
 molecular gradient             ...        0 min,  0.001 sec ( 32.322%)
 printout                       ...        0 min,  0.000 sec (  1.137%)

         :::::::::::::::::::::::::::::::::::::::::::::::::::::
         ::                     SUMMARY                     ::
         :::::::::::::::::::::::::::::::::::::::::::::::::::::
         :: total energy             -10.904376962857 Eh    ::
         :: gradient norm              0.070285454120 Eh/a0 ::
         :: HOMO-LUMO gap              0.000023155354 eV    ::
         ::.................................................::
         :: SCC energy               -10.986351623525 Eh    ::
         :: -> isotropic ES           -0.010914842372 Eh    ::
         :: -> anisotropic ES          0.004850196255 Eh    ::
         :: -> anisotropic XC          0.004990562493 Eh    ::
         :: -> dispersion             -0.002680395469 Eh    ::
         :: repulsion energy           0.081974634121 Eh    ::
         :: add. restraining           0.000000000000 Eh    ::
         :::::::::::::::::::::::::::::::::::::::::::::::::::::

      ----------------------------------------------------------- 
     |                   =====================                   |
     |                        A N C O P T                        |
     |                   =====================                   |
     |               Approximate Normal Coordinate               |
     |                Rational Function Optimizer                |
      ----------------------------------------------------------- 

          ...................................................
          :                      SETUP                      :
          :.................................................:
          :   optimization level            normal          :
          :   max. optcycles                   200          :
          :   ANC micro-cycles                  20          :
          :   degrees of freedom                 9          :
          :.................................................:
          :   RF solver                   davidson          :
          :   write xtbopt.log                true          :
          :   linear?                        false          :
          :   energy convergence         0.5000000E-05 Eh   :
          :   grad. convergence          0.1000000E-02 Eh/α :
          :   maximium RF displ.         1.0000000          :
          :   Hlow (freq-cutoff)         0.1000000E-01      :
          :   Hmax (freq-cutoff)         5.0000000          :
          :   S6 in model hess.         20.0000000          :
          ...................................................

generating ANC from model Hessian ...
Using Lindh-Hessian (1995)
 Shifting diagonal of input Hessian by    0.0000000000000000     
 Lowest  eigenvalues of input Hessian
   -0.000000   -0.000000    0.000000    0.000000    0.000000    0.000000
    0.203680    0.203681    0.484005    0.806586    0.806586    1.072579
    1.072579    1.089027    1.340223
 Highest eigenvalues
    0.806586    0.806586    1.072579    1.072579    1.089027    1.340223


........................................................................
.............................. CYCLE    1 ..............................
........................................................................
   1    -10.9863516 -0.109864E+02  0.900E-05    0.00       0.0  T
   2    -10.9863516  0.524674E-09  0.297E-04    0.00     150.7  T
   3    -10.9863516 -0.523531E-09  0.873E-05    0.00     512.4  T
     SCC iter.                  ...        0 min,  0.000 sec
     gradient                   ...        0 min,  0.001 sec
 * total energy  :   -10.9043770 Eh     change       -0.2328914E-08 Eh
   gradient norm :     0.0702854 Eh/α   predicted     0.0000000E+00 (-100.00%)
   displ. norm   :     0.1400451 α      lambda       -0.9770197E-02
   maximum displ.:     0.1396840 α      in ANC's #3, #9, #8, ...

........................................................................
.............................. CYCLE    2 ..............................
........................................................................
   1    -10.9961994 -0.109962E+02  0.671E-01    0.00       0.0  T
   2    -10.9962361 -0.367079E-04  0.414E-01    0.00       1.0  T
   3    -10.9959153  0.320856E-03  0.322E-01    0.00       1.0  T
   4    -10.9964596 -0.544302E-03  0.701E-02    0.00       1.0  T
   5    -10.9963140  0.145567E-03  0.163E-01    0.00       1.0  T
   6    -10.9964833 -0.169236E-03  0.219E-02    0.00       2.0  T
   7    -10.9964838 -0.520083E-06  0.426E-03    0.00      10.5  T
   8    -10.9964834  0.420560E-06  0.843E-03    0.00       5.3  T
   9    -10.9964838 -0.473312E-06  0.188E-03    0.00      23.7  T
  10    -10.9964838 -0.148351E-07  0.102E-04    0.00     439.9  T
  11    -10.9964838  0.656133E-10  0.134E-04    0.00     334.3  T
     SCC iter.                  ...        0 min,  0.001 sec
     gradient                   ...        0 min,  0.001 sec
 * total energy  :   -10.9115479 Eh     change       -0.7170889E-02 Eh
   gradient norm :     0.0345791 Eh/α   predicted    -0.4980908E-02 ( -30.54%)
   displ. norm   :     0.1218604 α      lambda       -0.4075455E-02
   maximum displ.:     0.1202562 α      in ANC's #3, #9, #8, ...

........................................................................
.............................. CYCLE    3 ..............................
........................................................................
   1    -11.0031669 -0.110032E+02  0.611E-01    0.01       0.0  T
   2    -11.0031753 -0.847632E-05  0.370E-01    0.00       1.0  T
   3    -11.0017054  0.146998E-02  0.515E-01    0.01       1.0  T
   4    -11.0004996  0.120572E-02  0.652E-01    0.01       1.0  T
   5    -11.0033577 -0.285802E-02  0.447E-02    0.00       1.0  T
   6    -11.0033548  0.282114E-05  0.392E-02    0.00       1.1  T
   7    -11.0033278  0.270356E-04  0.703E-02    0.00       1.0  T
   8    -11.0033609 -0.330737E-04  0.120E-02    0.00       3.7  T
   9    -11.0033612 -0.316570E-06  0.857E-03    0.00       5.2  T
  10    -11.0033616 -0.361117E-06  0.117E-03    0.00      38.3  T
  11    -11.0033616 -0.522630E-08  0.365E-04    0.00     122.6  T
  12    -11.0033616 -0.214131E-09  0.300E-04    0.00     149.1  T
     SCC iter.                  ...        0 min,  0.001 sec
     gradient                   ...        0 min,  0.002 sec
 * total energy  :   -10.9137198 Eh     change       -0.2171918E-02 Eh
   gradient norm :     0.0055577 Eh/α   predicted    -0.2067989E-02 (  -4.79%)
   displ. norm   :     0.0241168 α      lambda       -0.1186572E-03
   maximum displ.:     0.0188877 α      in ANC's #1, #3, #9, ...

........................................................................
.............................. CYCLE    4 ..............................
........................................................................
   1    -11.0048813 -0.110049E+02  0.135E+00    0.10       0.0  T
   2    -11.0033757  0.150565E-02  0.826E-01    0.08       1.0  T
   3    -10.9517357  0.516400E-01  0.260E+00    0.16       1.0  T
   4    -11.0049489 -0.532131E-01  0.135E-01    0.08       1.0  T
   5    -11.0045552  0.393655E-03  0.259E-01    0.08       1.0  T
   6    -11.0049708 -0.415613E-03  0.895E-02    0.08       1.0  T
   7    -11.0049828 -0.119652E-04  0.735E-02    0.08       1.0  T
   8    -11.0050104 -0.276105E-04  0.283E-02    0.08       1.6  T
   9    -11.0050122 -0.176518E-05  0.207E-02    0.08       2.2  T
  10    -11.0050135 -0.131645E-05  0.603E-03    0.08       7.4  T
  11    -11.0050136 -0.811003E-07  0.248E-03    0.08      18.0  T
  12    -11.0050136  0.114061E-07  0.245E-03    0.08      18.3  T
  13    -11.0050136 -0.175458E-07  0.963E-04    0.08      46.4  T
  14    -11.0050136 -0.370900E-09  0.662E-04    0.08      67.5  T
     SCC iter.                  ...        0 min,  0.001 sec
     gradient                   ...        0 min,  0.002 sec
 * total energy  :   -10.9144327 Eh     change       -0.7129015E-03 Eh
   gradient norm :     0.0667281 Eh/α   predicted    -0.5936220E-04 ( -91.67%)
   displ. norm   :     0.2980446 α      lambda       -0.1964426E-01
   maximum displ.:     0.2959967 α      in ANC's #1, #3, #6, ...

........................................................................
.............................. CYCLE    5 ..............................
........................................................................
   1    -11.0012864 -0.110013E+02  0.298E+00    1.68       0.0  T
   2    -10.7062438  0.295043E+00  0.639E+00    1.75       1.0  T
   3    -11.0235690 -0.317325E+00  0.160E+00    1.66       1.0  T
   4    -11.0337252 -0.101562E-01  0.392E-01    1.65       1.0  T
   5    -11.0335953  0.129905E-03  0.341E-01    1.66       1.0  T
   6    -11.0339386 -0.343287E-03  0.243E-01    1.65       1.0  T
   7    -11.0341972 -0.258622E-03  0.505E-02    1.66       1.0  T
   8    -11.0342064 -0.919128E-05  0.255E-02    1.66       1.8  T
   9    -11.0342087 -0.234648E-05  0.141E-02    1.66       3.2  T
  10    -11.0342089 -0.159692E-06  0.309E-03    1.66      14.5  T
  11    -11.0342089 -0.113313E-07  0.197E-03    1.66      22.7  T
  12    -11.0342089 -0.107184E-07  0.476E-04    1.66      93.9  T
  13    -11.0342089 -0.200655E-09  0.223E-04    1.66     200.3  T
     SCC iter.                  ...        0 min,  0.001 sec
     gradient                   ...        0 min,  0.002 sec
 * total energy  :   -10.9440183 Eh     change       -0.2958562E-01 Eh
   gradient norm :     0.0947154 Eh/α   predicted    -0.1069464E-01 ( -63.85%)
   displ. norm   :     0.3852189 α      lambda       -0.3504289E-01
   maximum displ.:     0.3763700 α      in ANC's #1, #3, #9, ...

........................................................................
.............................. CYCLE    6 ..............................
........................................................................
   1    -11.0541575 -0.110542E+02  0.223E+00    3.09       0.0  T
   2    -11.0350482  0.191093E-01  0.209E+00    3.06       1.0  T
   3    -11.0525452 -0.174970E-01  0.134E+00    3.10       1.0  T
   4    -11.0596160 -0.707081E-02  0.437E-01    3.10       1.0  T
   5    -11.0605150 -0.899025E-03  0.276E-01    3.09       1.0  T
   6    -11.0605408 -0.258031E-04  0.265E-01    3.09       1.0  T
   7    -11.0605554 -0.145803E-04  0.206E-01    3.09       1.0  T
   8    -11.0607454 -0.189995E-03  0.758E-03    3.09       5.9  T
   9    -11.0607454  0.276970E-07  0.470E-03    3.09       9.5  T
  10    -11.0607454 -0.557844E-07  0.118E-03    3.09      37.9  T
  11    -11.0607454 -0.508302E-08  0.383E-04    3.09     116.7  T
  12    -11.0607454 -0.208660E-09  0.900E-05    3.09     497.1  T
     SCC iter.                  ...        0 min,  0.001 sec
     gradient                   ...        0 min,  0.002 sec
 * total energy  :   -10.9696925 Eh     change       -0.2567417E-01 Eh
   gradient norm :     0.0624108 Eh/α   predicted    -0.2012150E-01 ( -21.63%)
   displ. norm   :     0.3112500 α      lambda       -0.1442874E-01
   maximum displ.:     0.2690464 α      in ANC's #1, #3, #9, ...

........................................................................
.............................. CYCLE    7 ..............................
........................................................................
   1    -11.0800029 -0.110800E+02  0.181E+00    3.68       0.0  T
   2    -11.0801398 -0.136851E-03  0.104E+00    3.67       1.0  T
   3    -11.0772439  0.289586E-02  0.696E-01    3.71       1.0  T
   4    -11.0804189 -0.317504E-02  0.153E-01    3.68       1.0  T
   5    -11.0805276 -0.108622E-03  0.867E-02    3.69       1.0  T
   6    -11.0805233  0.426827E-05  0.726E-02    3.69       1.0  T
   7    -11.0805620 -0.386919E-04  0.206E-02    3.69       2.2  T
   8    -11.0805643 -0.232754E-05  0.529E-03    3.69       8.4  T
   9    -11.0805643 -0.555254E-09  0.182E-03    3.69      24.6  T
  10    -11.0805643 -0.120877E-07  0.358E-04    3.69     124.8  T
  11    -11.0805643 -0.499369E-10  0.454E-05    3.69     985.2  T
     SCC iter.                  ...        0 min,  0.001 sec
     gradient                   ...        0 min,  0.002 sec
 * total energy  :   -10.9759076 Eh     change       -0.6215121E-02 Eh
   gradient norm :     0.0652694 Eh/α   predicted    -0.7913265E-02 (  27.32%)
   displ. norm   :     0.0739323 α      lambda       -0.4209578E-02
   maximum displ.:     0.0518901 α      in ANC's #3, #6, #7, ...

........................................................................
.............................. CYCLE    8 ..............................
........................................................................
   1    -11.0816647 -0.110817E+02  0.437E-01    3.87       0.0  T
   2    -11.0816725 -0.776263E-05  0.259E-01    3.88       1.0  T
   3    -11.0815086  0.163883E-03  0.201E-01    3.86       1.0  T
   4    -11.0817035 -0.194913E-03  0.646E-02    3.87       1.0  T
   5    -11.0817390 -0.354427E-04  0.195E-02    3.87       2.3  T
   6    -11.0817405 -0.151482E-05  0.114E-02    3.87       3.9  T
   7    -11.0817411 -0.639504E-06  0.331E-03    3.87      13.5  T
   8    -11.0817412 -0.664308E-07  0.845E-04    3.87      53.0  T
   9    -11.0817412 -0.869500E-09  0.288E-04    3.87     155.4  T
     SCC iter.                  ...        0 min,  0.001 sec
     gradient                   ...        0 min,  0.002 sec
 * total energy  :   -10.9790297 Eh     change       -0.3122108E-02 Eh
   gradient norm :     0.0429526 Eh/α   predicted    -0.2116294E-02 ( -32.22%)
   displ. norm   :     0.1346209 α      lambda       -0.5122761E-02
   maximum displ.:     0.0889789 α      in ANC's #6, #7, #9, ...

........................................................................
.............................. CYCLE    9 ..............................
........................................................................
   1    -11.0914406 -0.110914E+02  0.895E-01    4.17       0.0  T
   2    -11.0914541 -0.135118E-04  0.521E-01    4.17       1.0  T
   3    -11.0910628  0.391226E-03  0.229E-01    4.16       1.0  T
   4    -11.0914807 -0.417845E-03  0.461E-02    4.16       1.0  T
   5    -11.0914789  0.181437E-05  0.405E-02    4.16       1.1  T
   6    -11.0914841 -0.523185E-05  0.239E-02    4.16       1.9  T
   7    -11.0914886 -0.452818E-05  0.363E-03    4.16      12.3  T
   8    -11.0914886 -0.425256E-08  0.124E-03    4.16      36.2  T
   9    -11.0914886 -0.289722E-08  0.217E-04    4.16     205.9  T
  10    -11.0914886 -0.522640E-10  0.130E-04    4.16     342.9  T
     SCC iter.                  ...        0 min,  0.001 sec
     gradient                   ...        0 min,  0.002 sec
 * total energy  :   -10.9821264 Eh     change       -0.3096734E-02 Eh
   gradient norm :     0.0149470 Eh/α   predicted    -0.2607801E-02 ( -15.79%)
   displ. norm   :     0.0752911 α      lambda       -0.8228496E-03
   maximum displ.:     0.0492481 α      in ANC's #1, #6, #3, ...

........................................................................
.............................. CYCLE   10 ..............................
........................................................................
   1    -11.0930509 -0.110931E+02  0.487E-01    4.18       0.0  T
   2    -11.0930460  0.492773E-05  0.278E-01    4.18       1.0  T
   3    -11.0926848  0.361128E-03  0.246E-01    4.19       1.0  T
   4    -11.0930905 -0.405615E-03  0.375E-02    4.18       1.2  T
   5    -11.0930974 -0.697615E-05  0.164E-02    4.18       2.7  T
   6    -11.0930976 -0.212136E-06  0.880E-03    4.18       5.1  T
   7    -11.0930978 -0.191032E-06  0.340E-03    4.18      13.2  T
   8    -11.0930979 -0.807193E-07  0.150E-03    4.18      29.7  T
   9    -11.0930979 -0.846176E-08  0.333E-04    4.18     134.5  T
  10    -11.0930979 -0.326947E-09  0.959E-05    4.18     466.4  T
     SCC iter.                  ...        0 min,  0.001 sec
     gradient                   ...        0 min,  0.002 sec
 * total energy  :   -10.9826186 Eh     change       -0.4922146E-03 Eh
   gradient norm :     0.0085186 Eh/α   predicted    -0.4137583E-03 ( -15.94%)
   displ. norm   :     0.0186516 α      lambda       -0.1080340E-03
   maximum displ.:     0.0113052 α      in ANC's #3, #6, #4, ...

........................................................................
.............................. CYCLE   11 ..............................
........................................................................
   1    -11.0921838 -0.110922E+02  0.134E-01    4.15       0.0  T
   2    -11.0921737  0.100973E-04  0.854E-02    4.15       1.0  T
   3    -11.0921413  0.323716E-04  0.901E-02    4.15       1.0  T
   4    -11.0921880 -0.467159E-04  0.259E-02    4.15       1.7  T
   5    -11.0921934 -0.539644E-05  0.637E-03    4.15       7.0  T
   6    -11.0921936 -0.172066E-06  0.372E-03    4.15      12.0  T
   7    -11.0921936 -0.415347E-07  0.107E-03    4.15      41.7  T
   8    -11.0921936 -0.335447E-08  0.357E-04    4.15     125.4  T
   9    -11.0921936 -0.877858E-10  0.764E-05    4.15     585.6  T
     SCC iter.                  ...        0 min,  0.001 sec
     gradient                   ...        0 min,  0.002 sec
 * total energy  :   -10.9826858 Eh     change       -0.6720518E-04 Eh
   gradient norm :     0.0036018 Eh/α   predicted    -0.5403633E-04 ( -19.59%)
   displ. norm   :     0.0078252 α      lambda       -0.2245350E-04
   maximum displ.:     0.0045426 α      in ANC's #4, #2, #9, ...

........................................................................
.............................. CYCLE   12 ..............................
........................................................................
   1    -11.0914032 -0.110914E+02  0.694E-02    4.14       0.0  T
   2    -11.0913980  0.516101E-05  0.480E-02    4.13       1.0  T
   3    -11.0913878  0.102134E-04  0.506E-02    4.14       1.0  T
   4    -11.0914040 -0.161390E-04  0.165E-02    4.14       2.7  T
   5    -11.0914062 -0.222437E-05  0.256E-03    4.14      17.5  T
   6    -11.0914062  0.205313E-08  0.169E-03    4.14      26.5  T
   7    -11.0914062 -0.104120E-07  0.358E-04    4.14     124.8  T
   8    -11.0914062 -0.362766E-09  0.165E-04    4.14     270.5  T
     SCC iter.                  ...        0 min,  0.001 sec
     gradient                   ...        0 min,  0.002 sec
 * total energy  :   -10.9827012 Eh     change       -0.1539486E-04 Eh
   gradient norm :     0.0022016 Eh/α   predicted    -0.1122760E-04 ( -27.07%)
   displ. norm   :     0.0090391 α      lambda       -0.1428696E-04
   maximum displ.:     0.0064214 α      in ANC's #2, #4, #7, ...

........................................................................
.............................. CYCLE   13 ..............................
........................................................................
   1    -11.0910343 -0.110910E+02  0.875E-02    4.13       0.0  T
   2    -11.0910271  0.719148E-05  0.593E-02    4.13       1.0  T
   3    -11.0910000  0.271125E-04  0.689E-02    4.13       1.0  T
   4    -11.0910360 -0.360148E-04  0.156E-02    4.13       2.9  T
   5    -11.0910379 -0.184423E-05  0.352E-03    4.13      12.7  T
   6    -11.0910379 -0.459171E-08  0.244E-03    4.13      18.3  T
   7    -11.0910379 -0.268343E-07  0.299E-04    4.13     149.7  T
   8    -11.0910379 -0.415668E-10  0.161E-04    4.13     278.3  T
     SCC iter.                  ...        0 min,  0.001 sec
     gradient                   ...        0 min,  0.001 sec
 * total energy  :   -10.9827122 Eh     change       -0.1096997E-04 Eh
   gradient norm :     0.0024938 Eh/α   predicted    -0.7145569E-05 ( -34.86%)
   displ. norm   :     0.0155406 α      lambda       -0.1905973E-04
   maximum displ.:     0.0113856 α      in ANC's #2, #4, #7, ...

........................................................................
.............................. CYCLE   14 ..............................
........................................................................
   1    -11.0909650 -0.110910E+02  0.151E-01    4.14       0.0  T
   2    -11.0909445  0.205298E-04  0.102E-01    4.13       1.0  T
   3    -11.0908540  0.905295E-04  0.121E-01    4.14       1.0  T
   4    -11.0909710 -0.116999E-03  0.233E-02    4.14       1.9  T
   5    -11.0909747 -0.377206E-05  0.669E-03    4.14       6.7  T
   6    -11.0909748 -0.625362E-07  0.449E-03    4.14      10.0  T
   7    -11.0909749 -0.922230E-07  0.602E-04    4.14      74.3  T
   8    -11.0909749 -0.576655E-09  0.304E-04    4.14     147.0  T
     SCC iter.                  ...        0 min,  0.001 sec
     gradient                   ...        0 min,  0.001 sec
 * total energy  :   -10.9827249 Eh     change       -0.1264839E-04 Eh
   gradient norm :     0.0023540 Eh/α   predicted    -0.9534100E-05 ( -24.62%)
   displ. norm   :     0.0081589 α      lambda       -0.7237476E-05
   maximum displ.:     0.0058972 α      in ANC's #2, #4, #7, ...

........................................................................
.............................. CYCLE   15 ..............................
........................................................................
   1    -11.0913103 -0.110913E+02  0.775E-02    4.14       0.0  T
   2    -11.0913049  0.546453E-05  0.530E-02    4.14       1.0  T
   3    -11.0912803  0.245574E-04  0.625E-02    4.14       1.0  T
   4    -11.0913122 -0.318705E-04  0.109E-02    4.14       4.1  T
   5    -11.0913129 -0.745061E-06  0.364E-03    4.14      12.3  T
   6    -11.0913129 -0.677140E-08  0.257E-03    4.14      17.4  T
   7    -11.0913130 -0.367658E-07  0.416E-04    4.14     107.6  T
   8    -11.0913130 -0.514587E-09  0.165E-04    4.14     270.7  T
     SCC iter.                  ...        0 min,  0.001 sec
     gradient                   ...        0 min,  0.001 sec
 * total energy  :   -10.9827294 Eh     change       -0.4545136E-05 Eh
   gradient norm :     0.0011348 Eh/α   predicted    -0.3620703E-05 ( -20.34%)
   displ. norm   :     0.0024516 α      lambda       -0.1489962E-05
   maximum displ.:     0.0013240 α      in ANC's #8, #9, #2, ...

........................................................................
.............................. CYCLE   16 ..............................
........................................................................
   1    -11.0916837 -0.110917E+02  0.167E-02    4.15       0.0  T
   2    -11.0916835  0.220474E-06  0.118E-02    4.15       3.8  T
   3    -11.0916827  0.781410E-06  0.123E-02    4.15       3.6  T
   4    -11.0916838 -0.107003E-05  0.416E-03    4.15      10.7  T
   5    -11.0916839 -0.113487E-06  0.985E-04    4.15      45.4  T
   6    -11.0916839 -0.741496E-09  0.907E-04    4.15      49.3  T
     SCC iter.                  ...        0 min,  0.001 sec
     gradient                   ...        0 min,  0.001 sec
 * total energy  :   -10.9827302 Eh     change       -0.8365025E-06 Eh
   gradient norm :     0.0003230 Eh/α   predicted    -0.7449267E-06 ( -10.95%)
   displ. norm   :     0.0013993 α      lambda       -0.1405038E-06
   maximum displ.:     0.0009027 α      in ANC's #2, #4, #7, ...

   *** GEOMETRY OPTIMIZATION CONVERGED AFTER 16 ITERATIONS ***

------------------------------------------------------------------------
 total energy gain   :        -0.0783533 Eh      -49.1674 kcal/mol
 total RMSD          :         0.5522412 a0        0.2922 Å
 total power (kW/mol):       -12.8572805 (step)-3109.9519 (real)
------------------------------------------------------------------------

 ANCopt (total)                0 d,  0 h,  0 min,  0.066 sec
 optimizer setup                ...        0 min,  0.000 sec (  0.110%)
 model hessian                  ...        0 min,  0.000 sec (  0.141%)
 ANC generation                 ...        0 min,  0.000 sec (  0.074%)
 coordinate transformation      ...        0 min,  0.000 sec (  0.055%)
 single point calculation       ...        0 min,  0.065 sec ( 97.743%)
 optimization log               ...        0 min,  0.000 sec (  0.607%)
 hessian update                 ...        0 min,  0.000 sec (  0.054%)
 rational function              ...        0 min,  0.000 sec (  0.526%)

================
 final structure:
================
5
 xtb: 6.2.2 (9d81278992624c895f80dd42a50cac0aa55982e2)
C         0.98900530952932    0.11016818940062   -0.35272025972663
N         0.34123257502060   -0.78168387196063    0.56019468498185
C        -0.95924752208497   -0.43481627893762    0.07374390579514
C        -0.04092124770339    0.64738328978209    0.63993406053981
C        -0.33006811476155    0.45894767171553   -0.92115239159017

 Bond Distances (Angstroems)
 ---------------------------
C1-N2=1.4312         C1-C4=1.5280         C1-C5=1.4781         N2-C1=1.4312         N2-C3=1.4312         N2-C4=1.4814         
C3-N2=1.4312         C3-C4=1.5281         C3-C5=1.4780         C4-C1=1.5280         C4-N2=1.4814         C4-C3=1.5281         
C4-C5=1.5988         C5-C1=1.4781         C5-C3=1.4780         C5-C4=1.5988         
 C  C  Rav=1.5222 sigma=0.0443  Rmin=1.4780  Rmax=1.5988     5
 N  C  Rav=1.4479 sigma=0.0237  Rmin=1.4312  Rmax=1.4814     3

 selected bond angles (degree)
 --------------------
C4-C1-N2= 59.98                C5-C1-N2= 89.34                C5-C1-C4= 64.24                C3-N2-C1= 92.49                
C4-N2-C1= 63.25                C4-N2-C3= 63.26                C4-C3-N2= 59.97                C5-C3-N2= 89.34                
C5-C3-C4= 64.24                N2-C4-C1= 56.77                C3-C4-C1= 85.15                C3-C4-N2= 56.76                
C5-C4-C1= 56.37                C5-C4-N2= 83.13                C5-C4-C3= 56.36                C3-C5-C1= 88.76                
C4-C5-C1= 59.40                C4-C5-C3= 59.40                

 selected dihedral angles (degree)
 ---------------------------------
C3-N2-C1-C4= 58.25            C3-N2-C1-C5=357.95            C4-N2-C1-C5=299.69            C4-C3-N2-C1=301.75            
C5-C3-N2-C1=  2.06            C5-C3-N2-C4= 60.30            N2-C4-C1-C5=105.31            C3-C4-C1-N2=307.01            
C3-C4-C1-C5= 52.32            C5-C4-C1-N2=254.69            C1-C4-N2-C3=252.04            C3-C4-N2-C1=107.96            
C5-C4-N2-C1= 53.98            C5-C4-N2-C3=306.02            C1-C4-C3-N2= 52.99            C1-C4-C3-C5=307.67            
N2-C4-C3-C5=254.68            C5-C4-C3-N2=105.32            C3-C5-C1-N2=  1.99            C3-C5-C1-C4=305.36            
C4-C5-C1-N2= 56.63            C1-C5-C3-N2=358.01            C1-C5-C3-C4= 54.64            C4-C5-C3-N2=303.38            
C1-C5-C4-N2=305.65            C1-C5-C4-C3=251.31            C3-C5-C4-C1=108.69            C3-C5-C4-N2= 54.34            
           -------------------------------------------------
          |                Final Singlepoint                |
           -------------------------------------------------

          ...................................................
          :                      SETUP                      :
          :.................................................:
          :  # basis functions                  20          :
          :  # atomic orbitals                  20          :
          :  # shells                           10          :
          :  # electrons                        21          :
          :  max. iterations                   250          :
          :  Hamiltonian                  GFN2-xTB          :
          :  restarted?                      false          :
          :  GBSA solvation                  false          :
          :  PC potential                    false          :
          :  electronic temp.          300.0000000     K    :
          :  accuracy                    1.0000000          :
          :  -> integral cutoff          0.2500000E+02      :
          :  -> integral neglect         0.1000000E-07      :
          :  -> SCF convergence          0.1000000E-05 Eh   :
          :  -> wf. convergence          0.1000000E-03 e    :
          :  Broyden damping             0.4000000          :
          ...................................................

 iter      E             dE          RMSdq      gap      omega  full diag
   1    -11.0916839 -0.110917E+02  0.338E-04    4.15       0.0  T
   2    -11.0916839  0.489511E-10  0.230E-04    4.15     194.1  T
   3    -11.0916839 -0.194612E-09  0.178E-04    4.15     251.0  T

   *** convergence criteria satisfied after 3 iterations ***

         #    Occupation            Energy/Eh            Energy/eV
      -------------------------------------------------------------
         1        2.0000           -0.7836479             -21.3241
       ...           ...                  ...                  ...
         6        2.0000           -0.5187665             -14.1164
         7        2.0000           -0.5150772             -14.0160
         8        2.0000           -0.4915940             -13.3770
         9        2.0000           -0.4833139             -13.1516
        10        1.0000           -0.4626846             -12.5903
        11        1.0000           -0.4082197             -11.1082
        12        1.0000           -0.3993464             -10.8668 (HOMO)
        13                         -0.2468531              -6.7172 (LUMO)
        14                         -0.1691393              -4.6025
        15                         -0.1427255              -3.8838
        16                          0.0080469               0.2190
        17                          0.0679247               1.8483
       ...                                ...                  ...
        20                          0.3317989               9.0287
      -------------------------------------------------------------
                  HL-Gap            0.1524933 Eh            4.1496 eV
             Fermi-level           -0.3980495 Eh          -10.8315 eV

 SCC (total)                   0 d,  0 h,  0 min,  0.003 sec
 SCC setup                      ...        0 min,  0.000 sec (  1.164%)
 Dispersion                     ...        0 min,  0.000 sec (  0.400%)
 integral evaluation            ...        0 min,  0.001 sec ( 42.666%)
 zeroth order Hamiltonian       ...        0 min,  0.000 sec (  0.429%)
 iterations                     ...        0 min,  0.000 sec ( 10.681%)
 molecular gradient             ...        0 min,  0.001 sec ( 43.059%)
 printout                       ...        0 min,  0.000 sec (  1.339%)

         :::::::::::::::::::::::::::::::::::::::::::::::::::::
         ::                     SUMMARY                     ::
         :::::::::::::::::::::::::::::::::::::::::::::::::::::
         :: total energy             -10.982730239459 Eh    ::
         :: gradient norm              0.000325472911 Eh/a0 ::
         :: HOMO-LUMO gap              4.149554037722 eV    ::
         ::.................................................::
         :: SCC energy               -11.091683906291 Eh    ::
         :: -> isotropic ES           -0.002925034635 Eh    ::
         :: -> anisotropic ES          0.004082904636 Eh    ::
         :: -> anisotropic XC          0.003743080317 Eh    ::
         :: -> dispersion             -0.002597236323 Eh    ::
         :: repulsion energy           0.108953650005 Eh    ::
         :: add. restraining           0.000000000000 Eh    ::
         :::::::::::::::::::::::::::::::::::::::::::::::::::::

           ------------------------------------------------- 
          |                Numerical Hessian                |
           ------------------------------------------------- 
step length          :   0.00500
SCC accuracy         :   0.30000
Hessian scale factor :   1.00000
frozen atoms in %    :   0.00000    0
RMS gradient         :   0.00032
estimated CPU  time      0.00 min
estimated wall time      0.00 min

writing file <hessian>.

 projected vibrational frequencies (cm-1)
eigval :       -0.00    -0.00    -0.00     0.00     0.00     0.00
eigval :      268.89   412.92   550.24   889.63   997.91  1055.33
eigval :     1137.95  1160.54  1407.14
           -------------------------------------------------
          |                Property Printout                |
           -------------------------------------------------

    * Orbital Energies and Occupations

         #    Occupation            Energy/Eh            Energy/eV
      -------------------------------------------------------------
         1        2.0000           -0.7836477             -21.3241
         2        2.0000           -0.6703388             -18.2408
         3        2.0000           -0.6679325             -18.1754
         4        2.0000           -0.6322872             -17.2054
         5        2.0000           -0.5635472             -15.3349
         6        2.0000           -0.5187660             -14.1163
         7        2.0000           -0.5150773             -14.0160
         8        2.0000           -0.4915938             -13.3769
         9        2.0000           -0.4833135             -13.1516
        10        1.0000           -0.4626845             -12.5903
        11        1.0000           -0.4082202             -11.1082
        12        1.0000           -0.3993462             -10.8668 (HOMO)
        13                         -0.2468532              -6.7172 (LUMO)
        14                         -0.1691392              -4.6025
        15                         -0.1427252              -3.8838
        16                          0.0080471               0.2190
        17                          0.0679247               1.8483
        18                          0.1034441               2.8149
        19                          0.1148311               3.1247
        20                          0.3317989               9.0287
      -------------------------------------------------------------
                  HL-Gap            0.1524930 Eh            4.1495 eV
             Fermi-level           -0.3980493 Eh          -10.8315 eV

     #   Z        covCN         q      C6AA      α(0)
     1   6 C      3.214    -0.014    27.672     8.559
     2   7 N      2.991    -0.079    22.766     7.087
     3   6 C      3.214    -0.014    27.671     8.559
     4   6 C      3.820     0.116    18.675     6.150
     5   6 C      3.189    -0.009    27.761     8.595

 Mol. C6AA /au·bohr⁶  :        617.871990
 Mol. C8AA /au·bohr⁸  :      17013.107195
 Mol. α(0) /au        :         38.949238


Wiberg/Mayer (AO) data.
largest (>0.10) Wiberg bond orders for each atom
          total WBO             WBO to atom ...
     1  C   2.792        N    2 0.939    C    5 0.915    C    4 0.738    C    3 0.200
     2  N   2.836        C    3 0.939    C    1 0.939    C    4 0.813    C    5 0.145
     3  C   2.792        N    2 0.939    C    5 0.915    C    4 0.738    C    1 0.200
     4  C   2.921        N    2 0.813    C    1 0.738    C    3 0.738    C    5 0.632
     5  C   2.608        C    3 0.915    C    1 0.915    C    4 0.632    N    2 0.145

MOs/occ written to file <molden.input>


molecular dipole:
                 x           y           z       tot (Debye)
 q only:       -0.055       0.259       0.080
   full:       -0.009       0.352       0.410       1.374
molecular quadrupole (traceless):
                xx          xy          yy          xz          yz          zz
 q only:       -0.145       0.065       0.026      -0.081       0.469       0.119
  q+dip:       -1.315      -0.235       0.421       0.149       1.273       0.894
   full:       -1.822      -0.374       0.756       0.169       1.767       1.066

           -------------------------------------------------
          |                Geometry Summary                 |
           -------------------------------------------------

      molecular mass/u    :       62.0496468
   center of mass at/Å    :        0.0109766      -0.0251449       0.0180199
  moments of inertia/u·Å² :        0.3819824E+02   0.3962599E+02   0.5276846E+02
rotational constants/cm⁻¹ :        0.4413196E+00   0.4254186E+00   0.3194641E+00

 * 3 selected distances

     #   Z        #   Z                                     value/Å
     1   6 C      2   7 N                                 1.4312314
     2   7 N      3   6 C                                 1.4311534 (min)
     2   7 N      4   6 C                                 1.4814293 (max)

 * 1 distinct bonds (by element types)

   Z      Z             #   av. dist./Å        max./Å        min./Å
   6 C    7 N           3     1.4479380     1.4814293     1.4311534

           -------------------------------------------------
          |               Frequency Printout                |
Molecule has the following symmetry elements: (sigma) 
It seems to be the Cs point group
           -------------------------------------------------
 projected vibrational frequencies (cm-1)
eigval :       -0.00    -0.00    -0.00     0.00     0.00     0.00
eigval :      268.89   412.92   550.24   889.63   997.91  1055.33
eigval :     1137.95  1160.54  1407.14
 reduced masses (amu)
   1: 12.62   2: 12.42   3: 12.73   4: 12.53   5: 12.29   6: 12.05   7: 12.31   8: 12.03
   9: 12.75  10: 12.32  11: 12.51  12: 12.53  13: 12.48  14: 12.20  15: 12.37
 IR intensities (amu)
   1:  0.10   2:  0.12   3:  0.13   4:  0.06   5:  0.08   6:  0.02   7:  1.18   8:  0.27
   9:  0.61  10:  0.17  11:  0.54  12:  0.29  13:  0.98  14:  1.26  15:  0.31
 Raman intensities (amu)
   1:  0.00   2:  0.00   3:  0.00   4:  0.00   5:  0.00   6:  0.00   7:  0.00   8:  0.00
   9:  0.00  10:  0.00  11:  0.00  12:  0.00  13:  0.00  14:  0.00  15:  0.00
 output can be read by thermo (or use thermo option).
 writing <g98.out> molden fake output.
 recommended (thermochemical) frequency scaling factor: 1.0
           -------------------------------------------------
          |             Thermodynamic Functions             |
           -------------------------------------------------

cs  symmetry found (for desy threshold:  0.10E+00) used in thermo

          ...................................................
          :                      SETUP                      :
          :.................................................:
          :  # frequencies                           9      :
          :  # imaginary freq.                       0      :
          :  linear?                             false      :
          :  only rotor calc.                    false      :
          :  symmetry                               cs      :
          :  rotational number                       1      :
          :  scaling factor                  1.0000000      :
          :  rotor cutoff                   50.0000000 cm⁻¹ :
          :  imag. cutoff                  -20.0000000 cm⁻¹ :
          :.................................................:

    mode    ω/cm⁻¹     T·S(HO)/kcal·mol⁻¹    T·S(FR)/kcal·mol⁻¹   T·S(vib)
   ------------------------------------------------------------------------
       1    268.89    -0.00000 ( 99.88%)     0.01503 (  0.12%)     0.00002
   ------------------------------------------------------------------------

   temp. (K)  partition function   enthalpy   heat capacity  entropy
                                   cal/mol     cal/K/mol   cal/K/mol   J/K/mol
 298.15  VIB   1.78                  701.782      6.111      3.498
         ROT  0.216E+05              888.752      2.981     22.814
         INT  0.384E+05             1590.535      9.092     26.312
         TR   0.473E+27             1481.254      4.968     38.278
         TOT                        3071.7886    14.0597    64.5898   270.2438

   temp. (K)  partition function   enthalpy   heat capacity  entropy
                                   cal/mol     cal/K/mol   cal/K/mol   J/K/mol
 120.00  VIB   1.05                   42.526      1.369      0.453
         ROT  0.551E+04              357.707      2.981     20.101
         INT  0.579E+04              400.232      4.349     20.554
         TR   0.121E+27              596.178      4.968     33.759
         TOT                         996.4103     9.3175    54.3123   227.2428

   temp. (K)  partition function   enthalpy   heat capacity  entropy
                                   cal/mol     cal/K/mol   cal/K/mol   J/K/mol
 100.00  VIB   1.02                   20.096      0.880      0.250
         ROT  0.419E+04              298.089      2.981     19.557
         INT  0.430E+04              318.185      3.861     19.807
         TR   0.919E+26              496.815      4.968     32.853
         TOT                         815.0003     8.8292    52.6603   220.3306

   temp. (K)  partition function   enthalpy   heat capacity  entropy
                                   cal/mol     cal/K/mol   cal/K/mol   J/K/mol
  80.00  VIB   1.01                    6.936      0.450      0.104
         ROT  0.300E+04              238.471      2.981     18.892
         INT  0.303E+04              245.407      3.431     18.996
         TR   0.657E+26              397.452      4.968     31.745
         TOT                         642.8594     8.3992    50.7418   212.3037

   temp. (K)  partition function   enthalpy   heat capacity  entropy
                                   cal/mol     cal/K/mol   cal/K/mol   J/K/mol
  60.00  VIB   1.00                    1.282      0.142      0.025
         ROT  0.195E+04              178.853      2.981     18.035
         INT  0.195E+04              180.135      3.123     18.059
         TR   0.427E+26              298.089      4.968     30.317
         TOT                         478.2242     8.0907    48.3762   202.4058

   temp. (K)  partition function   enthalpy   heat capacity  entropy
                                   cal/mol     cal/K/mol   cal/K/mol   J/K/mol
  40.00  VIB   1.00                    0.049      0.012      0.001
         ROT  0.106E+04              119.236      2.981     16.826
         INT  0.106E+04              119.284      2.993     16.827
         TR   0.232E+26              198.726      4.968     28.303
         TOT                         318.0105     7.9609    45.1302   188.8249

   temp. (K)  partition function   enthalpy   heat capacity  entropy
                                   cal/mol     cal/K/mol   cal/K/mol   J/K/mol
  20.00  VIB   1.00                    0.000      0.000     -0.001
         ROT   375.                   59.618      2.981     14.760
         INT   375.                   59.618      2.981     14.758
         TR   0.822E+25               99.363      4.968     24.861
         TOT                         158.9808     7.9490    39.6197   165.7687

   temp. (K)  partition function   enthalpy   heat capacity  entropy
                                   cal/mol     cal/K/mol   cal/K/mol   J/K/mol
  10.00  VIB   1.00                    0.000      0.000     -0.002
         ROT   133.                   29.809      2.981     12.694
         INT   133.                   29.809      2.981     12.691
         TR   0.290E+25               49.681      4.968     21.419
         TOT                          79.4904     7.9490    34.1105   142.7182

       T/K    H(0)-H(T)+PV         H(T)/Eh          T*S/Eh         G(T)/Eh
   ------------------------------------------------------------------------
    298.15    0.489521E-02    0.228484E-01    0.306887E-01   -0.784030E-02
    120.00    0.158788E-02    0.195411E-01    0.103863E-01    0.915481E-02
    100.00    0.129879E-02    0.192520E-01    0.839195E-02    0.108600E-01
     80.00    0.102446E-02    0.189777E-01    0.646898E-02    0.125087E-01
     60.00    0.762099E-03    0.187153E-01    0.462554E-02    0.140898E-01
     40.00    0.506782E-03    0.184600E-01    0.287678E-02    0.155832E-01
     20.00    0.253352E-03    0.182066E-01    0.126276E-02    0.169438E-01
     10.00    0.126676E-03    0.180799E-01    0.543585E-03    0.175363E-01 (used)
   ------------------------------------------------------------------------

         :::::::::::::::::::::::::::::::::::::::::::::::::::::
         ::                  THERMODYNAMIC                  ::
         :::::::::::::::::::::::::::::::::::::::::::::::::::::
         :: total free energy         -10.965193949627 Eh   ::
         ::.................................................::
         :: total energy              -10.982730239451 Eh   ::
         :: zero point energy           0.017953198660 Eh   ::
         :: G(RRHO) w/o ZPVE           -0.000416908837 Eh   ::
         :: G(RRHO) contrib.            0.017536289823 Eh   ::
         :::::::::::::::::::::::::::::::::::::::::::::::::::::

optimized geometry written to: xtbopt.xyz


           -------------------------------------------------
          | TOTAL ENERGY              -10.982730239451 Eh   |
          | TOTAL ENTHALPY            -10.964650364775 Eh   |
          | TOTAL FREE ENERGY         -10.965193949627 Eh   |
          | GRADIENT NORM               0.000324973869 Eh/α |
          | HOMO-LUMO GAP               4.149546468982 eV   |
           -------------------------------------------------

------------------------------------------------------------------------
 * finished run on 2020/05/12 at 11:44:15.487     
------------------------------------------------------------------------
 total:
 * wall-time:     0 d,  0 h,  0 min,  0.192 sec
 *  cpu-time:     0 d,  0 h,  0 min,  0.191 sec
 * ratio c/w:     0.998 speedup
 SCF:
 * wall-time:     0 d,  0 h,  0 min,  0.004 sec
 *  cpu-time:     0 d,  0 h,  0 min,  0.004 sec
 * ratio c/w:     1.000 speedup
 ANC optimizer:
 * wall-time:     0 d,  0 h,  0 min,  0.070 sec
 *  cpu-time:     0 d,  0 h,  0 min,  0.070 sec
 * ratio c/w:     0.998 speedup
 numerical hessian:
 * wall-time:     0 d,  0 h,  0 min,  0.102 sec
 *  cpu-time:     0 d,  0 h,  0 min,  0.101 sec
 * ratio c/w:     0.999 speedup

