      -----------------------------------------------------------      
     |                   =====================                   |     
     |                           x T B                           |     
     |                   =====================                   |     
     |                         S. Grimme                         |     
     |          Mulliken Center for Theoretical Chemistry        |     
     |                    University of Bonn                     |     
      -----------------------------------------------------------      

   * xtb version 6.2.2 (9d81278992624c895f80dd42a50cac0aa55982e2) compiled by '@Darwin' on 04/03/2020

   xtb is free software: you can redistribute it and/or modify it under
   the terms of the GNU Lesser General Public License as published by
   the Free Software Foundation, either version 3 of the License, or
   (at your option) any later version.
   
   xtb is distributed in the hope that it will be useful,
   but WITHOUT ANY WARRANTY; without even the implied warranty of
   MERCHANTABILITY or FITNESS FOR A PARTICULAR PURPOSE.  See the
   GNU Lesser General Public License for more details.
   
   Cite this work as:
   * S. Grimme, C. Bannwarth, P. Shushkov, J. Chem. Theory Comput., 2017,
     13, 1989-2009. DOI: 10.1021/acs.jctc.7b00118
   * C. Bannwarth, S. Ehlert and S. Grimme., J. Chem. Theory Comput., 2019,
     15, 1652-1671. DOI: 10.1021/acs.jctc.8b01176
   * P. Pracht, E. Caldeweyher, S. Ehlert, S. Grimme, ChemRxiv, 2019, preprint.
     DOI: 10.26434/chemrxiv.8326202.v1
   
   for DFT-D4:
   * E. Caldeweyher, C. Bannwarth and S. Grimme, J. Chem. Phys., 2017,
     147, 034112. DOI: 10.1063/1.4993215
   * E. Caldeweyher, S. Ehlert, A. Hansen, H. Neugebauer, S. Spicher,
     C. Bannwarth and S. Grimme, J. Chem. Phys., 2019, 150, 154122.
     DOI: 10.1063/1.5090222
   
   for sTDA-xTB:
   * S. Grimme and C. Bannwarth, J. Chem. Phys., 2016, 145, 054103.
     DOI: 10.1063/1.4959605
   
   in the mass-spec context:
   * V. Asgeirsson, C. Bauer and S. Grimme, Chem. Sci., 2017, 8, 4879.
     DOI: 10.1039/c7sc00601b
   
   for metadynamics refer to:
   * S. Grimme, J. Chem. Theory Comput., 2019, 155, 2847-2862
     DOI: 10.1021/acs.jctc.9b00143
   
   with help from (in alphabetical order)
   C. Bannwarth, F. Bohle, G. Brandenburg, E. Caldeweyher, M. Checinski,
   S. Dohm, S. Ehlert, S. Ehrlich, F. März, H. Neugebauer, J. Pisarek,
   P. Pracht, P. Shushkov, and S. Spicher.
   
 * started run on 2020/05/12 at 11:43:54.462     

           -------------------------------------------------
          |                Calculation Setup                |
           -------------------------------------------------

          program call               : xtb --input N2O1_0_S_2.input N2O1_0_S_2.xyz --ohess --molden --namespace N2O1_0_S_2 output.out
          calculation namespace      : N2O1_0_S_2
          coordinate file            : N2O1_0_S_2.xyz
          number of atoms            :                     3
          number of electrons        :                    16
          charge                     :                     0
          spin                       :                   1.0
          first test random number   :      0.85422649044798

   ID    Z sym.   atoms
    1    8 O      1
    2    7 N      2, 3

           -------------------------------------------------
          |                 G F N 2 - x T B                 |
           -------------------------------------------------

        Reference                      10.1021/acs.jctc.8b01176
      * Hamiltonian:
        H0-scaling (s, p, d)           1.850000    2.230000    2.230000
        zeta-weighting                 0.500000
      * Dispersion:
        s8                             2.700000
        a1                             0.520000
        a2                             5.000000
        s9                             5.000000
      * Repulsion:
        kExp                           1.500000    1.000000
        rExp                           1.000000
      * Coulomb:
        alpha                          2.000000
        third order                    shell-resolved
        anisotropic                    true
        a3                             3.000000
        a5                             4.000000
        cn-shift                       1.200000
        cn-exp                         4.000000
        max-rad                        5.000000


          ...................................................
          :                      SETUP                      :
          :.................................................:
          :  # basis functions                  12          :
          :  # atomic orbitals                  12          :
          :  # shells                            6          :
          :  # electrons                        16          :
          :  max. iterations                   250          :
          :  Hamiltonian                  GFN2-xTB          :
          :  restarted?                      false          :
          :  GBSA solvation                  false          :
          :  PC potential                    false          :
          :  electronic temp.          300.0000000     K    :
          :  accuracy                    1.0000000          :
          :  -> integral cutoff          0.2500000E+02      :
          :  -> integral neglect         0.1000000E-07      :
          :  -> SCF convergence          0.1000000E-05 Eh   :
          :  -> wf. convergence          0.1000000E-03 e    :
          :  Broyden damping             0.4000000          :
          ...................................................

 iter      E             dE          RMSdq      gap      omega  full diag
   1     -9.5537882 -0.955379E+01  0.536E+00    0.92       0.0  T
   2     -9.5566737 -0.288554E-02  0.283E+00    1.00       1.0  T
   3     -9.5533654  0.330835E-02  0.302E+00    1.04       1.0  T
   4     -9.5578277 -0.446235E-02  0.486E-01    0.99       1.0  T
   5     -9.5578728 -0.450588E-04  0.187E-01    0.99       1.0  T
   6     -9.5578755 -0.270341E-05  0.935E-02    1.00       1.0  T
   7     -9.5578791 -0.358516E-05  0.302E-02    0.99       1.9  T
   8     -9.5578794 -0.325772E-06  0.157E-02    0.99       3.7  T
   9     -9.5578795 -0.120817E-06  0.110E-02    0.99       5.2  T
  10     -9.5578796 -0.681063E-07  0.188E-03    0.99      30.7  T
  11     -9.5578796 -0.157130E-08  0.545E-04    0.99     105.9  T
  12     -9.5578796 -0.846505E-10  0.362E-04    0.99     159.3  T

   *** convergence criteria satisfied after 12 iterations ***

         #    Occupation            Energy/Eh            Energy/eV
      -------------------------------------------------------------
         1        2.0000           -0.8345568             -22.7094
       ...           ...                  ...                  ...
         3        2.0000           -0.6977019             -18.9854
         4        2.0000           -0.6591457             -17.9363
         5        2.0000           -0.5482936             -14.9198
         6        2.0000           -0.5416957             -14.7403
         7        1.8065           -0.4607153             -12.5367
         8        1.1935           -0.4580035             -12.4629
         9        1.0000           -0.4292301             -11.6799 (HOMO)
        10                         -0.3927260             -10.6866 (LUMO)
        11                         -0.0640747              -1.7436
        12                         -0.0189208              -0.5149
      -------------------------------------------------------------
                  HL-Gap            0.0365041 Eh            0.9933 eV
             Fermi-level           -0.4351687 Eh          -11.8415 eV

 transition dipole moment (au) for excitation:           8           9
     X       Y       Z   
   1.5055   0.0059   0.0000  total (au/Debye):    1.506   3.827
 dE (eV)             :    0.783
 oscillator strength :  0.61490E-01

 SCC (total)                   0 d,  0 h,  0 min,  0.002 sec
 SCC setup                      ...        0 min,  0.000 sec (  3.089%)
 Dispersion                     ...        0 min,  0.000 sec (  0.412%)
 integral evaluation            ...        0 min,  0.001 sec ( 22.212%)
 zeroth order Hamiltonian       ...        0 min,  0.000 sec (  0.500%)
 iterations                     ...        0 min,  0.001 sec ( 30.352%)
 molecular gradient             ...        0 min,  0.001 sec ( 22.281%)
 printout                       ...        0 min,  0.001 sec ( 20.732%)

         :::::::::::::::::::::::::::::::::::::::::::::::::::::
         ::                     SUMMARY                     ::
         :::::::::::::::::::::::::::::::::::::::::::::::::::::
         :: total energy              -9.548220152288 Eh    ::
         :: gradient norm              0.177910156106 Eh/a0 ::
         :: HOMO-LUMO gap              0.993326728958 eV    ::
         ::.................................................::
         :: SCC energy                -9.557879608494 Eh    ::
         :: -> isotropic ES            0.000923238007 Eh    ::
         :: -> anisotropic ES          0.005114532653 Eh    ::
         :: -> anisotropic XC          0.008068019350 Eh    ::
         :: -> dispersion             -0.000687319205 Eh    ::
         :: repulsion energy           0.009659455505 Eh    ::
         :: add. restraining           0.000000000000 Eh    ::
         :::::::::::::::::::::::::::::::::::::::::::::::::::::

      ----------------------------------------------------------- 
     |                   =====================                   |
     |                        A N C O P T                        |
     |                   =====================                   |
     |               Approximate Normal Coordinate               |
     |                Rational Function Optimizer                |
      ----------------------------------------------------------- 

          ...................................................
          :                      SETUP                      :
          :.................................................:
          :   optimization level            normal          :
          :   max. optcycles                   200          :
          :   ANC micro-cycles                  20          :
          :   degrees of freedom                 3          :
          :.................................................:
          :   RF solver                   davidson          :
          :   write xtbopt.log                true          :
          :   linear?                        false          :
          :   energy convergence         0.5000000E-05 Eh   :
          :   grad. convergence          0.1000000E-02 Eh/α :
          :   maximium RF displ.         1.0000000          :
          :   Hlow (freq-cutoff)         0.1000000E-01      :
          :   Hmax (freq-cutoff)         5.0000000          :
          :   S6 in model hess.         20.0000000          :
          ...................................................

generating ANC from model Hessian ...
Using Lindh-Hessian (1995)
 Shifting diagonal of input Hessian by    0.0000000000000000     
 Lowest  eigenvalues of input Hessian
   -0.000000   -0.000000    0.000000    0.000000    0.000000    0.000000
    0.232925    1.216619    1.452422
 Highest eigenvalues
    0.000000    0.000000    0.000000    0.232925    1.216619    1.452422


........................................................................
.............................. CYCLE    1 ..............................
........................................................................
   1     -9.5578796 -0.955788E+01  0.461E-05    0.99       0.0  T
   2     -9.5578796  0.273559E-12  0.485E-05    0.99    1191.1  T
   3     -9.5578796 -0.142464E-11  0.223E-06    0.99   25853.1  T
     SCC iter.                  ...        0 min,  0.001 sec
     gradient                   ...        0 min,  0.001 sec
 * total energy  :    -9.5482202 Eh     change        0.6280843E-10 Eh
   gradient norm :     0.1779151 Eh/α   predicted     0.0000000E+00 (-100.00%)
   displ. norm   :     0.2444567 α      lambda       -0.3400412E-01
   maximum displ.:     0.2034875 α      in ANC's #1, #2, #3, ...

........................................................................
.............................. CYCLE    2 ..............................
........................................................................
   1     -9.5922764 -0.959228E+01  0.209E+00    1.74       0.0  T
   2     -9.5929715 -0.695138E-03  0.114E+00    1.76       1.0  T
   3     -9.5930282 -0.566656E-04  0.232E-01    1.81       1.0  T
   4     -9.5930300 -0.178163E-05  0.315E-02    1.82       1.8  T
   5     -9.5930301 -0.166643E-06  0.667E-03    1.82       8.7  T
   6     -9.5930301 -0.165724E-08  0.104E-03    1.82      55.5  T
   7     -9.5930301  0.413033E-08  0.147E-03    1.82      39.2  T
   8     -9.5930301 -0.582259E-08  0.283E-04    1.82     204.1  T
   9     -9.5930301 -0.328679E-10  0.431E-05    1.82    1339.5  T
     SCC iter.                  ...        0 min,  0.001 sec
     gradient                   ...        0 min,  0.000 sec
 * total energy  :    -9.5771482 Eh     change       -0.2892809E-01 Eh
   gradient norm :     0.1264405 Eh/α   predicted    -0.1801809E-01 ( -37.71%)
   displ. norm   :     0.3194080 α      lambda       -0.3660903E-01
   maximum displ.:     0.2664762 α      in ANC's #2, #1, #3, ...

........................................................................
.............................. CYCLE    3 ..............................
........................................................................
   1     -9.6254391 -0.962544E+01  0.266E+00    1.74       0.0  T
   2     -9.6267403 -0.130122E-02  0.147E+00    1.68       1.0  T
   3     -9.6268184 -0.781007E-04  0.330E-01    1.62       1.0  T
   4     -9.6268265 -0.809840E-05  0.367E-02    1.61       1.6  T
   5     -9.6268266 -0.141583E-06  0.931E-03    1.61       6.2  T
   6     -9.6268267 -0.750139E-08  0.192E-03    1.61      30.0  T
   7     -9.6268267 -0.656996E-09  0.616E-04    1.61      93.7  T
   8     -9.6268267  0.406517E-09  0.402E-04    1.61     143.4  T
     SCC iter.                  ...        0 min,  0.001 sec
     gradient                   ...        0 min,  0.000 sec
 * total energy  :    -9.5889813 Eh     change       -0.1183305E-01 Eh
   gradient norm :     0.0612587 Eh/α   predicted    -0.2017198E-01 (  70.47%)
   displ. norm   :     0.0756806 α      lambda       -0.4579013E-02
   maximum displ.:     0.0756562 α      in ANC's #2, #1, #3, ...

........................................................................
.............................. CYCLE    4 ..............................
........................................................................
   1     -9.6191835 -0.961918E+01  0.733E-01    1.57       0.0  T
   2     -9.6194654 -0.281871E-03  0.344E-01    1.59       1.0  T
   3     -9.6194731 -0.771778E-05  0.142E-01    1.60       1.0  T
   4     -9.6194742 -0.112027E-05  0.158E-02    1.60       3.7  T
   5     -9.6194742 -0.372719E-07  0.420E-03    1.60      13.7  T
   6     -9.6194742  0.160484E-07  0.272E-03    1.60      21.3  T
   7     -9.6194742 -0.173971E-07  0.889E-04    1.60      65.0  T
   8     -9.6194742 -0.155905E-08  0.203E-04    1.60     283.8  T
     SCC iter.                  ...        0 min,  0.000 sec
     gradient                   ...        0 min,  0.000 sec
 * total energy  :    -9.5909017 Eh     change       -0.1920400E-02 Eh
   gradient norm :     0.0097708 Eh/α   predicted    -0.2302619E-02 (  19.90%)
   displ. norm   :     0.0181814 α      lambda       -0.1389921E-03
   maximum displ.:     0.0176570 α      in ANC's #1, #2, #3, ...

........................................................................
.............................. CYCLE    5 ..............................
........................................................................
   1     -9.6206486 -0.962065E+01  0.137E-01    1.64       0.0  T
   2     -9.6206596 -0.110347E-04  0.555E-02    1.64       1.0  T
   3     -9.6206599 -0.265516E-06  0.235E-02    1.64       2.5  T
   4     -9.6206599 -0.517623E-07  0.361E-03    1.64      16.0  T
   5     -9.6206599  0.266793E-07  0.343E-03    1.64      16.8  T
   6     -9.6206599 -0.308474E-07  0.641E-04    1.64      90.1  T
   7     -9.6206599 -0.112525E-09  0.790E-05    1.64     730.4  T
     SCC iter.                  ...        0 min,  0.000 sec
     gradient                   ...        0 min,  0.001 sec
 * total energy  :    -9.5909815 Eh     change       -0.7984773E-04 Eh
   gradient norm :     0.0013043 Eh/α   predicted    -0.6951784E-04 ( -12.94%)
   displ. norm   :     0.0052325 α      lambda       -0.3515486E-05
   maximum displ.:     0.0052014 α      in ANC's #1, #2, #3, ...

........................................................................
.............................. CYCLE    6 ..............................
........................................................................
   1     -9.6209125 -0.962091E+01  0.375E-02    1.65       0.0  T
   2     -9.6209132 -0.679182E-06  0.164E-02    1.65       3.5  T
   3     -9.6209132 -0.186768E-07  0.643E-03    1.65       9.0  T
   4     -9.6209132 -0.212040E-08  0.114E-03    1.65      50.4  T
   5     -9.6209132  0.223292E-09  0.992E-04    1.65      58.2  T
   6     -9.6209132 -0.183305E-08  0.145E-04    1.65     398.7  T
     SCC iter.                  ...        0 min,  0.000 sec
     gradient                   ...        0 min,  0.000 sec
 * total energy  :    -9.5909828 Eh     change       -0.1258982E-05 Eh
   gradient norm :     0.0006970 Eh/α   predicted    -0.1756714E-05 (  39.53%)
   displ. norm   :     0.0017759 α      lambda       -0.6357088E-06
   maximum displ.:     0.0017618 α      in ANC's #1, #2, #3, ...

   *** GEOMETRY OPTIMIZATION CONVERGED AFTER 6 ITERATIONS ***

------------------------------------------------------------------------
 total energy gain   :        -0.0427627 Eh      -26.8340 kcal/mol
 total RMSD          :         0.2818513 a0        0.1491 Å
 total power (kW/mol):       -18.7122209 (step)********** (real)
------------------------------------------------------------------------

 ANCopt (total)                0 d,  0 h,  0 min,  0.010 sec
 optimizer setup                ...        0 min,  0.000 sec (  0.954%)
 model hessian                  ...        0 min,  0.000 sec (  0.583%)
 ANC generation                 ...        0 min,  0.000 sec (  0.490%)
 coordinate transformation      ...        0 min,  0.000 sec (  0.081%)
 single point calculation       ...        0 min,  0.009 sec ( 93.645%)
 optimization log               ...        0 min,  0.000 sec (  0.939%)
 hessian update                 ...        0 min,  0.000 sec (  0.124%)
 rational function              ...        0 min,  0.000 sec (  1.145%)

================
 final structure:
================
3
 xtb: 6.2.2 (9d81278992624c895f80dd42a50cac0aa55982e2)
O        -0.00136226623780    0.34770744530016    0.00000000000000
N         1.11532464453278   -0.16948600082643    0.00000000000000
N        -1.11396237829498   -0.17822144447372    0.00000000000000

 Bond Distances (Angstroems)
 ---------------------------
O1-N2=1.2306         O1-N3=1.2306         N2-O1=1.2306         N3-O1=1.2306         
 O  N  Rav=1.2306 sigma=0.0000  Rmin=1.2306  Rmax=1.2306     2

 selected bond angles (degree)
 --------------------
N3-O1-N2=129.85                

 selected dihedral angles (degree)
 ---------------------------------

           -------------------------------------------------
          |                Final Singlepoint                |
           -------------------------------------------------

          ...................................................
          :                      SETUP                      :
          :.................................................:
          :  # basis functions                  12          :
          :  # atomic orbitals                  12          :
          :  # shells                            6          :
          :  # electrons                        16          :
          :  max. iterations                   250          :
          :  Hamiltonian                  GFN2-xTB          :
          :  restarted?                      false          :
          :  GBSA solvation                  false          :
          :  PC potential                    false          :
          :  electronic temp.          300.0000000     K    :
          :  accuracy                    1.0000000          :
          :  -> integral cutoff          0.2500000E+02      :
          :  -> integral neglect         0.1000000E-07      :
          :  -> SCF convergence          0.1000000E-05 Eh   :
          :  -> wf. convergence          0.1000000E-03 e    :
          :  Broyden damping             0.4000000          :
          ...................................................

 iter      E             dE          RMSdq      gap      omega  full diag
   1     -9.6209132 -0.962091E+01  0.324E-05    1.65       0.0  T
   2     -9.6209132 -0.213163E-12  0.144E-05    1.65    4020.8  T
   3     -9.6209132  0.330402E-12  0.125E-05    1.65    4629.6  T

   *** convergence criteria satisfied after 3 iterations ***

         #    Occupation            Energy/Eh            Energy/eV
      -------------------------------------------------------------
         1        2.0000           -0.8553949             -23.2765
       ...           ...                  ...                  ...
         3        2.0000           -0.7102341             -19.3265
         4        2.0000           -0.6924099             -18.8414
         5        2.0000           -0.5481677             -14.9164
         6        2.0000           -0.5240242             -14.2594
         7        1.9930           -0.4552177             -12.3871
         8        1.0070           -0.4457895             -12.1305
         9        1.0000           -0.3926624             -10.6849 (HOMO)
        10                         -0.3318779              -9.0309 (LUMO)
        11                          0.0617298               1.6798
        12                          0.3649171               9.9299
      -------------------------------------------------------------
                  HL-Gap            0.0607845 Eh            1.6540 eV
             Fermi-level           -0.4063869 Eh          -11.0583 eV

 transition dipole moment (au) for excitation:           8           9
     X       Y       Z   
   1.4710   0.0058  -0.0000  total (au/Debye):    1.471   3.739
 dE (eV)             :    1.446
 oscillator strength :  0.10839E+00

 SCC (total)                   0 d,  0 h,  0 min,  0.002 sec
 SCC setup                      ...        0 min,  0.000 sec (  3.834%)
 Dispersion                     ...        0 min,  0.000 sec (  0.243%)
 integral evaluation            ...        0 min,  0.000 sec ( 28.287%)
 zeroth order Hamiltonian       ...        0 min,  0.000 sec (  0.441%)
 iterations                     ...        0 min,  0.000 sec ( 20.100%)
 molecular gradient             ...        0 min,  0.000 sec ( 23.615%)
 printout                       ...        0 min,  0.000 sec ( 23.037%)

         :::::::::::::::::::::::::::::::::::::::::::::::::::::
         ::                     SUMMARY                     ::
         :::::::::::::::::::::::::::::::::::::::::::::::::::::
         :: total energy              -9.590982803582 Eh    ::
         :: gradient norm              0.000696061040 Eh/a0 ::
         :: HOMO-LUMO gap              1.654029599209 eV    ::
         ::.................................................::
         :: SCC energy                -9.620913248418 Eh    ::
         :: -> isotropic ES            0.002522535135 Eh    ::
         :: -> anisotropic ES          0.008446620970 Eh    ::
         :: -> anisotropic XC          0.009232765129 Eh    ::
         :: -> dispersion             -0.000694601156 Eh    ::
         :: repulsion energy           0.029930445547 Eh    ::
         :: add. restraining           0.000000000000 Eh    ::
         :::::::::::::::::::::::::::::::::::::::::::::::::::::

           ------------------------------------------------- 
          |                Numerical Hessian                |
           ------------------------------------------------- 
step length          :   0.00500
SCC accuracy         :   0.30000
Hessian scale factor :   1.00000
frozen atoms in %    :   0.00000    0
RMS gradient         :   0.00070
estimated CPU  time      0.00 min
estimated wall time      0.00 min

writing file <hessian>.

 projected vibrational frequencies (cm-1)
eigval :       -0.00    -0.00     0.00     0.00     0.00     0.00
eigval :      592.13  1284.42  1386.02
           -------------------------------------------------
          |                Property Printout                |
           -------------------------------------------------

    * Orbital Energies and Occupations

         #    Occupation            Energy/Eh            Energy/eV
      -------------------------------------------------------------
         1        2.0000           -0.8553949             -23.2765
         2        2.0000           -0.7961096             -21.6632
         3        2.0000           -0.7102341             -19.3265
         4        2.0000           -0.6924099             -18.8414
         5        2.0000           -0.5481677             -14.9164
         6        2.0000           -0.5240242             -14.2594
         7        1.9930           -0.4552177             -12.3871
         8        1.0070           -0.4457895             -12.1305
         9        1.0000           -0.3926624             -10.6849 (HOMO)
        10                         -0.3318779              -9.0309 (LUMO)
        11                          0.0617298               1.6798
        12                          0.3649171               9.9299
      -------------------------------------------------------------
                  HL-Gap            0.0607845 Eh            1.6540 eV
             Fermi-level           -0.4063869 Eh          -11.0583 eV

     #   Z        covCN         q      C6AA      α(0)
     1   8 O      1.845     0.238    11.734     4.626
     2   7 N      0.952    -0.119    23.384     6.972
     3   7 N      0.952    -0.119    23.384     6.972

 Mol. C6AA /au·bohr⁶  :        171.373904
 Mol. C8AA /au·bohr⁸  :       3695.054884
 Mol. α(0) /au        :         18.569971


Wiberg/Mayer (AO) data.
largest (>0.10) Wiberg bond orders for each atom
          total WBO             WBO to atom ...
     1  O   2.784        N    2 1.392    N    3 1.392
     2  N   2.019        O    1 1.392    N    3 0.627
     3  N   2.019        O    1 1.392    N    2 0.627

MOs/occ written to file <molden.input>


molecular dipole:
                 x           y           z       tot (Debye)
 q only:       -0.001       0.235      -0.000
   full:       -0.001       0.383      -0.000       0.974
molecular quadrupole (traceless):
                xx          xy          yy          xz          yz          zz
 q only:       -1.097      -0.007       0.606       0.000      -0.000       0.490
  q+dip:       -3.679      -0.021       1.625       0.000       0.000       2.054
   full:       -3.797      -0.021       1.681       0.000       0.000       2.116

           -------------------------------------------------
          |                Geometry Summary                 |
           -------------------------------------------------

      molecular mass/u    :       44.0128113
   center of mass at/Å    :       -0.0000616       0.0157426      -0.0000000
  moments of inertia/u·Å² :        0.2770179E+01   0.3480524E+02   0.3757541E+02
rotational constants/cm⁻¹ :        0.6085395E+01   0.4843419E+00   0.4486346E+00

 * 2 selected distances

     #   Z        #   Z                                     value/Å
     1   8 O      2   7 N                                 1.2306416 (min)
     1   8 O      3   7 N                                 1.2306422 (max)

 * 1 distinct bonds (by element types)

   Z      Z             #   av. dist./Å        max./Å        min./Å
   7 N    8 O           2     1.2306419     1.2306422     1.2306416

           -------------------------------------------------
          |               Frequency Printout                |
           -------------------------------------------------
 projected vibrational frequencies (cm-1)
eigval :       -0.00    -0.00     0.00     0.00     0.00     0.00
eigval :      592.13  1284.42  1386.02
 reduced masses (amu)
   1: 14.37   2: 16.00   3: 14.44   4: 14.40   5: 14.36   6: 14.01   7: 14.77   8: 14.52
Molecule has the following symmetry elements: (C2) 2*(sigma) 
It seems to be the C2v point group
   9: 15.18
 IR intensities (amu)
   1:  0.08   2:  0.39   3:  0.05   4:  0.16   5:  0.16   6:  0.19   7:  0.48   8:  0.38
   9:  1.19
 Raman intensities (amu)
   1:  0.00   2:  0.00   3:  0.00   4:  0.00   5:  0.00   6:  0.00   7:  0.00   8:  0.00
   9:  0.00
 output can be read by thermo (or use thermo option).
 writing <g98.out> molden fake output.
 recommended (thermochemical) frequency scaling factor: 1.0
           -------------------------------------------------
          |             Thermodynamic Functions             |
           -------------------------------------------------

c2v symmetry found (for desy threshold:  0.10E+00) used in thermo

          ...................................................
          :                      SETUP                      :
          :.................................................:
          :  # frequencies                           3      :
          :  # imaginary freq.                       0      :
          :  linear?                             false      :
          :  only rotor calc.                    false      :
          :  symmetry                              c2v      :
          :  rotational number                       2      :
          :  scaling factor                  1.0000000      :
          :  rotor cutoff                   50.0000000 cm⁻¹ :
          :  imag. cutoff                  -20.0000000 cm⁻¹ :
          :.................................................:

    mode    ω/cm⁻¹     T·S(HO)/kcal·mol⁻¹    T·S(FR)/kcal·mol⁻¹   T·S(vib)
   ------------------------------------------------------------------------
   ------------------------------------------------------------------------

   temp. (K)  partition function   enthalpy   heat capacity  entropy
                                   cal/mol     cal/K/mol   cal/K/mol   J/K/mol
 298.15  VIB   1.06                  115.552      1.315      0.512
         ROT  0.230E+04              888.752      2.981     18.363
         INT  0.245E+04             1004.305      4.296     18.874
         TR   0.283E+27             1481.254      4.968     37.255
         TOT                        2485.5585     9.2644    56.1292   234.8444

   temp. (K)  partition function   enthalpy   heat capacity  entropy
                                   cal/mol     cal/K/mol   cal/K/mol   J/K/mol
 120.00  VIB   1.00                    1.400      0.083      0.013
         ROT   587.                  357.707      2.981     15.650
         INT   588.                  359.107      3.064     15.663
         TR   0.721E+26              596.178      4.968     32.735
         TOT                         955.2846     8.0320    48.3986   202.4997

   temp. (K)  partition function   enthalpy   heat capacity  entropy
                                   cal/mol     cal/K/mol   cal/K/mol   J/K/mol
 100.00  VIB   1.00                    0.338      0.029      0.004
         ROT   447.                  298.089      2.981     15.106
         INT   447.                  298.427      3.010     15.110
         TR   0.549E+26              496.815      4.968     31.830
         TOT                         795.2420     7.9778    46.9402   196.3979

   temp. (K)  partition function   enthalpy   heat capacity  entropy
                                   cal/mol     cal/K/mol   cal/K/mol   J/K/mol
  80.00  VIB   1.00                    0.040      0.005      0.001
         ROT   320.                  238.471      2.981     14.441
         INT   320.                  238.511      2.986     14.442
         TR   0.393E+26              397.452      4.968     30.722
         TOT                         635.9634     7.9544    45.1637   188.9651

   temp. (K)  partition function   enthalpy   heat capacity  entropy
                                   cal/mol     cal/K/mol   cal/K/mol   J/K/mol
  60.00  VIB   1.00                    0.001      0.000     -0.000
         ROT   208.                  178.853      2.981     13.584
         INT   208.                  178.855      2.981     13.584
         TR   0.255E+26              298.089      4.968     29.293
         TOT                         476.9436     7.9493    42.8771   179.3978

   temp. (K)  partition function   enthalpy   heat capacity  entropy
                                   cal/mol     cal/K/mol   cal/K/mol   J/K/mol
  40.00  VIB   1.00                    0.000      0.000     -0.000
         ROT   113.                  119.236      2.981     12.375
         INT   113.                  119.236      2.981     12.375
         TR   0.139E+26              198.726      4.968     27.280
         TOT                         317.9616     7.9490    39.6550   165.9165

   temp. (K)  partition function   enthalpy   heat capacity  entropy
                                   cal/mol     cal/K/mol   cal/K/mol   J/K/mol
  20.00  VIB   1.00                    0.000      0.000     -0.000
         ROT   39.9                   59.618      2.981     10.309
         INT   39.9                   59.618      2.981     10.309
         TR   0.491E+25               99.363      4.968     23.838
         TOT                         158.9808     7.9490    34.1468   142.8701

   temp. (K)  partition function   enthalpy   heat capacity  entropy
                                   cal/mol     cal/K/mol   cal/K/mol   J/K/mol
  10.00  VIB   1.00                    0.000      0.000     -0.000
         ROT   14.1                   29.809      2.981      8.243
         INT   14.1                   29.809      2.981      8.242
         TR   0.174E+25               49.681      4.968     20.396
         TOT                          79.4904     7.9490    28.6386   119.8237

       T/K    H(0)-H(T)+PV         H(T)/Eh          T*S/Eh         G(T)/Eh
   ------------------------------------------------------------------------
    298.15    0.396099E-02    0.113937E-01    0.266688E-01   -0.152751E-01
    120.00    0.152234E-02    0.895502E-02    0.925537E-02   -0.300346E-03
    100.00    0.126730E-02    0.869998E-02    0.748040E-02    0.121958E-02
     80.00    0.101347E-02    0.844615E-02    0.575784E-02    0.268831E-02
     60.00    0.760058E-03    0.819274E-02    0.409974E-02    0.409300E-02
     40.00    0.506704E-03    0.793938E-02    0.252777E-02    0.541161E-02
     20.00    0.253352E-03    0.768603E-02    0.108833E-02    0.659770E-02
     10.00    0.126676E-03    0.755936E-02    0.456385E-03    0.710297E-02 (used)
   ------------------------------------------------------------------------

         :::::::::::::::::::::::::::::::::::::::::::::::::::::
         ::                  THERMODYNAMIC                  ::
         :::::::::::::::::::::::::::::::::::::::::::::::::::::
         :: total free energy          -9.583879832369 Eh   ::
         ::.................................................::
         :: total energy               -9.590982803582 Eh   ::
         :: zero point energy           0.007432679752 Eh   ::
         :: G(RRHO) w/o ZPVE           -0.000329708539 Eh   ::
         :: G(RRHO) contrib.            0.007102971213 Eh   ::
         :::::::::::::::::::::::::::::::::::::::::::::::::::::

optimized geometry written to: xtbopt.xyz


           -------------------------------------------------
          | TOTAL ENERGY               -9.590982803582 Eh   |
          | TOTAL ENTHALPY             -9.583423447815 Eh   |
          | TOTAL FREE ENERGY          -9.583879832369 Eh   |
          | GRADIENT NORM               0.000696050060 Eh/α |
          | HOMO-LUMO GAP               1.654029661849 eV   |
           -------------------------------------------------

------------------------------------------------------------------------
 * finished run on 2020/05/12 at 11:43:54.520     
------------------------------------------------------------------------
 total:
 * wall-time:     0 d,  0 h,  0 min,  0.058 sec
 *  cpu-time:     0 d,  0 h,  0 min,  0.056 sec
 * ratio c/w:     0.962 speedup
 SCF:
 * wall-time:     0 d,  0 h,  0 min,  0.003 sec
 *  cpu-time:     0 d,  0 h,  0 min,  0.003 sec
 * ratio c/w:     1.000 speedup
 ANC optimizer:
 * wall-time:     0 d,  0 h,  0 min,  0.013 sec
 *  cpu-time:     0 d,  0 h,  0 min,  0.013 sec
 * ratio c/w:     0.959 speedup
 numerical hessian:
 * wall-time:     0 d,  0 h,  0 min,  0.023 sec
 *  cpu-time:     0 d,  0 h,  0 min,  0.023 sec
 * ratio c/w:     0.986 speedup

