 Entering Gaussian System
 *********************************************
 Gaussian 98:
 frequency output generated by the xtb code
 *********************************************
                         Standard orientation:
 --------------------------------------------------------------------
  Center     Atomic     Atomic              Coordinates (Angstroms)
  Number     Number      Type              X           Y           Z
 --------------------------------------------------------------------
    1          8             0       -0.001360    0.347707   -0.000001
    2          7             0        1.115324   -0.169492   -0.000004
    3          7             0       -1.113963   -0.178216    0.000004
 --------------------------------------------------------------------
     1 basis functions        1 primitive gaussians
     1 alpha electrons        1 beta electrons

 Harmonic frequencies (cm**-1), IR intensities (KM/Mole),
 Raman scattering activities (A**4/amu), Raman depolarization ratios,
 reduced masses (AMU), force constants (mDyne/A) and normal coordinates:
                      1                      2                      3
                        a                      a                      a 
 Frequencies --   592.1251              1284.4202              1386.0240
 Red. masses --    14.7663                14.5154                15.1815
 Frc consts  --     0.0000                 0.0000                 0.0000
 IR Inten    --     0.4751                 0.3764                 1.1911
 Raman Activ --     0.0000                 0.0000                 0.0000
 Depolar     --     0.0000                 0.0000                 0.0000
 Atom AN      X      Y      Z        X      Y      Z        X      Y      Z
   1   8     0.00  -0.62   0.00    -0.00   0.51  -0.00     0.77   0.00  -0.00
   2   7     0.45   0.33  -0.00     0.55  -0.27  -0.00    -0.41   0.19   0.00
   3   7    -0.45   0.33   0.00    -0.55  -0.27   0.00    -0.41  -0.19   0.00
