[Molden Format]
[Title]
[Atoms] AU
O      1     8 -0.25708694435690E-02  0.65707179561660E+00 -0.11378205654319E-05
N      2     7  0.21076562456314E+01 -0.32029312947052E+00 -0.67981163440292E-05
N      3     7 -0.21050853761878E+01 -0.33677866614608E+00  0.79359369094612E-05
[GTO]
           1 0
 s           4   1.0000000000000000     
   69.137961906196551      -0.20478756370077797     
   11.906129132707308      -0.24997023136827334     
  0.95670827744340703       0.40025880240639616     
  0.36462520496073686       0.15952206667693555     
 p           4   1.0000000000000000     
   8.2124193257781641        1.1321556799186829     
   2.1293576997098116        1.0476840782254817     
  0.75066448202360914       0.54956508217158984     
  0.29885246543283073        8.2908486592766617E-002

           2 0
 s           4   1.0000000000000000     
   63.594024466941008      -0.19234388414721629     
   10.951417231523665      -0.23478107924953728     
  0.87999310257376984       0.37593753901700888     
  0.33538715296521110       0.14982889271862770     
 p           4   1.0000000000000000     
   7.2965040481495080       0.97658666315667420     
   1.8918745450712575       0.90372226730345739     
  0.66694432110824120       0.47404958461536373     
  0.26552202674130870        7.1516067715011844E-002

           3 0
 s           4   1.0000000000000000     
   63.594024466941008      -0.19234388414721629     
   10.951417231523665      -0.23478107924953728     
  0.87999310257376984       0.37593753901700888     
  0.33538715296521110       0.14982889271862770     
 p           4   1.0000000000000000     
   7.2965040481495080       0.97658666315667420     
   1.8918745450712575       0.90372226730345739     
  0.66694432110824120       0.47404958461536373     
  0.26552202674130870        7.1516067715011844E-002

[MO]
Sym=     1a
Ene=  -0.85539485911816315     
Spin= Alpha
Occup=     2.00000000
           1  0.71603207665853885     
           2   5.0413625352219420E-004
           3 -0.12869141723781463     
           4   2.5673016733966097E-007
           5  0.17033717758843084     
           6 -0.18134202967363749     
           7   5.6678347520064822E-002
           8   5.3336753638915184E-007
           9  0.17033635189779664     
          10  0.18089240645743734     
          11   5.8095562454129793E-002
          12  -7.1813542462501886E-007
Sym=     2a
Ene=  -0.79610957807609495     
Spin= Alpha
Occup=     2.00000000
           1   1.0898178652701555E-006
           2 -0.60471137424011967     
           3  -2.3663789291885730E-003
           4   2.1264749965777275E-006
           5 -0.31380201654656692     
           6  0.15425692292696716     
           7 -0.13009533008458996     
           8  -3.0139697286245198E-007
           9  0.31380198744151966     
          10  0.15323454820657686     
          11  0.13129864884621903     
          12  -7.4463326613503326E-007
Sym=     3a
Ene=  -0.71023410524387787     
Spin= Alpha
Occup=     2.00000000
           1 -0.37731451447627506     
           2   2.8975405082586102E-003
           3 -0.74049181821190835     
           4   1.1528181736204154E-006
           5  0.16925264814347254     
           6 -0.12478121284334945     
           7 -0.20910588457994714     
           8   7.4623937851882532E-007
           9  0.16925247488346323     
          10  0.12641384866495797     
          11 -0.20812223490882273     
          12  -1.0976048106247573E-007
Sym=     4a
Ene=  -0.69240985212365702     
Spin= Alpha
Occup=     2.00000000
           1   8.0314443869732205E-008
           2  -2.8346849548118027E-006
           3  -1.2909507278710553E-006
           4 -0.80393495207876564     
           5  -1.1728471690484022E-008
           6  -1.0296008115533926E-006
           7  -4.9292902666394563E-007
           8 -0.29774099113762231     
           9  -2.8948459124332065E-008
          10  -1.0458158344193462E-006
          11  -4.7084706073259688E-007
          12 -0.29774015601938997     
Sym=     5a
Ene=  -0.54816768398448001     
Spin= Alpha
Occup=     2.00000000
           1 -0.13905743044477403     
           2  -5.6448837927922069E-004
           3  0.14408828103013002     
           4  -2.5967971532283859E-007
           5  0.61815204886080755     
           6  0.33796255051806517     
           7   5.5121540308750896E-002
           8  -1.3364421028439994E-006
           9  0.61814968181930263     
          10 -0.33838138690334080     
          11   5.2476129455306733E-002
          12   1.1630324981980343E-006
Sym=     6a
Ene=  -0.52402424037070050     
Spin= Alpha
Occup=     2.00000000
           1  -6.5000059116355407E-007
           2  0.21934233741865922     
           3   8.5823729444006475E-004
           4  -8.1197488464093116E-007
           5 -0.54197659825894784     
           6 -0.30185992079150009     
           7  0.32057781557287007     
           8   5.0669884679350862E-007
           9  0.54197977258532060     
          10 -0.29934316220777019     
          11 -0.32292968519407078     
          12   1.6378949528832876E-006
Sym=     7a
Ene=  -0.45521765881650794     
Spin= Alpha
Occup=     1.99304964
           1   1.1805514592242938E-008
           2   1.8512393381785503E-008
           3   2.6130365333405092E-008
           4   8.7745855384702158E-007
           5  -6.0159644535754649E-008
           6  -2.6411930561670116E-006
           7  -1.4120231426916050E-006
           8 -0.71284048007042833     
           9  -5.1786152796279693E-008
          10   2.4094283288863747E-006
          11   1.3541777586669911E-006
          12  0.71284032029739675     
Sym=     8a
Ene=  -0.44578946099862071     
Spin= Alpha
Occup=     1.00695036
           1   3.3966597545558030E-007
           2   6.9620281534961859E-002
           3   2.7326540573722932E-004
           4  -2.2973824580213285E-007
           5  -5.0504497690493040E-002
           6 -0.46894353122540372     
           7 -0.54585404855166908     
           8   2.7636142846202245E-006
           9   5.0504967926143167E-002
          10 -0.47320167948246122     
          11  0.54216620358424916     
          12   5.2080545794595216E-007
Sym=     9a
Ene=  -0.39266239378955692     
Spin= Alpha
Occup=     1.00000000
           1  0.27087682055516493     
           2  -1.8087785493375321E-003
           3  0.46223249821015078     
           4  -7.9154770581831059E-007
           5   4.5125596895792007E-002
           6  -3.0474856754214786E-002
           7 -0.67553469263207944     
           8   1.3011893347833257E-006
           9   4.5125805148906323E-002
          10   3.5761238528275514E-002
          11 -0.67527683930301652     
          12   1.0107545914856940E-006
Sym=    10a
Ene=  -0.33187792218660433     
Spin= Alpha
Occup=     0.00000000
           1   1.0357722590158956E-008
           2  -2.2654227409047441E-006
           3  -1.1230589147605157E-006
           4 -0.65025775980927403     
           5   1.7954268530707692E-008
           6   2.3103977759292295E-006
           7   1.1237681561985429E-006
           8  0.66143303036014145     
           9  -2.7756355334702314E-008
          10   2.3239372246877406E-006
          11   1.1643136975275707E-006
          12  0.66143350547655055     
Sym=    11a
Ene=    6.1729827982487662E-002
Spin= Alpha
Occup=     0.00000000
           1  0.87912206417492278     
           2   2.3968867911879650E-003
           3 -0.61302681780710622     
           4   1.0552768128538798E-006
           5 -0.39344673747776798     
           6  0.69093642907348451     
           7 -0.14175154931047687     
           8  -2.1729325984975419E-006
           9 -0.39344841767357858     
          10 -0.68980793452080713     
          11 -0.14715639008705086     
          12   2.6735106687073801E-006
Sym=    12a
Ene=   0.36491713319969177     
Spin= Alpha
Occup=     0.00000000
           1  -2.4705449796068772E-006
           2  -1.1037090418037090     
           3  -4.3176578738397435E-003
           4   3.8636291421367109E-006
           5  0.52539505156426558     
           6 -0.57790877530526474     
           7  0.39212267177765214     
           8   1.3386775436151661E-006
           9 -0.52539280882187533     
          10 -0.57481935136589457     
          11 -0.39663254501661105     
          12   2.7049443590219676E-006
