3
 energy: -9.548220152226 gnorm: 0.177915109988 xtb: 6.2.2 (9d81278992624c895f80dd42a50cac0aa55982e2)
O        -0.00216400000000    0.55226000000000    0.00000000000000
N         1.07115600000000   -0.27193700000000    0.00000000000000
N        -1.06899200000000   -0.28032300000000    0.00000000000000
3
 energy: -9.577148245230 gnorm: 0.126440514408 xtb: 6.2.2 (9d81278992624c895f80dd42a50cac0aa55982e2)
O        -0.00178356900121    0.45517159242963    0.00000000000000
N         1.10698493345954   -0.22325165978533    0.00000000000000
N        -1.10520136445833   -0.23191993264430    0.00000000000000
3
 energy: -9.588981297034 gnorm: 0.061258734514 xtb: 6.2.2 (9d81278992624c895f80dd42a50cac0aa55982e2)
O        -0.00124279992613    0.31716751452918    0.00000000000000
N         1.10734397372617   -0.15424715146680    0.00000000000000
N        -1.10610117380004   -0.16292036306238    0.00000000000000
3
 energy: -9.590901696870 gnorm: 0.009770842404 xtb: 6.2.2 (9d81278992624c895f80dd42a50cac0aa55982e2)
O        -0.00135031570583    0.34407961820287    0.00000000000000
N         1.12348285879211   -0.16764097322970    0.00000000000000
N        -1.12213254308628   -0.17643864497316    0.00000000000000
3
 energy: -9.590981544604 gnorm: 0.001304282647 xtb: 6.2.2 (9d81278992624c895f80dd42a50cac0aa55982e2)
O        -0.00135922915938    0.34668410478394    0.00000000000000
N         1.11706896609968   -0.16896786618493    0.00000000000000
N        -1.11570973694029   -0.17771623859902    0.00000000000000
3
 energy: -9.590982803585 gnorm: 0.000696974804 xtb: 6.2.2 (9d81278992624c895f80dd42a50cac0aa55982e2)
O        -0.00136226623780    0.34770744530016    0.00000000000000
N         1.11532464453278   -0.16948600082643    0.00000000000000
N        -1.11396237829498   -0.17822144447372    0.00000000000000
