$hessian                                                                        
        0.6857423479   0.0013744345  -0.0000023961  -0.3442930619   0.1597438878
        0.0000009230  -0.3414492860  -0.1611183222   0.0000014731
        0.0013744345   0.3359305275  -0.0000005911   0.2027972084  -0.1665399085
       -0.0000004172  -0.2041716428  -0.1693906190   0.0000010083
       -0.0000023961  -0.0000005911   0.0000000000   0.0000008479  -0.0000002669
       -0.0000000000   0.0000015482   0.0000008580  -0.0000000000
       -0.3442930619   0.2027972084   0.0000008479   0.4719840361  -0.1805899932
       -0.0000013324  -0.1276909742  -0.0222072151   0.0000004845
        0.1597438878  -0.1665399085  -0.0000002669  -0.1805899932   0.1200968473
        0.0000004208   0.0208461055   0.0464430612  -0.0000001538
        0.0000009230  -0.0000004172  -0.0000000000  -0.0000013324   0.0000004208
        0.0000000000   0.0000004093  -0.0000000035  -0.0000000000
       -0.3414492860  -0.2041716428   0.0000015482  -0.1276909742   0.0208461055
        0.0000004093   0.4691402602   0.1833255374  -0.0000019576
       -0.1611183222  -0.1693906190   0.0000008580  -0.0222072151   0.0464430612
       -0.0000000035   0.1833255374   0.1229475578  -0.0000008545
        0.0000014731   0.0000010083  -0.0000000000   0.0000004845  -0.0000001538
       -0.0000000000  -0.0000019576  -0.0000008545   0.0000000000
