4
 energy: -8.887121916690 gnorm: 0.165736820965 xtb: 6.2.2 (9d81278992624c895f80dd42a50cac0aa55982e2)
C        -0.78307000000000   -0.64315500000000   -0.09357300000000
C        -0.66085800000000    0.85848100000000   -0.15780400000000
C         0.80498400000000    0.61468800000000    0.09880700000000
N         0.63894300000000   -0.83001400000000    0.15257000000000
4
 energy: -8.908550532138 gnorm: 0.094525968030 xtb: 6.2.2 (9d81278992624c895f80dd42a50cac0aa55982e2)
C        -0.74151769637970   -0.61271907047992   -0.08839007084301
C        -0.64232987722771    0.83441377952617   -0.15338939576330
C         0.76579846526526    0.58117419537199    0.09420919161163
N         0.61804810834215   -0.80286890441824    0.14757027499468
4
 energy: -8.906979783541 gnorm: 0.151607008833 xtb: 6.2.2 (9d81278992624c895f80dd42a50cac0aa55982e2)
C        -0.63317684791013   -0.53496828319269   -0.07438711349766
C        -0.64684127440320    0.84033832074082   -0.15488069739387
C         0.66510532360043    0.49335710657404    0.08288931477542
N         0.61491179871291   -0.79872714412217    0.14637849611612
4
 energy: -8.917468558342 gnorm: 0.019087268033 xtb: 6.2.2 (9d81278992624c895f80dd42a50cac0aa55982e2)
C        -0.69055061014680   -0.57652433295767   -0.08015439899060
C        -0.65011615815574    0.84480161941843   -0.15702899036801
C         0.71855375385140    0.53957931970776    0.09054725751664
N         0.62211201445113   -0.80785660616853    0.14663613184198
4
 energy: -8.920244537849 gnorm: 0.031507778445 xtb: 6.2.2 (9d81278992624c895f80dd42a50cac0aa55982e2)
C        -0.68847537875139   -0.57107271455818   -0.04910271242185
C        -0.64668932178346    0.84497345999241   -0.18643953403151
C         0.70826023495274    0.53523421933383    0.12010052310354
N         0.62690346558211   -0.80913496476807    0.11544172334982
4
 energy: -8.904864127083 gnorm: 0.134841697577 xtb: 6.2.2 (9d81278992624c895f80dd42a50cac0aa55982e2)
C        -0.72089191736701   -0.56494071400887    0.12221884244620
C        -0.61861883193985    0.83490178400727   -0.35228989210094
C         0.68413066406909    0.54793066433549    0.29242572532914
N         0.65537908523777   -0.81789173433389   -0.06235467567440
4
 energy: -8.925347006109 gnorm: 0.002322323653 xtb: 6.2.2 (9d81278992624c895f80dd42a50cac0aa55982e2)
C        -0.69195680234917   -0.56113982215322    0.02079158254369
C        -0.63304538332799    0.83783993386182   -0.25241223598501
C         0.68912168341737    0.53276627815930    0.18809795949346
N         0.63587950225979   -0.80946638986791    0.04352269394785
4
 energy: -8.925350372215 gnorm: 0.000450758371 xtb: 6.2.2 (9d81278992624c895f80dd42a50cac0aa55982e2)
C        -0.69197298875697   -0.56122426631729    0.02103867550817
C        -0.63245713549495    0.83711486551089   -0.25251073216755
C         0.68916778572224    0.53273199610978    0.18835255149759
N         0.63526133852969   -0.80862259530338    0.04311950516179
