$hessian                                                                        
        0.3805174941   0.0152960501   0.0017306920   0.0327701244  -0.0123762998
        0.0243196756  -0.1178524048  -0.1000995143  -0.0385196681  -0.2954352137
        0.0971797641   0.0124693004
        0.0152960501   0.3249214860  -0.0497486156  -0.0036077151  -0.2486783462
        0.0605657588  -0.0878613948  -0.0744153470  -0.0237310399   0.0761730599
       -0.0018277928   0.0129138967
        0.0017306920  -0.0497486156   0.0497933493   0.0089838947   0.0428283198
       -0.0479634368  -0.0024606834   0.0033133873   0.0414018718  -0.0082539033
        0.0036069085  -0.0432317843
        0.0327701244  -0.0036077151   0.0089838947   0.2687918396  -0.1179582098
        0.0762013222  -0.2184656631   0.0575888792  -0.0628583692  -0.0830963009
        0.0639770457  -0.0223268477
       -0.0123762998  -0.2486783462   0.0428283198  -0.1179582098   0.3456280121
       -0.0794282437   0.0672384842   0.0204395844   0.0196841676   0.0630960254
       -0.1173892503   0.0169157564
        0.0243196756   0.0605657588  -0.0479634368   0.0762013222  -0.0794282437
        0.0750609298  -0.0825414418   0.0074218868  -0.0659352691  -0.0179795559
        0.0114405981   0.0388377761
       -0.1178524048  -0.0878613948  -0.0024606834  -0.2184656631   0.0672384842
       -0.0825414418   0.3138495029   0.0169548500   0.0901888717   0.0224685651
        0.0036680606  -0.0051867464
       -0.1000995143  -0.0744153470   0.0033133873   0.0575888792   0.0204395844
        0.0074218868   0.0169548500   0.3690846394   0.0269640814   0.0255557851
       -0.3151088769  -0.0376993555
       -0.0385196681  -0.0237310399   0.0414018718  -0.0628583692   0.0196841676
       -0.0659352691   0.0901888717   0.0269640814   0.0722331090   0.0111891655
       -0.0229172091  -0.0476997116
       -0.2954352137   0.0761730599  -0.0082539033  -0.0830963009   0.0630960254
       -0.0179795559   0.0224685651   0.0255557851   0.0111891655   0.3560629495
       -0.1648248703   0.0150442936
        0.0971797641  -0.0018277928   0.0036069085   0.0639770457  -0.1173892503
        0.0114405981   0.0036680606  -0.3151088769  -0.0229172091  -0.1648248703
        0.4343259199   0.0078697025
        0.0124693004   0.0129138967  -0.0432317843  -0.0223268477   0.0169157564
        0.0388377761  -0.0051867464  -0.0376993555  -0.0476997116   0.0150442936
        0.0078697025   0.0520937198
