[Molden Format]
[Title]
[Atoms] AU
N      1     7 -0.13018832778092E+01 -0.11513316693463E+01  0.76481972429803E-02
C      2     6  0.53454867775599E+00  0.45789029441954E+00  0.16970094051518E+01
C      3     6  0.50857116920562E+00  0.46469800068309E+00 -0.17031311187972E+01
C      4     6 -0.12266253653405E+01  0.16537493025082E+01  0.12679824922378E-01
C      5     6  0.14853869064687E+01 -0.14250059282513E+01 -0.14204418787383E-01
[GTO]
           1 0
 s           4   1.0000000000000000     
   63.594024466941008      -0.19234388414721629     
   10.951417231523665      -0.23478107924953728     
  0.87999310257376984       0.37593753901700888     
  0.33538715296521110       0.14982889271862770     
 p           4   1.0000000000000000     
   7.2965040481495080       0.97658666315667420     
   1.8918745450712575       0.90372226730345739     
  0.66694432110824120       0.47404958461536373     
  0.26552202674130870        7.1516067715011844E-002

           2 0
 s           4   1.0000000000000000     
   51.049363095579913      -0.16312063210127389     
   8.7911227406887544      -0.19911024581000730     
  0.70640422258929825       0.31882047753655751     
  0.26922813413411617       0.12706504184240380     
 p           4   1.0000000000000000     
   5.8263656140800002       0.73716451545209605     
   1.5106896018720002       0.68216371614850257     
  0.53256483288000001       0.35783053929253711     
  0.21202323690600003        5.3983030275847881E-002

           3 0
 s           4   1.0000000000000000     
   51.049363095579913      -0.16312063210127389     
   8.7911227406887544      -0.19911024581000730     
  0.70640422258929825       0.31882047753655751     
  0.26922813413411617       0.12706504184240380     
 p           4   1.0000000000000000     
   5.8263656140800002       0.73716451545209605     
   1.5106896018720002       0.68216371614850257     
  0.53256483288000001       0.35783053929253711     
  0.21202323690600003        5.3983030275847881E-002

           4 0
 s           4   1.0000000000000000     
   51.049363095579913      -0.16312063210127389     
   8.7911227406887544      -0.19911024581000730     
  0.70640422258929825       0.31882047753655751     
  0.26922813413411617       0.12706504184240380     
 p           4   1.0000000000000000     
   5.8263656140800002       0.73716451545209605     
   1.5106896018720002       0.68216371614850257     
  0.53256483288000001       0.35783053929253711     
  0.21202323690600003        5.3983030275847881E-002

           5 0
 s           4   1.0000000000000000     
   51.049363095579913      -0.16312063210127389     
   8.7911227406887544      -0.19911024581000730     
  0.70640422258929825       0.31882047753655751     
  0.26922813413411617       0.12706504184240380     
 p           4   1.0000000000000000     
   5.8263656140800002       0.73716451545209605     
   1.5106896018720002       0.68216371614850257     
  0.53256483288000001       0.35783053929253711     
  0.21202323690600003        5.3983030275847881E-002

[MO]
Sym=     1a
Ene=  -0.79408837528720821     
Spin= Alpha
Occup=     2.00000000
           1  0.27128582960002751     
           2  0.17727633687365174     
           3  0.15645971819761004     
           4  -1.0419852653756796E-003
           5  0.24451078702096574     
           6  -4.5617888535180021E-002
           7  -3.9265548444519981E-002
           8 -0.12106206289079333     
           9  0.24451137118251770     
          10  -4.3764118365625174E-002
          11  -3.9751461750644916E-002
          12  0.12158712998632654     
          13  0.22134826557881443     
          14   7.5674424905834661E-002
          15 -0.10979179481093659     
          16  -7.9787514522191530E-004
          17  0.22147916253234670     
          18  -9.9519310328527441E-002
          19   8.8864484380095587E-002
          20   9.3837096192547493E-004
Sym=     2a
Ene=  -0.68404794797446200     
Spin= Alpha
Occup=     2.00000000
           1  -2.1125478050411464E-003
           2 -0.24129682308875181     
           3  0.27312548477067766     
           4   2.3903232931137310E-003
           5   9.9913077232005490E-004
           6 -0.16923701661510623     
           7  0.19275379257504874     
           8   1.2497249827319549E-003
           9   9.9927659888024542E-004
          10 -0.16923131052414170     
          11  0.19275298473743510     
          12   2.1080595863030298E-003
          13  0.41706930366376865     
          14  -4.5773703886833779E-003
          15  -6.7553793874498919E-002
          16  -1.0025097277539753E-004
          17 -0.41646418056267476     
          18   6.8592613180388562E-002
          19  -2.6125368544283774E-003
          20  -5.2940617790357323E-004
Sym=     3a
Ene=  -0.66604621220362714     
Spin= Alpha
Occup=     2.00000000
           1  -4.9151646085476308E-006
           2  -3.0282907722183430E-003
           3   7.9241014235567110E-004
           4 -0.39624356909627290     
           5 -0.40884071020776647     
           6   8.3259193060382736E-002
           7   7.3990019141703625E-002
           8  -5.3418735324089875E-002
           9  0.40884350197844188     
          10  -8.4065736306390484E-002
          11  -7.3776290177443651E-002
          12  -5.2435646403141481E-002
          13   1.1807337025297436E-006
          14  -2.0118160117564665E-003
          15   5.2807692058378102E-004
          16 -0.26349773490109341     
          17   1.3413264981451842E-006
          18  -2.0132024364217320E-003
          19   5.2900680014722923E-004
          20 -0.26358937182852277     
Sym=     4a
Ene=  -0.64160183690632244     
Spin= Alpha
Occup=     2.00000000
           1  0.55450371883479277     
           2  -3.5696822006198864E-002
           3  -2.9583770732989543E-002
           4   2.0962935282748684E-004
           5 -0.21837021992249009     
           6 -0.18178084644261860     
           7 -0.15945734798015571     
           8   7.9320667378000184E-002
           9 -0.21836531157769828     
          10 -0.18297826965180619     
          11 -0.15914560576420067     
          12  -7.7172795049409396E-002
          13  -8.4672197525515677E-002
          14 -0.21733752877778478     
          15 -0.16642369458481973     
          16   1.3255562594039847E-003
          17  -8.7709036114569039E-002
          18 -0.19246361575650681     
          19 -0.19468841628682487     
          20   1.0789185106842129E-003
Sym=     5a
Ene=  -0.55074816462610332     
Spin= Alpha
Occup=     2.00000000
           1   7.3398344971032758E-008
           2   3.5264531141011239E-005
           3  -2.2142437108551946E-005
           4   2.7007729931787425E-003
           5  -1.5114068010161595E-003
           6  0.27079645127911883     
           7 -0.30899725692500990     
           8  -3.1697542581661420E-003
           9   1.5114318034926046E-003
          10 -0.27081518292283985     
          11  0.30901219916641526     
          12   2.2055318019330249E-003
          13   6.1158493246818672E-006
          14  -3.2782797003934462E-003
          15   8.7429324381275021E-004
          16 -0.43049985421179621     
          17  -5.8730126254434818E-006
          18   3.2657838772342639E-003
          19  -8.6864548547984234E-004
          20  0.42921989093852275     
Sym=     6a
Ene=  -0.53969460420076132     
Spin= Alpha
Occup=     2.00000000
           1   1.7943842349492801E-003
           2  0.34985324555071073     
           3 -0.40048942136727739     
           4  -3.4748672565622402E-003
           5  -1.8213841892989672E-004
           6 -0.14398345283566938     
           7  0.16547400630671241     
           8   1.2610834880788027E-003
           9  -1.8225619828474911E-004
          10 -0.14395896232172861     
          11  0.16544839452403415     
          12   1.6014456629498790E-003
          13  0.15500059048408962     
          14  0.27753648835775541     
          15  0.33236586508641769     
          16  -1.4375156174170822E-003
          17 -0.14927344909050377     
          18 -0.36196057558106931     
          19 -0.23626248431944619     
          20   2.2749966627756517E-003
Sym=     7a
Ene=  -0.50421338871439825     
Spin= Alpha
Occup=     2.00000000
           1  -3.4871795337143630E-005
           2  -4.3270857417210583E-003
           3   1.1594648266042224E-003
           4 -0.56928367993983553     
           5  0.35271189387374602     
           6  0.29168405548518056     
           7  0.25299986714312894     
           8  0.17459832023043664     
           9 -0.35276580332247182     
          10 -0.28900771045184659     
          11 -0.25372175811417191     
          12  0.17805306875325333     
          13   3.2282351576324132E-005
          14   6.7256733227874076E-004
          15  -1.7042811207216210E-004
          16   9.0783371038099678E-002
          17   3.2268569807999257E-005
          18   7.2965111775708381E-004
          19  -2.1107015964951951E-004
          20   9.4361181369719868E-002
Sym=     8a
Ene=  -0.50145699109211861     
Spin= Alpha
Occup=     2.00000000
           1 -0.22329227409481253     
           2  0.10279292245178501     
           3   9.2311330240461786E-002
           4  -5.5570225947472148E-004
           5 -0.25319423286750187     
           6  -6.7220365388885456E-002
           7  -5.8775576884436305E-002
           8 -0.13260470494208118     
           9 -0.25313859480486528     
          10  -6.5142255596626397E-002
          11  -5.9267755047055649E-002
          12  0.13335141406638779     
          13  0.50576778574835268     
          14 -0.28732941416179253     
          15  0.23447719849139462     
          16   2.6580285231339847E-003
          17  0.50648485495704632     
          18  0.19983916516526595     
          19 -0.31191958074602205     
          20  -2.1582745252526439E-003
Sym=     9a
Ene=  -0.49716675608454808     
Spin= Alpha
Occup=     2.00000000
           1 -0.54398931062924805     
           2  0.49210869149754843     
           3  0.43019042043732630     
           4  -2.8811174153522750E-003
           5 -0.10040105927397679     
           6 -0.17348074803272862     
           7 -0.15132888924941357     
           8  -1.4262649475768005E-002
           9 -0.10037858680549483     
          10 -0.17322923003632604     
          11 -0.15137430861556042     
          12   1.6293340020294440E-002
          13 -0.20407141455491370     
          14   9.2374352720073459E-003
          15 -0.18540817778732593     
          16  -4.4470959424627312E-004
          17 -0.20612045105799179     
          18 -0.18733060876144131     
          19   3.0726065494679006E-002
          20   1.4897240871669028E-003
Sym=    10a
Ene=  -0.47707776078974384     
Spin= Alpha
Occup=     2.00000000
           1  0.14825299889116092     
           2  -4.7895683383250738E-002
           3  -4.1973683501001564E-002
           4   2.8609890762147232E-004
           5 -0.40317999109560632     
           6   7.7178289730796129E-002
           7   7.2440881024059267E-002
           8 -0.50314666171591760     
           9 -0.40317065915971267     
          10   8.4867146980546204E-002
          11   7.0435077023951215E-002
          12  0.50219114601735093     
          13 -0.13490144882542399     
          14  0.17111117059084610     
          15  -5.3793488182083196E-002
          16  -1.4149384888124960E-003
          17 -0.13478314698938409     
          18  -3.2317187429744626E-002
          19  0.17560515875085311     
          20   5.9859068708929212E-004
Sym=    11a
Ene=  -0.42164729094157943     
Spin= Alpha
Occup=     1.00000000
           1   7.6391248040751970E-004
           2   6.9892364274934088E-002
           3  -7.9733031839095428E-002
           4  -6.9363041820631808E-004
           5  -7.4483607320791555E-005
           6  0.14308067862876658     
           7 -0.16143789429360411     
           8  -1.5000958862602881E-003
           9  -7.4476344849849289E-005
          10  0.14308204107594372     
          11 -0.16143832937392349     
          12  -1.3327072308321208E-003
          13  0.32556364673527466     
          14 -0.47711715527389303     
          15  0.37158955565391011     
          16   4.3889310707367814E-003
          17 -0.32563479368685994     
          18 -0.30831026253251542     
          19  0.52030090290639497     
          20   3.3975520183842818E-003
Sym=    12a
Ene=  -0.33046461789915416     
Spin= Alpha
Occup=     0.00000000
           1  -5.6943564029239430E-007
           2   1.4628783586610715E-003
           3  -3.8425575730970145E-004
           4  0.19157509063622194     
           5  0.14293035471290333     
           6  -9.7938135066311369E-002
           7  -9.1345863415243173E-002
           8  0.59594865932603114     
           9 -0.14293190879717482     
          10  0.10703115239744708     
          11   8.8958302894676877E-002
          12  0.59474596051232798     
          13   1.5564430405316805E-007
          14  -3.3512626690836915E-003
          15   8.7929867291617768E-004
          16 -0.43880710746361662     
          17   1.5461104688029928E-007
          18  -3.3572630026028586E-003
          19   8.8123620921625985E-004
          20 -0.43953892262447652     
Sym=    13a
Ene=  -0.24496479398927326     
Spin= Alpha
Occup=     0.00000000
           1   1.0225882922377926E-002
           2 -0.17192324404012141     
           3 -0.15045147041482806     
           4   1.0901750148316727E-003
           5  -3.7552233586093213E-002
           6 -0.43884932475948013     
           7 -0.38759816001301306     
           8   2.9050757322877332E-002
           9  -3.7564734574734686E-002
          10 -0.43935302828357831     
          11 -0.38757934920857928     
          12  -2.3932835995857063E-002
          13  -6.5250626459741118E-003
          14  0.43226849721386124     
          15  0.37202163598414473     
          16  -2.5806964219964807E-003
          17  -5.9866402727533352E-003
          18  0.41956240423528157     
          19  0.38058073750511240     
          20  -2.4665992600339027E-003
Sym=    14a
Ene=  -0.23724398114541298     
Spin= Alpha
Occup=     0.00000000
           1  -3.5688520424306783E-006
           2   5.6392603842926681E-003
           3  -1.4597157988381888E-003
           4  0.73601122798890695     
           5   6.3434191387250372E-002
           6  0.44005932286146499     
           7  0.38984822338594610     
           8 -0.17315791595898311     
           9  -6.3425775394667025E-002
          10 -0.44257136193584512     
          11 -0.38908207477406981     
          12 -0.16796129669004925     
          13   8.9697800593259565E-007
          14  -1.8625595845091049E-003
          15   4.3257680903934658E-004
          16 -0.23747775275570113     
          17   8.2958053560174944E-007
          18  -1.8702457428547978E-003
          19   4.3529492274546611E-004
          20 -0.23849486810395984     
Sym=    15a
Ene=   -9.7623237745510433E-002
Spin= Alpha
Occup=     0.00000000
           1   2.2326893752316768E-002
           2 -0.52398869361535882     
           3  0.63377380131924932     
           4   5.2723276142603200E-003
           5  -4.8883179119154100E-003
           6  0.22100702220915028     
           7 -0.23752250155123553     
           8   3.6606593958748270E-003
           9  -4.8885917832368533E-003
          10  0.22091276219932926     
          11 -0.23749368030643300     
          12  -7.9883006402529950E-003
          13  -3.0132549273984479E-002
          14  0.42473441622050556     
          15  0.48846826101659579     
          16  -2.2653910218844871E-003
          17   2.3365808801431961E-002
          18 -0.51110788122753492     
          19 -0.35864400339007785     
          20   3.1847548001378836E-003
Sym=    16a
Ene=   -6.2092260886687851E-002
Spin= Alpha
Occup=     0.00000000
           1  0.75631044997858321     
           2  0.63817818530753889     
           3  0.53087394791697284     
           4  -3.8133133739819912E-003
           5 -0.18311020903916397     
           6  0.17667034386016628     
           7  0.17150384681545477     
           8  0.20476922563337790     
           9 -0.18312056851095546     
          10  0.17352241210933578     
          11  0.17232415432988793     
          12 -0.20676545028466770     
          13 -0.11706972899266319     
          14  0.13726808090475437     
          15  0.41265089368027152     
          16  -2.3016043426165775E-004
          17 -0.11480045729413407     
          18  0.45823378060719189     
          19  0.10972955830323954     
          20  -3.2887288203201455E-003
Sym=    17a
Ene=    8.1492557405647592E-002
Spin= Alpha
Occup=     0.00000000
           1   6.6563827885667821E-006
           2   2.0598305387888893E-003
           3  -5.3238265993519457E-004
           4  0.26880912024573256     
           5 -0.65952389547134327     
           6  0.17700693561661593     
           7  0.20251148764448207     
           8  0.54321212981630618     
           9  0.65951656719456830     
          10 -0.16868738117344476     
          11 -0.20468522936898134     
          12  0.54502916968533222     
          13   6.2284823742330890E-007
          14   3.8444867024216324E-003
          15  -1.0051912058404145E-003
          16  0.50291391647854311     
          17   1.0656266653334625E-006
          18   4.3978062035008409E-003
          19  -1.1500135091827934E-003
          20  0.57541653192159581     
Sym=    18a
Ene=    9.4225065809947578E-002
Spin= Alpha
Occup=     0.00000000
           1   3.9797793456810245E-007
           2   1.1273243139103112E-004
           3  -3.4177822041866105E-005
           4   1.3948375045767101E-002
           5  -3.4436181298069142E-002
           6  0.50410941653114283     
           7 -0.55129044624227486     
           8   2.3071262978019102E-002
           9   3.4435689967446732E-002
          10 -0.50367314994701273     
          11  0.55116973055176466     
          12   3.2977557658888240E-002
          13   7.2283293771711896E-006
          14   5.6535373055050095E-003
          15  -1.4874999294084623E-003
          16  0.73971087255014079     
          17  -7.0854915540060400E-006
          18  -5.2159877256365795E-003
          19   1.3660551243549781E-003
          20 -0.68353889204348772     
Sym=    19a
Ene=   0.23241734696205441     
Spin= Alpha
Occup=     0.00000000
           1  -4.1305938675030704E-003
           2 -0.25651058187187226     
           3  0.28475443138296314     
           4   2.5299711673292900E-003
           5  -3.5849256520279133E-004
           6 -0.43158838349898337     
           7  0.48941272583601669     
           8   4.3848663241132539E-003
           9  -3.5812356408821018E-004
          10 -0.43160329081418186     
          11  0.48942804312915250     
          12   4.1701102740379012E-003
          13 -0.68972692962139803     
          14 -0.38102627294081376     
          15  0.40964035860557835     
          16   3.7395175622612713E-003
          17  0.69364710768069315     
          18 -0.36464798994381986     
          19  0.43118157810416369     
          20   3.6412979513744601E-003
Sym=    20a
Ene=   0.41387898758806779     
Spin= Alpha
Occup=     0.00000000
           1 -0.10959054423077254     
           2  -5.3498827304840964E-002
           3  -4.5891090395648627E-002
           4   3.1813956953231990E-004
           5 -0.60579665089782730     
           6  0.12778026227366435     
           7  0.10516529455606571     
           8  0.51319293404718103     
           9 -0.60580519799308596     
          10  0.11992883586211144     
          11  0.10722431546771531     
          12 -0.51466586961187610     
          13  0.60763533534038983     
          14  0.54101520533589187     
          15 -0.47070163384027247     
          16  -5.0782118436182820E-003
          17  0.60372641890346546     
          18 -0.39849455881204610     
          19  0.59232121827227957     
          20   4.2282987740268185E-003
