$hessian                                                                        
        0.3437610760   0.1621905271  -0.0015135243  -0.0584119876  -0.0755830064
       -0.0337643119  -0.0570866865  -0.0748817972   0.0334552619  -0.0410644197
       -0.0209610057   0.0002859324  -0.1871979822   0.0092352822   0.0015366420
        0.1621905271   0.2999710991  -0.0008588215  -0.0751511660  -0.0388916474
       -0.0289848979  -0.0749819970  -0.0391495886   0.0301651859  -0.0091475447
       -0.1821184980  -0.0003133677  -0.0029098194  -0.0398113651  -0.0000080989
       -0.0015135243  -0.0008588215   0.0904750618  -0.0562146111  -0.0485640118
       -0.0763208856   0.0556097577   0.0498956211  -0.0773614191   0.0005739042
       -0.0002805806   0.0317446554   0.0015444736  -0.0001922072   0.0314625876
       -0.0584119876  -0.0751511660  -0.0562146111   0.2052049062  -0.0995932707
        0.0959751099  -0.0026539963  -0.0193042135   0.0291849414  -0.1172863782
        0.1175282239  -0.1158851951  -0.0268525440   0.0765204264   0.0469397549
       -0.0755830064  -0.0388916474  -0.0485640118  -0.0995932707   0.2282749056
        0.0826954263  -0.0185895738   0.0022702147   0.0265531580   0.0895808079
       -0.0528494043   0.0623396276   0.1041850430  -0.1388040686  -0.1230242001
       -0.0337643119  -0.0289848979  -0.0763208856   0.0959751099   0.0826954263
        0.3637159001  -0.0303804661  -0.0263241047  -0.1082337287  -0.1062948635
        0.0888888946  -0.0882490341   0.0744645316  -0.1162753183  -0.0909122516
       -0.0570866865  -0.0749819970   0.0556097577  -0.0026539963  -0.0185895738
       -0.0303804661   0.2020494333  -0.1004601251  -0.0934361493  -0.1136623277
        0.1156141625   0.1162416743  -0.0286464228   0.0784175334  -0.0480348165
       -0.0748817972  -0.0391495886   0.0498956211  -0.0193042135   0.0022702147
       -0.0263241047  -0.1004601251   0.2292207317  -0.0822124933   0.0882564124
       -0.0523535578  -0.0630928741   0.1063897234  -0.1399878000   0.1217338510
        0.0334552619   0.0301651859  -0.0773614191   0.0291849414   0.0265531580
       -0.1082337287  -0.0934361493  -0.0822124933   0.3660327655   0.1064898830
       -0.0901240426  -0.0923111934  -0.0756939370   0.1156181921  -0.0881264242
       -0.0410644197  -0.0091475447   0.0005739042  -0.1172863782   0.0895808079
       -0.1062948635  -0.1136623277   0.0882564124   0.1064898830   0.3078046071
       -0.2384506077  -0.0011778698  -0.0357914815   0.0697609321   0.0004089461
       -0.0209610057  -0.1821184980  -0.0002805806   0.1175282239  -0.0528494043
        0.0888888946   0.1156141625  -0.0523535578  -0.0901240426  -0.2384506077
        0.3352130960   0.0019595116   0.0262692270  -0.0478916359  -0.0004437830
        0.0002859324  -0.0003133677   0.0317446554  -0.1158851951   0.0623396276
       -0.0882490341   0.1162416743  -0.0630928741  -0.0923111934  -0.0011778698
        0.0019595116   0.1770840376   0.0005354582  -0.0008928975  -0.0282684655
       -0.1871979822  -0.0029098194   0.0015444736  -0.0268525440   0.1041850430
        0.0744645316  -0.0286464228   0.1063897234  -0.0756939370  -0.0357914815
        0.0262692270   0.0005354582   0.2784884305  -0.2339341741  -0.0008505264
        0.0092352822  -0.0398113651  -0.0001922072   0.0765204264  -0.1388040686
       -0.1162753183   0.0784175334  -0.1399878000   0.1156181921   0.0697609321
       -0.0478916359  -0.0008928975  -0.2339341741   0.3664948697   0.0017422309
        0.0015366420  -0.0000080989   0.0314625876   0.0469397549  -0.1230242001
       -0.0909122516  -0.0480348165   0.1217338510  -0.0881264242   0.0004089461
       -0.0004437830  -0.0282684655  -0.0008505264   0.0017422309   0.1758445538
