      -----------------------------------------------------------      
     |                   =====================                   |     
     |                           x T B                           |     
     |                   =====================                   |     
     |                         S. Grimme                         |     
     |          Mulliken Center for Theoretical Chemistry        |     
     |                    University of Bonn                     |     
      -----------------------------------------------------------      

   * xtb version 6.2.2 (9d81278992624c895f80dd42a50cac0aa55982e2) compiled by '@Darwin' on 04/03/2020

   xtb is free software: you can redistribute it and/or modify it under
   the terms of the GNU Lesser General Public License as published by
   the Free Software Foundation, either version 3 of the License, or
   (at your option) any later version.
   
   xtb is distributed in the hope that it will be useful,
   but WITHOUT ANY WARRANTY; without even the implied warranty of
   MERCHANTABILITY or FITNESS FOR A PARTICULAR PURPOSE.  See the
   GNU Lesser General Public License for more details.
   
   Cite this work as:
   * S. Grimme, C. Bannwarth, P. Shushkov, J. Chem. Theory Comput., 2017,
     13, 1989-2009. DOI: 10.1021/acs.jctc.7b00118
   * C. Bannwarth, S. Ehlert and S. Grimme., J. Chem. Theory Comput., 2019,
     15, 1652-1671. DOI: 10.1021/acs.jctc.8b01176
   * P. Pracht, E. Caldeweyher, S. Ehlert, S. Grimme, ChemRxiv, 2019, preprint.
     DOI: 10.26434/chemrxiv.8326202.v1
   
   for DFT-D4:
   * E. Caldeweyher, C. Bannwarth and S. Grimme, J. Chem. Phys., 2017,
     147, 034112. DOI: 10.1063/1.4993215
   * E. Caldeweyher, S. Ehlert, A. Hansen, H. Neugebauer, S. Spicher,
     C. Bannwarth and S. Grimme, J. Chem. Phys., 2019, 150, 154122.
     DOI: 10.1063/1.5090222
   
   for sTDA-xTB:
   * S. Grimme and C. Bannwarth, J. Chem. Phys., 2016, 145, 054103.
     DOI: 10.1063/1.4959605
   
   in the mass-spec context:
   * V. Asgeirsson, C. Bauer and S. Grimme, Chem. Sci., 2017, 8, 4879.
     DOI: 10.1039/c7sc00601b
   
   for metadynamics refer to:
   * S. Grimme, J. Chem. Theory Comput., 2019, 155, 2847-2862
     DOI: 10.1021/acs.jctc.9b00143
   
   with help from (in alphabetical order)
   C. Bannwarth, F. Bohle, G. Brandenburg, E. Caldeweyher, M. Checinski,
   S. Dohm, S. Ehlert, S. Ehrlich, F. März, H. Neugebauer, J. Pisarek,
   P. Pracht, P. Shushkov, and S. Spicher.
   
 * started run on 2020/05/12 at 11:44:18.571     

           -------------------------------------------------
          |                Calculation Setup                |
           -------------------------------------------------

          program call               : xtb --input C4N1_45_S_1.input C4N1_45_S_1.xyz --ohess --molden --namespace C4N1_45_S_1 output.out
          calculation namespace      : C4N1_45_S_1
          coordinate file            : C4N1_45_S_1.xyz
          number of atoms            :                     5
          number of electrons        :                    21
          charge                     :                     0
          spin                       :                   0.5
          first test random number   :      0.42352380727875

   ID    Z sym.   atoms
    1    7 N      1
    2    6 C      2-5

           -------------------------------------------------
          |                 G F N 2 - x T B                 |
           -------------------------------------------------

        Reference                      10.1021/acs.jctc.8b01176
      * Hamiltonian:
        H0-scaling (s, p, d)           1.850000    2.230000    2.230000
        zeta-weighting                 0.500000
      * Dispersion:
        s8                             2.700000
        a1                             0.520000
        a2                             5.000000
        s9                             5.000000
      * Repulsion:
        kExp                           1.500000    1.000000
        rExp                           1.000000
      * Coulomb:
        alpha                          2.000000
        third order                    shell-resolved
        anisotropic                    true
        a3                             3.000000
        a5                             4.000000
        cn-shift                       1.200000
        cn-exp                         4.000000
        max-rad                        5.000000


          ...................................................
          :                      SETUP                      :
          :.................................................:
          :  # basis functions                  20          :
          :  # atomic orbitals                  20          :
          :  # shells                           10          :
          :  # electrons                        21          :
          :  max. iterations                   250          :
          :  Hamiltonian                  GFN2-xTB          :
          :  restarted?                      false          :
          :  GBSA solvation                  false          :
          :  PC potential                    false          :
          :  electronic temp.          300.0000000     K    :
          :  accuracy                    1.0000000          :
          :  -> integral cutoff          0.2500000E+02      :
          :  -> integral neglect         0.1000000E-07      :
          :  -> SCF convergence          0.1000000E-05 Eh   :
          :  -> wf. convergence          0.1000000E-03 e    :
          :  Broyden damping             0.4000000          :
          ...................................................

 iter      E             dE          RMSdq      gap      omega  full diag
   1    -10.8488401 -0.108488E+02  0.111E+01    0.06       0.0  T
   2    -10.6565262  0.192314E+00  0.117E+01    0.66       1.0  T
   3    -10.9976497 -0.341123E+00  0.632E+00    0.46       1.0  T
   4     -8.7745151  0.222313E+01  0.185E+01    0.77       1.0  T
   5    -11.0041741 -0.222966E+01  0.244E+00    0.40       1.0  T
   6    -11.0142503 -0.100762E-01  0.160E+00    0.35       1.0  T
   7    -11.0187004 -0.445003E-02  0.120E+00    0.34       1.0  T
   8    -11.0254509 -0.675053E-02  0.576E-01    0.25       1.0  T
   9    -11.0257120 -0.261062E-03  0.512E-01    0.25       1.0  T
  10    -11.0259561 -0.244153E-03  0.444E-01    0.24       1.0  T
  11    -11.0267351 -0.778996E-03  0.361E-02    0.20       1.2  T
  12    -11.0267309  0.425367E-05  0.410E-02    0.19       1.1  T
  13    -11.0267384 -0.752648E-05  0.135E-02    0.20       3.3  T
  14    -11.0267384 -0.270478E-07  0.102E-02    0.20       4.4  T
  15    -11.0267389 -0.474104E-06  0.469E-03    0.20       9.5  T
  16    -11.0267390 -0.769053E-07  0.599E-04    0.20      74.7  T
  17    -11.0267390  0.124670E-07  0.169E-03    0.20      26.5  T
  18    -11.0267390 -0.144231E-07  0.259E-04    0.20     172.7  T

   *** convergence criteria satisfied after 18 iterations ***

         #    Occupation            Energy/Eh            Energy/eV
      -------------------------------------------------------------
         1        2.0000           -0.7777997             -21.1650
       ...           ...                  ...                  ...
         5        2.0000           -0.5504038             -14.9773
         6        2.0000           -0.5304101             -14.4332
         7        2.0000           -0.5257271             -14.3058
         8        2.0000           -0.5184673             -14.1082
         9        2.0000           -0.5080249             -13.8241
        10        1.9996           -0.4514349             -12.2842
        11        0.9797           -0.4363628             -11.8740 (HOMO)
        12        0.0207           -0.4290306             -11.6745 (LUMO)
        13                         -0.4030173             -10.9667
        14                         -0.3166973              -8.6178
        15                         -0.0822263              -2.2375
        16                         -0.0712099              -1.9377
       ...                                ...                  ...
        20                          0.4441393              12.0856
      -------------------------------------------------------------
                  HL-Gap            0.0073322 Eh            0.1995 eV
             Fermi-level           -0.4382979 Eh          -11.9267 eV

 SCC (total)                   0 d,  0 h,  0 min,  0.005 sec
 SCC setup                      ...        0 min,  0.000 sec (  1.672%)
 Dispersion                     ...        0 min,  0.000 sec (  0.349%)
 integral evaluation            ...        0 min,  0.001 sec ( 27.891%)
 zeroth order Hamiltonian       ...        0 min,  0.000 sec (  0.418%)
 iterations                     ...        0 min,  0.002 sec ( 38.961%)
 molecular gradient             ...        0 min,  0.001 sec ( 27.969%)
 printout                       ...        0 min,  0.000 sec (  2.577%)

         :::::::::::::::::::::::::::::::::::::::::::::::::::::
         ::                     SUMMARY                     ::
         :::::::::::::::::::::::::::::::::::::::::::::::::::::
         :: total energy             -10.910440019128 Eh    ::
         :: gradient norm              0.328696554438 Eh/a0 ::
         :: HOMO-LUMO gap              0.199519001541 eV    ::
         ::.................................................::
         :: SCC energy               -11.026738970421 Eh    ::
         :: -> isotropic ES           -0.015830962943 Eh    ::
         :: -> anisotropic ES          0.003045018176 Eh    ::
         :: -> anisotropic XC          0.007472698668 Eh    ::
         :: -> dispersion             -0.002594919264 Eh    ::
         :: repulsion energy           0.116298896570 Eh    ::
         :: add. restraining           0.000000000000 Eh    ::
         :::::::::::::::::::::::::::::::::::::::::::::::::::::

      ----------------------------------------------------------- 
     |                   =====================                   |
     |                        A N C O P T                        |
     |                   =====================                   |
     |               Approximate Normal Coordinate               |
     |                Rational Function Optimizer                |
      ----------------------------------------------------------- 

          ...................................................
          :                      SETUP                      :
          :.................................................:
          :   optimization level            normal          :
          :   max. optcycles                   200          :
          :   ANC micro-cycles                  20          :
          :   degrees of freedom                 9          :
          :.................................................:
          :   RF solver                   davidson          :
          :   write xtbopt.log                true          :
          :   linear?                        false          :
          :   energy convergence         0.5000000E-05 Eh   :
          :   grad. convergence          0.1000000E-02 Eh/α :
          :   maximium RF displ.         1.0000000          :
          :   Hlow (freq-cutoff)         0.1000000E-01      :
          :   Hmax (freq-cutoff)         5.0000000          :
          :   S6 in model hess.         20.0000000          :
          ...................................................

generating ANC from model Hessian ...
Using Lindh-Hessian (1995)
 Shifting diagonal of input Hessian by    0.0000000000000000     
 Lowest  eigenvalues of input Hessian
   -0.000000   -0.000000   -0.000000   -0.000000    0.000000    0.000000
    0.125975    0.141128    0.612896    0.651242    0.817606    0.937113
    1.139698    1.278761    1.854362
 Highest eigenvalues
    0.651242    0.817606    0.937113    1.139698    1.278761    1.854362


........................................................................
.............................. CYCLE    1 ..............................
........................................................................
   1    -11.0267390 -0.110267E+02  0.294E-05    0.20       0.0  T
   2    -11.0267390  0.160885E-10  0.483E-05    0.20     925.8  T
   3    -11.0267390 -0.173976E-10  0.199E-05    0.20    2247.4  T
     SCC iter.                  ...        0 min,  0.001 sec
     gradient                   ...        0 min,  0.001 sec
 * total energy  :   -10.9104400 Eh     change       -0.2883009E-08 Eh
   gradient norm :     0.3286971 Eh/α   predicted     0.0000000E+00 (-100.00%)
   displ. norm   :     0.3247487 α      lambda       -0.9690195E-01
   maximum displ.:     0.2960508 α      in ANC's #4, #9, #8, ...

........................................................................
.............................. CYCLE    2 ..............................
........................................................................
   1    -11.0864383 -0.110864E+02  0.304E+00    0.09       0.0  T
   2    -11.0800825  0.635580E-02  0.198E+00    0.27       1.0  T
   3    -10.9401696  0.139913E+00  0.579E+00    0.19       1.0  T
   4    -11.0864958 -0.146326E+00  0.766E-01    0.13       1.0  T
   5    -11.0886946 -0.219886E-02  0.530E-01    0.19       1.0  T
   6    -11.0888822 -0.187548E-03  0.424E-01    0.17       1.0  T
   7    -11.0889559 -0.737217E-04  0.289E-01    0.15       1.0  T
   8    -11.0893756 -0.419672E-03  0.155E-01    0.14       1.0  T
   9    -11.0894106 -0.349902E-04  0.952E-02    0.14       1.0  T
  10    -11.0894349 -0.242776E-04  0.753E-03    0.13       5.9  T
  11    -11.0894349 -0.714261E-07  0.980E-04    0.13      45.6  T
  12    -11.0894349  0.700362E-08  0.224E-03    0.13      20.0  T
  13    -11.0894349 -0.695169E-08  0.144E-03    0.13      31.0  T
  14    -11.0894349 -0.499142E-08  0.250E-05    0.13    1792.2  T
     SCC iter.                  ...        0 min,  0.001 sec
     gradient                   ...        0 min,  0.001 sec
 * total energy  :   -10.9827294 Eh     change       -0.7228942E-01 Eh
   gradient norm :     0.1580514 Eh/α   predicted    -0.5356068E-01 ( -25.91%)
   displ. norm   :     0.3523010 α      lambda       -0.5274853E-01
   maximum displ.:     0.3386705 α      in ANC's #4, #9, #8, ...

........................................................................
.............................. CYCLE    3 ..............................
........................................................................
   1    -11.1316966 -0.111317E+02  0.326E+00    0.02       0.0  T
   2    -11.1104354  0.212612E-01  0.273E+00    0.38       1.0  T
   3    -11.1066432  0.379214E-02  0.323E+00    0.03       1.0  T
   4    -11.1414604 -0.348172E-01  0.100E+00    0.16       1.0  T
   5    -11.1402241  0.123638E-02  0.102E+00    0.19       1.0  T
   6    -11.1399242  0.299865E-03  0.919E-01    0.17       1.0  T
   7    -11.1426323 -0.270815E-02  0.256E-01    0.08       1.0  T
   8    -11.1427919 -0.159596E-03  0.109E-01    0.10       1.0  T
   9    -11.1428127 -0.207676E-04  0.548E-02    0.09       1.0  T
  10    -11.1428141 -0.136014E-05  0.830E-03    0.10       5.4  T
  11    -11.1428140  0.107568E-06  0.128E-02    0.10       3.5  T
  12    -11.1428142 -0.282941E-06  0.545E-03    0.10       8.2  T
  13    -11.1428143 -0.383674E-07  0.340E-03    0.10      13.2  T
  14    -11.1428143 -0.250469E-07  0.218E-04    0.10     204.9  T
  15    -11.1428143 -0.520153E-10  0.935E-05    0.10     478.3  T
     SCC iter.                  ...        0 min,  0.002 sec
     gradient                   ...        0 min,  0.001 sec
 * total energy  :   -11.0148402 Eh     change       -0.3211077E-01 Eh
   gradient norm :     0.0632278 Eh/α   predicted    -0.2964774E-01 (  -7.67%)
   displ. norm   :     0.1116634 α      lambda       -0.5176933E-02
   maximum displ.:     0.0909463 α      in ANC's #4, #9, #1, ...

........................................................................
.............................. CYCLE    4 ..............................
........................................................................
   1    -11.1456278 -0.111456E+02  0.911E-01    0.17       0.0  T
   2    -11.1457462 -0.118442E-03  0.536E-01    0.17       1.0  T
   3    -11.1428850  0.286124E-02  0.648E-01    0.14       1.0  T
   4    -11.1450821 -0.219707E-02  0.322E-01    0.16       1.0  T
   5    -11.1457654 -0.683332E-03  0.123E-01    0.16       1.0  T
   6    -11.1458483 -0.829029E-04  0.610E-02    0.15       1.0  T
   7    -11.1458656 -0.172458E-04  0.131E-02    0.15       3.4  T
   8    -11.1458656 -0.511640E-07  0.225E-03    0.15      19.9  T
   9    -11.1458656 -0.116027E-07  0.698E-04    0.15      64.0  T
  10    -11.1458656 -0.946422E-09  0.352E-04    0.15     127.1  T
     SCC iter.                  ...        0 min,  0.001 sec
     gradient                   ...        0 min,  0.001 sec
 * total energy  :   -11.0185879 Eh     change       -0.3747639E-02 Eh
   gradient norm :     0.0436855 Eh/α   predicted    -0.2620744E-02 ( -30.07%)
   displ. norm   :     0.3846985 α      lambda       -0.1088424E-01
   maximum displ.:     0.3088506 α      in ANC's #1, #4, #9, ...

........................................................................
.............................. CYCLE    5 ..............................
........................................................................
   1    -11.1343322 -0.111343E+02  0.318E+00    0.64       0.0  T
   2    -11.1197272  0.146050E-01  0.241E+00    0.32       1.0  T
   3    -11.1381738 -0.184466E-01  0.177E+00    0.63       1.0  T
   4    -11.1463284 -0.815462E-02  0.363E-01    0.54       1.0  T
   5    -11.1473190 -0.990571E-03  0.109E-01    0.53       1.0  T
   6    -11.1473436 -0.246339E-04  0.331E-02    0.53       1.3  T
   7    -11.1473473 -0.371845E-05  0.116E-02    0.53       3.8  T
   8    -11.1473478 -0.473039E-06  0.383E-03    0.53      11.7  T
   9    -11.1473478 -0.363566E-08  0.699E-04    0.53      63.9  T
  10    -11.1473478  0.201181E-08  0.720E-04    0.53      62.1  T
     SCC iter.                  ...        0 min,  0.001 sec
     gradient                   ...        0 min,  0.001 sec
 * total energy  :   -11.0341031 Eh     change       -0.1551522E-01 Eh
   gradient norm :     0.0731920 Eh/α   predicted    -0.6247501E-02 ( -59.73%)
   displ. norm   :     0.4981277 α      lambda       -0.2396054E-01
   maximum displ.:     0.4445241 α      in ANC's #1, #4, #9, ...

........................................................................
.............................. CYCLE    6 ..............................
........................................................................
   1    -11.1414022 -0.111414E+02  0.275E+00    0.63       0.0  T
   2    -11.1418731 -0.470946E-03  0.157E+00    0.55       1.0  T
   3    -11.1373328  0.454028E-02  0.956E-01    0.76       1.0  T
   4    -11.1412637 -0.393084E-02  0.400E-01    0.62       1.0  T
   5    -11.1425677 -0.130404E-02  0.116E-01    0.62       1.0  T
   6    -11.1426263 -0.585530E-04  0.468E-02    0.63       1.0  T
   7    -11.1426305 -0.422554E-05  0.617E-03    0.63       7.2  T
   8    -11.1426304  0.103049E-06  0.499E-03    0.63       9.0  T
   9    -11.1426305 -0.980993E-07  0.294E-03    0.63      15.2  T
  10    -11.1426305 -0.506372E-07  0.375E-04    0.63     119.4  T
  11    -11.1426305 -0.820268E-10  0.384E-05    0.63    1165.4  T
     SCC iter.                  ...        0 min,  0.001 sec
     gradient                   ...        0 min,  0.001 sec
 * total energy  :   -11.0460242 Eh     change       -0.1192114E-01 Eh
   gradient norm :     0.1114851 Eh/α   predicted    -0.1495296E-01 (  25.43%)
   displ. norm   :     0.0849499 α      lambda       -0.8813560E-02
   maximum displ.:     0.0731504 α      in ANC's #9, #8, #1, ...

........................................................................
.............................. CYCLE    7 ..............................
........................................................................
   1    -11.1633018 -0.111633E+02  0.542E-01    0.98       0.0  T
   2    -11.1633236 -0.217895E-04  0.321E-01    1.02       1.0  T
   3    -11.1630343  0.289360E-03  0.240E-01    0.96       1.0  T
   4    -11.1632451 -0.210872E-03  0.129E-01    0.99       1.0  T
   5    -11.1633947 -0.149576E-03  0.258E-02    1.00       1.7  T
   6    -11.1633955 -0.780219E-06  0.791E-03    1.00       5.7  T
   7    -11.1633956 -0.926628E-07  0.195E-03    1.00      23.0  T
   8    -11.1633956 -0.427956E-09  0.474E-04    1.00      94.4  T
   9    -11.1633956  0.174022E-08  0.547E-04    1.00      81.8  T
     SCC iter.                  ...        0 min,  0.001 sec
     gradient                   ...        0 min,  0.001 sec
 * total energy  :   -11.0533663 Eh     change       -0.7342131E-02 Eh
   gradient norm :     0.0755581 Eh/α   predicted    -0.4438581E-02 ( -39.55%)
   displ. norm   :     0.2706808 α      lambda       -0.1539824E-01
   maximum displ.:     0.1826135 α      in ANC's #1, #8, #9, ...

........................................................................
.............................. CYCLE    8 ..............................
........................................................................
   1    -11.1964287 -0.111964E+02  0.161E+00    1.84       0.0  T
   2    -11.1966373 -0.208622E-03  0.966E-01    1.98       1.0  T
   3    -11.1924277  0.420958E-02  0.817E-01    1.84       1.0  T
   4    -11.1947483 -0.232055E-02  0.522E-01    1.89       1.0  T
   5    -11.1972932 -0.254498E-02  0.494E-02    1.92       1.0  T
   6    -11.1972943 -0.103472E-05  0.137E-02    1.92       3.3  T
   7    -11.1972945 -0.183212E-06  0.409E-03    1.92      10.9  T
   8    -11.1972944  0.376319E-07  0.360E-03    1.92      12.4  T
   9    -11.1972945 -0.581295E-07  0.145E-03    1.92      30.9  T
  10    -11.1972945 -0.682544E-08  0.192E-04    1.92     233.1  T
  11    -11.1972945 -0.906120E-11  0.182E-05    1.92    2450.8  T
     SCC iter.                  ...        0 min,  0.001 sec
     gradient                   ...        0 min,  0.002 sec
 * total energy  :   -11.0625720 Eh     change       -0.9205620E-02 Eh
   gradient norm :     0.0418908 Eh/α   predicted    -0.8263221E-02 ( -10.24%)
   displ. norm   :     0.1977587 α      lambda       -0.4071729E-02
   maximum displ.:     0.1478043 α      in ANC's #1, #8, #4, ...

........................................................................
.............................. CYCLE    9 ..............................
........................................................................
   1    -11.1982898 -0.111983E+02  0.128E+00    2.09       0.0  T
   2    -11.1983840 -0.941920E-04  0.752E-01    2.19       1.0  T
   3    -11.1949743  0.340971E-02  0.682E-01    2.09       1.0  T
   4    -11.1973954 -0.242111E-02  0.377E-01    2.13       1.0  T
   5    -11.1987143 -0.131888E-02  0.290E-02    2.16       1.5  T
   6    -11.1987147 -0.410415E-06  0.107E-02    2.16       4.2  T
   7    -11.1987147 -0.609475E-07  0.197E-03    2.16      22.7  T
   8    -11.1987147  0.433524E-08  0.155E-03    2.16      28.9  T
   9    -11.1987147 -0.903243E-08  0.777E-04    2.16      57.5  T
  10    -11.1987147 -0.231676E-08  0.113E-04    2.16     395.2  T
     SCC iter.                  ...        0 min,  0.001 sec
     gradient                   ...        0 min,  0.001 sec
 * total energy  :   -11.0658476 Eh     change       -0.3275644E-02 Eh
   gradient norm :     0.0396724 Eh/α   predicted    -0.2115485E-02 ( -35.42%)
   displ. norm   :     0.3209505 α      lambda       -0.6408991E-02
   maximum displ.:     0.2066021 α      in ANC's #8, #1, #4, ...

........................................................................
.............................. CYCLE   10 ..............................
........................................................................
   1    -11.1991910 -0.111992E+02  0.233E+00    2.33       0.0  T
   2    -11.1996762 -0.485245E-03  0.133E+00    2.46       1.0  T
   3    -11.1955962  0.408002E-02  0.823E-01    2.31       1.0  T
   4    -11.1969812 -0.138503E-02  0.573E-01    2.38       1.0  T
   5    -11.2001621 -0.318082E-02  0.529E-02    2.41       1.0  T
   6    -11.2001635 -0.146285E-05  0.132E-02    2.41       3.4  T
   7    -11.2001637 -0.143250E-06  0.355E-03    2.41      12.6  T
   8    -11.2001637 -0.151521E-08  0.174E-03    2.41      25.8  T
   9    -11.2001636  0.151691E-07  0.181E-03    2.41      24.7  T
  10    -11.2001637 -0.229169E-07  0.194E-04    2.41     230.9  T
  11    -11.2001637 -0.829736E-11  0.160E-05    2.41    2792.9  T
     SCC iter.                  ...        0 min,  0.001 sec
     gradient                   ...        0 min,  0.001 sec
 * total energy  :   -11.0700433 Eh     change       -0.4195665E-02 Eh
   gradient norm :     0.0191131 Eh/α   predicted    -0.3534586E-02 ( -15.76%)
   displ. norm   :     0.1405771 α      lambda       -0.1385915E-02
   maximum displ.:     0.1035481 α      in ANC's #8, #4, #1, ...

........................................................................
.............................. CYCLE   11 ..............................
........................................................................
   1    -11.1994447 -0.111994E+02  0.105E+00    2.44       0.0  T
   2    -11.1995329 -0.882093E-04  0.603E-01    2.47       1.0  T
   3    -11.1990522  0.480680E-03  0.298E-01    2.42       1.0  T
   4    -11.1991893 -0.137044E-03  0.206E-01    2.45       1.0  T
   5    -11.1995938 -0.404508E-03  0.284E-02    2.46       1.6  T
   6    -11.1995953 -0.146210E-05  0.128E-02    2.46       3.5  T
   7    -11.1995953 -0.872898E-07  0.199E-03    2.46      22.5  T
   8    -11.1995953 -0.194309E-09  0.748E-04    2.46      59.8  T
   9    -11.1995953  0.239893E-08  0.760E-04    2.46      58.8  T
     SCC iter.                  ...        0 min,  0.001 sec
     gradient                   ...        0 min,  0.001 sec
 * total energy  :   -11.0708262 Eh     change       -0.7828839E-03 Eh
   gradient norm :     0.0070671 Eh/α   predicted    -0.7066512E-03 (  -9.74%)
   displ. norm   :     0.0235052 α      lambda       -0.1268377E-03
   maximum displ.:     0.0213840 α      in ANC's #8, #2, #9, ...

........................................................................
.............................. CYCLE   12 ..............................
........................................................................
   1    -11.1995894 -0.111996E+02  0.193E-01    2.48       0.0  T
   2    -11.1995966 -0.722865E-05  0.106E-01    2.47       1.0  T
   3    -11.1995931  0.353770E-05  0.414E-02    2.48       1.1  T
   4    -11.1995961 -0.299729E-05  0.187E-02    2.48       2.4  T
   5    -11.1995985 -0.244439E-05  0.940E-03    2.48       4.8  T
   6    -11.1995991 -0.611650E-06  0.294E-03    2.48      15.2  T
   7    -11.1995992 -0.805117E-08  0.478E-04    2.48      93.6  T
   8    -11.1995992 -0.296748E-09  0.369E-04    2.48     121.0  T
     SCC iter.                  ...        0 min,  0.001 sec
     gradient                   ...        0 min,  0.001 sec
 * total energy  :   -11.0708651 Eh     change       -0.3898280E-04 Eh
   gradient norm :     0.0036231 Eh/α   predicted    -0.6345474E-04 (  62.78%)
   displ. norm   :     0.0170558 α      lambda       -0.3194777E-04
   maximum displ.:     0.0132109 α      in ANC's #1, #4, #8, ...

........................................................................
.............................. CYCLE   13 ..............................
........................................................................
   1    -11.1983463 -0.111983E+02  0.131E-01    2.49       0.0  T
   2    -11.1983528 -0.648297E-05  0.761E-02    2.50       1.0  T
   3    -11.1983527  0.103374E-06  0.446E-02    2.49       1.0  T
   4    -11.1983537 -0.964300E-06  0.181E-02    2.49       2.5  T
   5    -11.1983564 -0.272123E-05  0.656E-03    2.49       6.8  T
   6    -11.1983567 -0.307811E-06  0.198E-03    2.49      22.6  T
   7    -11.1983567 -0.172054E-08  0.290E-04    2.49     154.1  T
   8    -11.1983567 -0.873079E-11  0.565E-05    2.49     791.5  T
     SCC iter.                  ...        0 min,  0.001 sec
     gradient                   ...        0 min,  0.001 sec
 * total energy  :   -11.0708764 Eh     change       -0.1121659E-04 Eh
   gradient norm :     0.0011713 Eh/α   predicted    -0.1597951E-04 (  42.46%)
   displ. norm   :     0.0131151 α      lambda       -0.5170771E-05
   maximum displ.:     0.0080754 α      in ANC's #1, #8, #4, ...

........................................................................
.............................. CYCLE   14 ..............................
........................................................................
   1    -11.1989683 -0.111990E+02  0.107E-01    2.48       0.0  T
   2    -11.1989701 -0.187025E-05  0.610E-02    2.48       1.0  T
   3    -11.1989683  0.180093E-05  0.297E-02    2.49       1.5  T
   4    -11.1989705 -0.221849E-05  0.885E-03    2.48       5.1  T
   5    -11.1989710 -0.491811E-06  0.497E-03    2.48       9.0  T
   6    -11.1989712 -0.162028E-06  0.145E-03    2.48      30.9  T
   7    -11.1989712 -0.270785E-08  0.248E-04    2.48     180.4  T
   8    -11.1989712 -0.190727E-10  0.484E-05    2.48     924.7  T
     SCC iter.                  ...        0 min,  0.001 sec
     gradient                   ...        0 min,  0.001 sec
 * total energy  :   -11.0708764 Eh     change       -0.4198926E-08 Eh
   gradient norm :     0.0009925 Eh/α   predicted    -0.2586192E-05 (*******%)
   displ. norm   :     0.0058941 α      lambda       -0.2842261E-05
   maximum displ.:     0.0039102 α      in ANC's #2, #1, #8, ...

   *** GEOMETRY OPTIMIZATION CONVERGED AFTER 14 ITERATIONS ***

------------------------------------------------------------------------
 total energy gain   :        -0.1604363 Eh     -100.6753 kcal/mol
 total RMSD          :         0.9723383 a0        0.5145 Å
 total power (kW/mol):       -30.0875398 (step)-7906.4695 (real)
------------------------------------------------------------------------

 ANCopt (total)                0 d,  0 h,  0 min,  0.053 sec
 optimizer setup                ...        0 min,  0.000 sec (  0.120%)
 model hessian                  ...        0 min,  0.000 sec (  0.175%)
 ANC generation                 ...        0 min,  0.000 sec (  0.086%)
 coordinate transformation      ...        0 min,  0.000 sec (  0.053%)
 single point calculation       ...        0 min,  0.052 sec ( 97.594%)
 optimization log               ...        0 min,  0.000 sec (  0.621%)
 hessian update                 ...        0 min,  0.000 sec (  0.088%)
 rational function              ...        0 min,  0.000 sec (  0.521%)

================
 final structure:
================
5
 xtb: 6.2.2 (9d81278992624c895f80dd42a50cac0aa55982e2)
N        -0.68892384983456   -0.60926215239971    0.00404378390006
C         0.28286660124232    0.24230504514677    0.89802019751208
C         0.26912615624544    0.24591059684750   -0.90125689025024
C        -0.64910685543820    0.87512311421644    0.00670913657736
C         0.78603694778500   -0.75407660381101   -0.00751522773926

 Bond Distances (Angstroems)
 ---------------------------
N1-C2=1.5712         N1-C3=1.5712         N1-C4=1.4849         N1-C5=1.4821         C2-N1=1.5712         C2-C3=1.7993         
C2-C4=1.4365         C2-C5=1.4373         C3-N1=1.5712         C3-C2=1.7993         C3-C4=1.4365         C3-C5=1.4373         
C4-N1=1.4849         C4-C2=1.4365         C4-C3=1.4365         C5-N1=1.4821         C5-C2=1.4373         C5-C3=1.4373         
 C  C  Rav=1.5094 sigma=0.1450  Rmin=1.4365  Rmax=1.7993     5
 N  C  Rav=1.5274 sigma=0.0439  Rmin=1.4821  Rmax=1.5712     4

 selected bond angles (degree)
 --------------------
C3-N1-C2= 69.86                C4-N1-C2= 55.99                C4-N1-C3= 55.99                C5-N1-C2= 56.07                
C5-N1-C3= 56.07                C5-N1-C4= 94.07                C3-C2-N1= 55.07                C4-C2-N1= 58.97                
C4-C2-C3= 51.22                C5-C2-N1= 58.83                C5-C2-C3= 51.25                C5-C2-C4= 98.14                
C2-C3-N1= 55.07                C4-C3-N1= 58.97                C4-C3-C2= 51.22                C5-C3-N1= 58.83                
C5-C3-C2= 51.25                C5-C3-C4= 98.14                C2-C4-N1= 65.05                C3-C4-N1= 65.05                
C3-C4-C2= 77.56                C2-C5-N1= 65.10                C3-C5-N1= 65.10                C3-C5-C2= 77.50                

 selected dihedral angles (degree)
 ---------------------------------
C3-C2-N1-C4=298.12            C3-C2-N1-C5= 61.98            C4-C2-N1-C3= 61.88            C4-C2-N1-C5=123.86            
C5-C2-N1-C3=298.02            C5-C2-N1-C4=236.14            C2-C3-N1-C4= 61.88            C2-C3-N1-C5=298.02            
C4-C3-N1-C2=298.12            C4-C3-N1-C5=236.14            C5-C3-N1-C2= 61.98            C5-C3-N1-C4=123.86            
N1-C3-C2-C4=284.21            N1-C3-C2-C5= 75.58            C4-C3-C2-N1= 75.79            C4-C3-C2-C5=151.36            
C5-C3-C2-N1=284.42            C5-C3-C2-C4=208.64            C2-C4-N1-C3=272.62            C2-C4-N1-C5=316.31            
C3-C4-N1-C2= 87.38            C3-C4-N1-C5= 43.69            N1-C4-C2-C3= 68.05            N1-C4-C2-C5= 45.87            
C3-C4-C2-N1=291.95            C3-C4-C2-C5=337.82            N1-C4-C3-C2=291.95            N1-C4-C3-C5=314.13            
C2-C4-C3-N1= 68.05            C2-C4-C3-C5= 22.18            C2-C5-N1-C3= 87.27            C2-C5-N1-C4= 43.64            
C3-C5-N1-C2=272.73            C3-C5-N1-C4=316.36            N1-C5-C2-C3=291.87            N1-C5-C2-C4=314.05            
C3-C5-C2-N1= 68.13            C3-C5-C2-C4= 22.17            N1-C5-C3-C2= 68.13            N1-C5-C3-C4= 45.95            
C2-C5-C3-N1=291.87            C2-C5-C3-C4=337.83            
           -------------------------------------------------
          |                Final Singlepoint                |
           -------------------------------------------------

          ...................................................
          :                      SETUP                      :
          :.................................................:
          :  # basis functions                  20          :
          :  # atomic orbitals                  20          :
          :  # shells                           10          :
          :  # electrons                        21          :
          :  max. iterations                   250          :
          :  Hamiltonian                  GFN2-xTB          :
          :  restarted?                      false          :
          :  GBSA solvation                  false          :
          :  PC potential                    false          :
          :  electronic temp.          300.0000000     K    :
          :  accuracy                    1.0000000          :
          :  -> integral cutoff          0.2500000E+02      :
          :  -> integral neglect         0.1000000E-07      :
          :  -> SCF convergence          0.1000000E-05 Eh   :
          :  -> wf. convergence          0.1000000E-03 e    :
          :  Broyden damping             0.4000000          :
          ...................................................

 iter      E             dE          RMSdq      gap      omega  full diag
   1    -11.1989712 -0.111990E+02  0.518E-05    2.48       0.0  T
   2    -11.1989712  0.259774E-10  0.710E-05    2.48     630.2  T
   3    -11.1989712 -0.405684E-10  0.129E-05    2.48    3478.0  T

   *** convergence criteria satisfied after 3 iterations ***

         #    Occupation            Energy/Eh            Energy/eV
      -------------------------------------------------------------
         1        2.0000           -0.7940884             -21.6082
       ...           ...                  ...                  ...
         5        2.0000           -0.5507482             -14.9866
         6        2.0000           -0.5396946             -14.6858
         7        2.0000           -0.5042134             -13.7203
         8        2.0000           -0.5014570             -13.6453
         9        2.0000           -0.4971668             -13.5286
        10        2.0000           -0.4770778             -12.9819
        11        1.0000           -0.4216473             -11.4736 (HOMO)
        12                         -0.3304646              -8.9924 (LUMO)
        13                         -0.2449648              -6.6658
        14                         -0.2372440              -6.4557
        15                         -0.0976233              -2.6565
        16                         -0.0620923              -1.6896
       ...                                ...                  ...
        20                          0.4138790              11.2622
      -------------------------------------------------------------
                  HL-Gap            0.0911827 Eh            2.4812 eV
             Fermi-level           -0.4127093 Eh          -11.2304 eV

 SCC (total)                   0 d,  0 h,  0 min,  0.003 sec
 SCC setup                      ...        0 min,  0.000 sec (  1.502%)
 Dispersion                     ...        0 min,  0.000 sec (  0.279%)
 integral evaluation            ...        0 min,  0.001 sec ( 39.629%)
 zeroth order Hamiltonian       ...        0 min,  0.000 sec (  0.454%)
 iterations                     ...        0 min,  0.000 sec ( 11.096%)
 molecular gradient             ...        0 min,  0.001 sec ( 44.796%)
 printout                       ...        0 min,  0.000 sec (  2.001%)

         :::::::::::::::::::::::::::::::::::::::::::::::::::::
         ::                     SUMMARY                     ::
         :::::::::::::::::::::::::::::::::::::::::::::::::::::
         :: total energy             -11.070876360587 Eh    ::
         :: gradient norm              0.000992713385 Eh/a0 ::
         :: HOMO-LUMO gap              2.481206831213 eV    ::
         ::.................................................::
         :: SCC energy               -11.198971205694 Eh    ::
         :: -> isotropic ES           -0.004767173425 Eh    ::
         :: -> anisotropic ES          0.005315643255 Eh    ::
         :: -> anisotropic XC          0.006978824105 Eh    ::
         :: -> dispersion             -0.002479526552 Eh    ::
         :: repulsion energy           0.128094831218 Eh    ::
         :: add. restraining           0.000000000000 Eh    ::
         :::::::::::::::::::::::::::::::::::::::::::::::::::::

           ------------------------------------------------- 
          |                Numerical Hessian                |
           ------------------------------------------------- 
step length          :   0.00500
SCC accuracy         :   0.30000
Hessian scale factor :   1.00000
frozen atoms in %    :   0.00000    0
RMS gradient         :   0.00099
estimated CPU  time      0.00 min
estimated wall time      0.00 min

writing file <hessian>.

 projected vibrational frequencies (cm-1)
eigval :       -0.00    -0.00    -0.00    -0.00     0.00     0.00
eigval :      297.08   431.69   696.55   774.74  1041.62  1051.70
eigval :     1082.31  1325.23  1422.90
           -------------------------------------------------
          |                Property Printout                |
           -------------------------------------------------

    * Orbital Energies and Occupations

         #    Occupation            Energy/Eh            Energy/eV
      -------------------------------------------------------------
         1        2.0000           -0.7940884             -21.6082
         2        2.0000           -0.6840479             -18.6139
         3        2.0000           -0.6660462             -18.1240
         4        2.0000           -0.6416018             -17.4589
         5        2.0000           -0.5507482             -14.9866
         6        2.0000           -0.5396946             -14.6858
         7        2.0000           -0.5042134             -13.7203
         8        2.0000           -0.5014570             -13.6453
         9        2.0000           -0.4971668             -13.5286
        10        2.0000           -0.4770778             -12.9819
        11        1.0000           -0.4216473             -11.4736 (HOMO)
        12                         -0.3304646              -8.9924 (LUMO)
        13                         -0.2449648              -6.6658
        14                         -0.2372440              -6.4557
        15                         -0.0976232              -2.6565
        16                         -0.0620923              -1.6896
        17                          0.0814926               2.2175
        18                          0.0942251               2.5640
        19                          0.2324173               6.3244
        20                          0.4138790              11.2622
      -------------------------------------------------------------
                  HL-Gap            0.0911827 Eh            2.4812 eV
             Fermi-level           -0.4127092 Eh          -11.2304 eV

     #   Z        covCN         q      C6AA      α(0)
     1   7 N      3.594    -0.084    22.867     7.102
     2   6 C      3.691     0.016    20.490     6.478
     3   6 C      3.691     0.016    20.490     6.478
     4   6 C      3.043     0.026    27.381     8.582
     5   6 C      3.043     0.026    27.380     8.582

 Mol. C6AA /au·bohr⁶  :        589.070007
 Mol. C8AA /au·bohr⁸  :      16198.156682
 Mol. α(0) /au        :         37.222106


Wiberg/Mayer (AO) data.
largest (>0.10) Wiberg bond orders for each atom
          total WBO             WBO to atom ...
     1  N   2.977        C    5 0.793    C    4 0.789    C    2 0.697    C    3 0.697
     2  C   3.218        C    4 0.966    C    5 0.964    N    1 0.697    C    3 0.591
     3  C   3.218        C    4 0.966    C    5 0.964    N    1 0.697    C    2 0.591
     4  C   2.945        C    3 0.966    C    2 0.966    N    1 0.789    C    5 0.224
     5  C   2.944        C    3 0.964    C    2 0.964    N    1 0.793    C    4 0.224

MOs/occ written to file <molden.input>


molecular dipole:
                 x           y           z       tot (Debye)
 q only:        0.133       0.117      -0.001
   full:       -0.022      -0.018       0.000       0.072
molecular quadrupole (traceless):
                xx          xy          yy          xz          yz          zz
 q only:       -0.093      -0.340      -0.008       0.001       0.002       0.100
  q+dip:       -0.128      -0.559       0.018       0.001       0.004       0.111
   full:       -0.093       0.392      -0.178       0.004      -0.004       0.271

           -------------------------------------------------
          |                Geometry Summary                 |
           -------------------------------------------------

      molecular mass/u    :       62.0496468
   center of mass at/Å    :       -0.0221611      -0.0195982       0.0001304
  moments of inertia/u·Å² :        0.3469775E+02   0.4356499E+02   0.4775320E+02
rotational constants/cm⁻¹ :        0.4858422E+00   0.3869536E+00   0.3530158E+00

 * 5 selected distances

     #   Z        #   Z                                     value/Å
     2   6 C      4   6 C                                 1.4364779
     3   6 C      4   6 C                                 1.4364757 (min)
     1   7 N      5   6 C                                 1.4820979 (max)
     2   6 C      5   6 C                                 1.4373417
     3   6 C      5   6 C                                 1.4373397

 * 2 distinct bonds (by element types)

   Z      Z             #   av. dist./Å        max./Å        min./Å
   6 C    6 C           4     1.4369087     1.4373417     1.4364757
   6 C    7 N           1     1.4820979     1.4820979     1.4820979

           -------------------------------------------------
          |               Frequency Printout                |
           -------------------------------------------------
 projected vibrational frequencies (cm-1)
eigval :       -0.00    -0.00    -0.00    -0.00     0.00     0.00
eigval :      297.08   431.69   696.55   774.74  1041.62  1051.70
eigval :     1082.31  1325.23  1422.90
 reduced masses (amu)
   1: 12.31   2: 12.69   3: 12.87   4: 12.22   5: 12.24   6: 12.23   7: 12.01   8: 12.74
   9: 12.97  10: 12.02  11: 13.38  12: 12.01  13: 12.18  14: 12.08  15: 12.18
 IR intensities (amu)
   1:  0.05   2:  0.03   3:  0.01   4:  0.02   5:  0.06   6:  0.03   7:  0.29   8:  1.10
   9:  0.09  10:  0.19  11:  1.04  12:  0.05  13:  1.17  14:  1.14  15:  0.15
 Raman intensities (amu)
   1:  0.00   2:  0.00   3:  0.00   4:  0.00   5:  0.00   6:  0.00   7:  0.00   8:  0.00
   9:  0.00  10:  0.00  11:  0.00  12:  0.00  13:  0.00  14:  0.00  15:  0.00
 output can be read by thermo (or use thermo option).
 writing <g98.out> molden fake output.
 recommended (thermochemical) frequency scaling factor: 1.0
           -------------------------------------------------
          |             Thermodynamic Functions             |
           -------------------------------------------------
Molecule has the following symmetry elements: (C2) 2*(sigma) 
It seems to be the C2v point group

c2v symmetry found (for desy threshold:  0.10E+00) used in thermo

          ...................................................
          :                      SETUP                      :
          :.................................................:
          :  # frequencies                           9      :
          :  # imaginary freq.                       0      :
          :  linear?                             false      :
          :  only rotor calc.                    false      :
          :  symmetry                              c2v      :
          :  rotational number                       2      :
          :  scaling factor                  1.0000000      :
          :  rotor cutoff                   50.0000000 cm⁻¹ :
          :  imag. cutoff                  -20.0000000 cm⁻¹ :
          :.................................................:

    mode    ω/cm⁻¹     T·S(HO)/kcal·mol⁻¹    T·S(FR)/kcal·mol⁻¹   T·S(vib)
   ------------------------------------------------------------------------
       1    297.08    -0.00000 ( 99.92%)     0.01602 (  0.08%)     0.00001
   ------------------------------------------------------------------------

   temp. (K)  partition function   enthalpy   heat capacity  entropy
                                   cal/mol     cal/K/mol   cal/K/mol   J/K/mol
 298.15  VIB   1.63                  633.009      5.797      3.089
         ROT  0.103E+05              888.752      2.981     21.336
         INT  0.167E+05             1521.761      8.778     24.424
         TR   0.473E+27             1481.254      4.968     38.278
         TOT                        3003.0152    13.7459    62.7025   262.3474

   temp. (K)  partition function   enthalpy   heat capacity  entropy
                                   cal/mol     cal/K/mol   cal/K/mol   J/K/mol
 120.00  VIB   1.04                   32.532      1.114      0.341
         ROT  0.262E+04              357.707      2.981     18.623
         INT  0.271E+04              390.239      4.095     18.964
         TR   0.121E+27              596.178      4.968     33.759
         TOT                         986.4171     9.0631    52.7223   220.5900

   temp. (K)  partition function   enthalpy   heat capacity  entropy
                                   cal/mol     cal/K/mol   cal/K/mol   J/K/mol
 100.00  VIB   1.02                   14.597      0.687      0.178
         ROT  0.199E+04              298.089      2.981     18.079
         INT  0.203E+04              312.686      3.668     18.258
         TR   0.919E+26              496.815      4.968     32.853
         TOT                         809.5007     8.6361    51.1110   213.8485

   temp. (K)  partition function   enthalpy   heat capacity  entropy
                                   cal/mol     cal/K/mol   cal/K/mol   J/K/mol
  80.00  VIB   1.01                    4.615      0.326      0.068
         ROT  0.143E+04              238.471      2.981     17.414
         INT  0.143E+04              243.086      3.307     17.482
         TR   0.657E+26              397.452      4.968     31.745
         TOT                         640.5382     8.2753    49.2278   205.9690

   temp. (K)  partition function   enthalpy   heat capacity  entropy
                                   cal/mol     cal/K/mol   cal/K/mol   J/K/mol
  60.00  VIB   1.00                    0.724      0.088      0.014
         ROT   926.                  178.853      2.981     16.557
         INT   927.                  179.578      3.069     16.570
         TR   0.427E+26              298.089      4.968     30.317
         TOT                         477.6668     8.0373    46.8871   196.1755

   temp. (K)  partition function   enthalpy   heat capacity  entropy
                                   cal/mol     cal/K/mol   cal/K/mol   J/K/mol
  40.00  VIB   1.00                    0.020      0.005      0.000
         ROT   504.                  119.236      2.981     15.348
         INT   504.                  119.255      2.986     15.348
         TR   0.232E+26              198.726      4.968     28.303
         TOT                         317.9812     7.9543    43.6514   182.6374

   temp. (K)  partition function   enthalpy   heat capacity  entropy
                                   cal/mol     cal/K/mol   cal/K/mol   J/K/mol
  20.00  VIB   1.00                    0.000      0.000     -0.001
         ROT   178.                   59.618      2.981     13.282
         INT   178.                   59.618      2.981     13.281
         TR   0.822E+25               99.363      4.968     24.861
         TOT                         158.9808     7.9490    38.1420   159.5860

   temp. (K)  partition function   enthalpy   heat capacity  entropy
                                   cal/mol     cal/K/mol   cal/K/mol   J/K/mol
  10.00  VIB   1.00                    0.000      0.000     -0.002
         ROT   63.0                   29.809      2.981     11.215
         INT   63.0                   29.809      2.981     11.214
         TR   0.290E+25               49.681      4.968     21.419
         TOT                          79.4904     7.9490    32.6331   136.5368

       T/K    H(0)-H(T)+PV         H(T)/Eh          T*S/Eh         G(T)/Eh
   ------------------------------------------------------------------------
    298.15    0.478561E-02    0.232930E-01    0.297920E-01   -0.649895E-02
    120.00    0.157196E-02    0.200794E-01    0.100822E-01    0.999720E-02
    100.00    0.129002E-02    0.197975E-01    0.814506E-02    0.116524E-01
     80.00    0.102076E-02    0.195282E-01    0.627596E-02    0.132522E-01
     60.00    0.761210E-03    0.192686E-01    0.448316E-02    0.147855E-01
     40.00    0.506735E-03    0.190142E-01    0.278252E-02    0.162317E-01
     20.00    0.253352E-03    0.187608E-01    0.121566E-02    0.175451E-01
     10.00    0.126676E-03    0.186341E-01    0.520041E-03    0.181141E-01 (used)
   ------------------------------------------------------------------------

         :::::::::::::::::::::::::::::::::::::::::::::::::::::
         ::                  THERMODYNAMIC                  ::
         :::::::::::::::::::::::::::::::::::::::::::::::::::::
         :: total free energy         -11.052762290707 Eh   ::
         ::.................................................::
         :: total energy              -11.070876360565 Eh   ::
         :: zero point energy           0.018507434994 Eh   ::
         :: G(RRHO) w/o ZPVE           -0.000393365135 Eh   ::
         :: G(RRHO) contrib.            0.018114069859 Eh   ::
         :::::::::::::::::::::::::::::::::::::::::::::::::::::

optimized geometry written to: xtbopt.xyz


           -------------------------------------------------
          | TOTAL ENERGY              -11.070876360565 Eh   |
          | TOTAL ENTHALPY            -11.052242249556 Eh   |
          | TOTAL FREE ENERGY         -11.052762290707 Eh   |
          | GRADIENT NORM               0.000992591624 Eh/α |
          | HOMO-LUMO GAP               2.481206826046 eV   |
           -------------------------------------------------

------------------------------------------------------------------------
 * finished run on 2020/05/12 at 11:44:18.758     
------------------------------------------------------------------------
 total:
 * wall-time:     0 d,  0 h,  0 min,  0.187 sec
 *  cpu-time:     0 d,  0 h,  0 min,  0.186 sec
 * ratio c/w:     0.999 speedup
 SCF:
 * wall-time:     0 d,  0 h,  0 min,  0.005 sec
 *  cpu-time:     0 d,  0 h,  0 min,  0.005 sec
 * ratio c/w:     0.999 speedup
 ANC optimizer:
 * wall-time:     0 d,  0 h,  0 min,  0.057 sec
 *  cpu-time:     0 d,  0 h,  0 min,  0.057 sec
 * ratio c/w:     0.999 speedup
 numerical hessian:
 * wall-time:     0 d,  0 h,  0 min,  0.107 sec
 *  cpu-time:     0 d,  0 h,  0 min,  0.107 sec
 * ratio c/w:     0.999 speedup

