5
 energy: -10.891101252032 gnorm: 0.309770362952 xtb: 6.2.2 (9d81278992624c895f80dd42a50cac0aa55982e2)
C        -1.40603900000000   -0.63361300000000    0.21228900000000
N        -0.27461100000000    0.00320900000000   -0.47771200000000
C         0.84963300000000   -0.04828100000000    0.43870800000000
C        -1.30933900000000    0.81858300000000    0.17520200000000
C         2.14035600000000   -0.13989900000000   -0.34848700000000
5
 energy: -10.983137503214 gnorm: 0.216693356088 xtb: 6.2.2 (9d81278992624c895f80dd42a50cac0aa55982e2)
C        -1.40685648962286   -0.64244002892595    0.19833805996490
N        -0.29003467528164    0.00644349799131   -0.39568525025060
C         0.91733149972911   -0.05493831087922    0.32075541768620
C        -1.30935502253847    0.82661335370498    0.16036287236144
C         2.08891468771385   -0.13567951189112   -0.28377109976194
5
 energy: -10.983841618814 gnorm: 0.698544827402 xtb: 6.2.2 (9d81278992624c895f80dd42a50cac0aa55982e2)
C        -1.42850583126458   -0.65296492112629    0.15801929988749
N        -0.31561920718693    0.01323659687333   -0.20827406901050
C         1.03748541603240   -0.06631731875897    0.13329736195048
C        -1.33011268997745    0.83747455154003    0.11904650239956
C         2.03675231239656   -0.13142990852809   -0.20208909522703
5
 energy: -11.051393488229 gnorm: 0.098729824868 xtb: 6.2.2 (9d81278992624c895f80dd42a50cac0aa55982e2)
C        -1.44764101340697   -0.65464413297503    0.17479773048017
N        -0.36593146234401    0.01658673065469   -0.19665639644781
C         0.97463575093659   -0.06412915873786    0.07278982806663
C        -1.34906033582969    0.84231912316537    0.13474812036635
C         2.18799706064408   -0.14013356210717   -0.18567928246534
5
 energy: -11.060936635017 gnorm: 0.064230215964 xtb: 6.2.2 (9d81278992624c895f80dd42a50cac0aa55982e2)
C        -1.48190253519566   -0.65239956523670    0.15351412305640
N        -0.34602439296930    0.01870322732634   -0.10997416534130
C         1.00439869308235   -0.06645412267378    0.03928250453959
C        -1.38501361040695    0.84286960152407    0.11346468801537
C         2.20854184548956   -0.14272014093993   -0.19628715027007
5
 energy: -11.068527590404 gnorm: 0.041491967755 xtb: 6.2.2 (9d81278992624c895f80dd42a50cac0aa55982e2)
C        -1.48598091385039   -0.64065573872145    0.12593447487627
N        -0.30861358615794    0.01871378002178    0.00506560259347
C         0.99670366787771   -0.06963004898504   -0.01181090299588
C        -1.38901315846521    0.83115745547966    0.08482795128352
C         2.18690399059583   -0.13958644779495   -0.20401712575737
5
 energy: -11.068127124982 gnorm: 0.054629131856 xtb: 6.2.2 (9d81278992624c895f80dd42a50cac0aa55982e2)
C        -1.48810221529867   -0.63029634098423    0.13167973360964
N        -0.33534733326242    0.02017136394210    0.04285135506653
C         0.99453795029042   -0.07537478383621   -0.10605805619933
C        -1.38972981379052    0.82269877863911    0.08767913645323
C         2.21864141206118   -0.13720001776077   -0.15615216893007
5
 energy: -11.069783291868 gnorm: 0.005053191606 xtb: 6.2.2 (9d81278992624c895f80dd42a50cac0aa55982e2)
C        -1.47946152362042   -0.63100284261074    0.12671112723775
N        -0.31315269160695    0.01954667115533    0.03062232225841
C         0.98562327744878   -0.07245386024855   -0.05776509674085
C        -1.38186777118976    0.82113775973705    0.08354643737926
C         2.18885870896836   -0.13722872803308   -0.18311479013457
5
 energy: -11.069827232293 gnorm: 0.004717397798 xtb: 6.2.2 (9d81278992624c895f80dd42a50cac0aa55982e2)
C        -1.48518909562041   -0.62790643209038    0.12820241291163
N        -0.31345420169791    0.01746957557251    0.03518598547179
C         0.98854483934597   -0.07888297005372   -0.06228514810089
C        -1.38386381491046    0.82148390417571    0.08106585275700
C         2.19396227288281   -0.13216507760413   -0.18216910303953
5
 energy: -11.069857508116 gnorm: 0.004840400048 xtb: 6.2.2 (9d81278992624c895f80dd42a50cac0aa55982e2)
C        -1.48846958934242   -0.62414808440139    0.13235800047784
N        -0.31347261499454    0.01470449855981    0.03477930643900
C         0.98716199261251   -0.08802682392264   -0.06581108097621
C        -1.38098620740506    0.82174558958573    0.07880901714173
C         2.19576641912951   -0.12427617982151   -0.18013524308236
5
 energy: -11.069390637817 gnorm: 0.042641452701 xtb: 6.2.2 (9d81278992624c895f80dd42a50cac0aa55982e2)
C        -1.52763323019351   -0.58355818769187    0.18049932064099
N        -0.31143785098935   -0.01512073608887    0.02886765664966
C         0.97456024796930   -0.19762618184599   -0.09294453265790
C        -1.34796266252989    0.82737414726253    0.04791382426657
C         2.21247349574345   -0.03107004163580   -0.16433626889932
5
 energy: -11.069982707308 gnorm: 0.010566928984 xtb: 6.2.2 (9d81278992624c895f80dd42a50cac0aa55982e2)
C        -1.49746163426887   -0.61482433058458    0.14481210239638
N        -0.31084922272826    0.01160800800562    0.03083518211590
C         0.98292943771090   -0.11068910617409   -0.07176773777357
C        -1.37276597582186    0.81924010572089    0.07227356728071
C         2.19814739510809   -0.10533567696784   -0.17615311401943
5
 energy: -11.070103311698 gnorm: 0.012475215780 xtb: 6.2.2 (9d81278992624c895f80dd42a50cac0aa55982e2)
C        -1.50118079218286   -0.61055835063103    0.15297466210485
N        -0.30957153393571    0.01201087121025    0.02820944548566
C         0.98139636538733   -0.12582775386334   -0.07321369904423
C        -1.37036562676786    0.81902523666128    0.06689925336287
C         2.19972158749910   -0.09465100337716   -0.17486966190915
5
 energy: -11.070250129057 gnorm: 0.014303275292 xtb: 6.2.2 (9d81278992624c895f80dd42a50cac0aa55982e2)
C        -1.50697017835611   -0.60545017971754    0.16184698058603
N        -0.30787026036534    0.01089838755983    0.02585011295335
C         0.97906471682734   -0.14299109526659   -0.07502610631837
C        -1.36523490389342    0.81871166911849    0.06086603445981
C         2.20101062578753   -0.08116978169419   -0.17353702168081
5
 energy: -11.051273450982 gnorm: 0.152501246876 xtb: 6.2.2 (9d81278992624c895f80dd42a50cac0aa55982e2)
C        -1.58574784301809   -0.54252415410767    0.28388128165483
N        -0.28067749425575    0.00774256113420   -0.00744001269996
C         0.94680378803448   -0.37054723449982   -0.09375835632749
C        -1.29595940953740    0.81057873153180   -0.02360569361340
C         2.21558095877676    0.09474909594148   -0.15907721901399
5
 energy: -11.070296048892 gnorm: 0.020484890801 xtb: 6.2.2 (9d81278992624c895f80dd42a50cac0aa55982e2)
C        -1.53599223217739   -0.58312695048598    0.18872966704446
N        -0.29918632892729   -0.00854270841258    0.02128032898556
C         0.97186451129391   -0.20986887772439   -0.07230976976390
C        -1.33416259567172    0.82143927102383    0.03738164138689
C         2.19747664548249   -0.01990173440089   -0.17508186765301
5
 energy: -11.070518557442 gnorm: 0.011826022138 xtb: 6.2.2 (9d81278992624c895f80dd42a50cac0aa55982e2)
C        -1.52872121870612   -0.59086274038848    0.18722111892551
N        -0.30173733372779    0.00437082711591    0.01883440701605
C         0.97441730011573   -0.19623215716632   -0.07347736934141
C        -1.34147587388948    0.81836010317687    0.04033177271473
C         2.19751712620765   -0.03563703273798   -0.17290992931489
5
 energy: -11.070611464533 gnorm: 0.002888732295 xtb: 6.2.2 (9d81278992624c895f80dd42a50cac0aa55982e2)
C        -1.52175782026316   -0.59905798512731    0.18298714393939
N        -0.30271712917968    0.01088286110316    0.01898445095871
C         0.97618541009100   -0.18513515700213   -0.06969824250254
C        -1.34745192308595    0.82072499723074    0.04250049015878
C         2.19574146243778   -0.04741571620446   -0.17477384255434
5
 energy: -11.070619112524 gnorm: 0.001079514283 xtb: 6.2.2 (9d81278992624c895f80dd42a50cac0aa55982e2)
C        -1.51840614576808   -0.60095507088692    0.18273609975072
N        -0.30163962929371    0.01523576925070    0.02065867263366
C         0.97561104111373   -0.18310065523086   -0.07010365838306
C        -1.35013898709983    0.82006360614761    0.04177272115917
C         2.19457372104789   -0.05124464928054   -0.17506383516049
5
 energy: -11.070620005868 gnorm: 0.000514472328 xtb: 6.2.2 (9d81278992624c895f80dd42a50cac0aa55982e2)
C        -1.51873390938696   -0.60127025913928    0.18265094945835
N        -0.30148345310861    0.01501915623963    0.02070084121988
C         0.97533447169978   -0.18320596928778   -0.06932881019117
C        -1.34946400655245    0.82034509105394    0.04156059934979
C         2.19434689734825   -0.05088901886651   -0.17558357983684
