[Molden Format]
[Title]
[Atoms] AU
C      1     6 -0.28699956230606E+01 -0.11362203815698E+01  0.34517224011660E+00
N      2     7 -0.56972081945256E+00  0.28385140609543E-01  0.39120855990911E-01
C      3     6  0.18431125903134E+01 -0.34621895340831E+00 -0.13101828108689E+00
C      4     6 -0.25501087596614E+01  0.15502408953753E+01  0.78544338989916E-01
C      5     6  0.41467126118513E+01 -0.96188590732668E-01 -0.33181915400724E+00
[GTO]
           1 0
 s           4   1.0000000000000000     
   51.049363095579913      -0.16312063210127389     
   8.7911227406887544      -0.19911024581000730     
  0.70640422258929825       0.31882047753655751     
  0.26922813413411617       0.12706504184240380     
 p           4   1.0000000000000000     
   5.8263656140800002       0.73716451545209605     
   1.5106896018720002       0.68216371614850257     
  0.53256483288000001       0.35783053929253711     
  0.21202323690600003        5.3983030275847881E-002

           2 0
 s           4   1.0000000000000000     
   63.594024466941008      -0.19234388414721629     
   10.951417231523665      -0.23478107924953728     
  0.87999310257376984       0.37593753901700888     
  0.33538715296521110       0.14982889271862770     
 p           4   1.0000000000000000     
   7.2965040481495080       0.97658666315667420     
   1.8918745450712575       0.90372226730345739     
  0.66694432110824120       0.47404958461536373     
  0.26552202674130870        7.1516067715011844E-002

           3 0
 s           4   1.0000000000000000     
   51.049363095579913      -0.16312063210127389     
   8.7911227406887544      -0.19911024581000730     
  0.70640422258929825       0.31882047753655751     
  0.26922813413411617       0.12706504184240380     
 p           4   1.0000000000000000     
   5.8263656140800002       0.73716451545209605     
   1.5106896018720002       0.68216371614850257     
  0.53256483288000001       0.35783053929253711     
  0.21202323690600003        5.3983030275847881E-002

           4 0
 s           4   1.0000000000000000     
   51.049363095579913      -0.16312063210127389     
   8.7911227406887544      -0.19911024581000730     
  0.70640422258929825       0.31882047753655751     
  0.26922813413411617       0.12706504184240380     
 p           4   1.0000000000000000     
   5.8263656140800002       0.73716451545209605     
   1.5106896018720002       0.68216371614850257     
  0.53256483288000001       0.35783053929253711     
  0.21202323690600003        5.3983030275847881E-002

           5 0
 s           4   1.0000000000000000     
   51.049363095579913      -0.16312063210127389     
   8.7911227406887544      -0.19911024581000730     
  0.70640422258929825       0.31882047753655751     
  0.26922813413411617       0.12706504184240380     
 p           4   1.0000000000000000     
   5.8263656140800002       0.73716451545209605     
   1.5106896018720002       0.68216371614850257     
  0.53256483288000001       0.35783053929253711     
  0.21202323690600003        5.3983030275847881E-002

[MO]
Sym=     1a
Ene=  -0.76080403696364352     
Spin= Alpha
Occup=     2.00000000
           1  0.31920672210170831     
           2  0.11333901934367148     
           3  0.11186178498051451     
           4  -1.9887891550667305E-002
           5  0.45626508985993802     
           6 -0.21994637644952070     
           7   1.2360767268737321E-002
           8   1.8463850219331369E-002
           9   3.8092025371668663E-002
          10  -5.9981680799267426E-002
          11   6.8418309917133036E-003
          12   4.5983750062868487E-003
          13  0.31566836623374533     
          14   9.1168910621627824E-002
          15 -0.14661797927142253     
          16   5.0140009875681932E-003
          17  -7.3821462642189410E-003
          18  -1.2373015678240709E-003
          19   3.4459406282080757E-004
          20   9.3284203026545577E-005
Sym=     2a
Ene=  -0.70630295440702506     
Spin= Alpha
Occup=     2.00000000
           1 -0.13674001674835959     
           2   3.4383640926560176E-002
           3  -5.3393583781481110E-002
           4   1.9997235793187151E-003
           5  0.37399485813935096     
           6  0.39189102775772788     
           7  -3.6403879953325065E-002
           8  -2.9762131507092865E-002
           9  0.45805151877073313     
          10 -0.15273738583239191     
          11   4.5412493406270370E-002
          12   9.3161687412741234E-003
          13 -0.12551614151236867     
          14   5.4655502771140806E-002
          15   4.8917149860675316E-002
          16  -8.8386218217132821E-003
          17  0.14330590095221704     
          18  -9.9316718691523490E-002
          19  -6.3690134709876189E-004
          20   7.9900616004897930E-003
Sym=     3a
Ene=  -0.65223225515156180     
Spin= Alpha
Occup=     2.00000000
           1  -3.0295419823507339E-002
           2   7.4198921202393922E-002
           3  -7.5784143916195423E-002
           4  -3.2925892731643731E-004
           5  0.18932757113235010     
           6  0.12906813276687548     
           7 -0.16994980873351753     
           8   1.7623928204248836E-003
           9 -0.25450343764767608     
          10 -0.36706075568709412     
          11  -4.5423748299858818E-002
          12   3.2765169858504306E-002
          13 -0.18662750453929378     
          14   8.7516388395055909E-003
          15   1.5169030965189342E-002
          16  -2.6906837423439699E-003
          17 -0.51985776976233045     
          18  0.15324023675715459     
          19   1.0821197637911615E-002
          20  -1.2837536593168709E-002
Sym=     4a
Ene=  -0.64461592037731597     
Spin= Alpha
Occup=     2.00000000
           1 -0.37860648439082856     
           2 -0.11949035829834354     
           3  0.10800592161236997     
           4   6.8963109264436138E-004
           5   6.8900294121549632E-002
           6   7.6652351315309383E-002
           7  0.57853211721069731     
           8  -5.9002244128663159E-002
           9 -0.10480401766914987     
          10  -6.9267531005500690E-002
          11  0.15857086004813173     
          12  -9.0168226585531502E-003
          13  0.30252874062170959     
          14  0.19711055809345546     
          15  0.11600536256616481     
          16  -2.7948654679821001E-002
          17 -0.13075088118143585     
          18   3.8621921000722953E-002
          19   3.7736642708405224E-002
          20  -6.3986667635281989E-003
Sym=     5a
Ene=  -0.61233538798627574     
Spin= Alpha
Occup=     2.00000000
           1   2.7300711500059463E-004
           2  -2.3601687512785748E-002
           3  -2.4237656338801934E-002
           4 -0.27177370634716053     
           5   1.1427155432425322E-003
           6  -6.1467685662634136E-002
           7  -6.3029487883138308E-002
           8 -0.70564100022732268     
           9   1.7683032061945997E-003
          10  -1.9408678464704315E-002
          11  -2.2711013006061705E-002
          12 -0.25436232645582452     
          13  -2.5079007909853195E-004
          14  -2.5893843840521156E-002
          15  -2.6397564450087081E-002
          16 -0.29582134689134471     
          17   2.3082000237725779E-003
          18  -5.8236270211438077E-003
          19  -6.0984697144024482E-003
          20  -6.7144060685743995E-002
Sym=     6a
Ene=  -0.54480937400428453     
Spin= Alpha
Occup=     2.00000000
           1 -0.33541604643536271     
           2  0.41512713664293965     
           3 -0.13998757470526621     
           4  -2.4028126497416018E-002
           5  0.19951403608729312     
           6 -0.29042738428403980     
           7  -9.3452861722590225E-003
           8   2.6489057449162790E-002
           9 -0.16380629182899004     
          10  0.16357381766561413     
          11  -2.8904396628891119E-002
          12  -9.3612520553285582E-003
          13 -0.36523945611017400     
          14  0.42784985077625276     
          15   1.9601568875916794E-002
          16  -3.9301897457210924E-002
          17  0.19192941008928360     
          18   6.1438175793550064E-002
          19  -1.4220808605525655E-002
          20  -3.2034063331845084E-003
Sym=     7a
Ene=  -0.49958534754404388     
Spin= Alpha
Occup=     2.00000000
           1  0.44893554265793517     
           2 -0.20313986709849852     
           3 -0.24896908978640014     
           4   3.9887734054581826E-002
           5   1.2304665081551929E-002
           6   4.6232575644959077E-002
           7  0.23200068278867353     
           8  -2.4664665485348611E-002
           9  -9.3053997420868145E-002
          10   3.5212648082806877E-003
          11  0.45171681387501711     
          12  -4.0459240032782479E-002
          13 -0.41163638145660186     
          14  0.14760820330881597     
          15 -0.24235922928625805     
          16   8.6197992745658033E-003
          17   5.6484498978744066E-002
          18   1.4543792478064329E-002
          19  0.29863710123531856     
          20  -2.7648640314580107E-002
Sym=     8a
Ene=  -0.47231335524568246     
Spin= Alpha
Occup=     2.00000000
           1  -1.1697114977876742E-005
           2  -2.8313871124114546E-002
           3  -2.7512023629771013E-002
           4 -0.31256101117370577     
           5   3.1536573945894992E-004
           6  -1.0447335442942565E-003
           7  -3.0065345769253989E-003
           8  -2.5332403193459155E-002
           9  -2.7785351777835730E-003
          10   4.6095355118557446E-002
          11   5.2409770904905596E-002
          12  0.58324052478628852     
          13   1.3748259395037201E-003
          14  -3.0365558739359179E-002
          15  -2.7817412176446624E-002
          16 -0.32476015711419942     
          17   3.3214422730372581E-003
          18   4.2510476897994483E-002
          19   4.6278516625024330E-002
          20  0.51197525145475176     
Sym=     9a
Ene=  -0.44948489326855201     
Spin= Alpha
Occup=     1.99999974
           1  0.24268307324309765     
           2 -0.20395599087220620     
           3 -0.21166002040455495     
           4   3.4947492075675449E-002
           5  -6.4750299327082414E-002
           6  -5.1983710615766447E-002
           7  0.29111545456371735     
           8  -2.0820551482791202E-002
           9  0.16732003685220065     
          10   8.9865106825367747E-002
          11 -0.33909159076070655     
          12   2.5167249185761371E-002
          13 -0.16861527791657779     
          14  0.30404210795767395     
          15 -0.10119871121659822     
          16  -1.9713853124163641E-002
          17 -0.38404016879382979     
          18 -0.31723650673046500     
          19 -0.43282836700699961     
          20   6.5381889447724689E-002
Sym=    10a
Ene=  -0.43836696857605373     
Spin= Alpha
Occup=     1.96911654
           1  0.35309801308929067     
           2  -8.2296934656326676E-002
           3 -0.48392705829471866     
           4   5.1859837480051685E-002
           5   5.3512769193704388E-002
           6   9.1829369944935652E-002
           7   4.0948064866790694E-002
           8  -1.2250906103843282E-002
           9 -0.10221543127771714     
          10  -8.2090307358259659E-002
          11 -0.13906300264789476     
          12   1.7632692115193662E-002
          13  0.30113942930608445     
          14  0.10805275169125982     
          15  0.44815983189794584     
          16  -4.7687465704411992E-002
          17  0.34470775282795363     
          18  0.37159723785386806     
          19 -0.13241536816290492     
          20  -1.8523894525427718E-002
Sym=    11a
Ene=  -0.43181897173663875     
Spin= Alpha
Occup=     1.03088372
           1  -8.9624320116648573E-002
           2 -0.26128123630644023     
           3  0.28439214653142741     
           4  -6.1714395363891394E-004
           5  0.10554804786592180     
           6  0.13030677768391247     
           7  0.15798965238842644     
           8  -2.6263316128318261E-002
           9  -8.9703642434359104E-002
          10 -0.11272601788692854     
          11 -0.23413603155035564     
          12   2.9028871865166180E-002
          13 -0.29433700517421940     
          14  -1.1253734854190767E-003
          15 -0.41849825059883694     
          16   3.8749133850357206E-002
          17  0.38347004494949749     
          18  0.45693367385930261     
          19 -0.27864195568114480     
          20  -1.1415838716994644E-002
Sym=    12a
Ene=  -0.36006811394024613     
Spin= Alpha
Occup=     0.00000000
           1  -8.0673908337171489E-005
           2  -4.7724297435728397E-002
           3  -4.8003976450464274E-002
           4 -0.54102681026540667     
           5  -4.0524929534545544E-004
           6   5.2790227439860310E-002
           7   5.3645548955244642E-002
           8  0.60293770900449439     
           9   8.3195905955284999E-005
          10  -2.9477358403282229E-004
          11   3.8638106581699453E-004
          12   6.0425925830242333E-003
          13  -1.2738975272418574E-004
          14  -3.7256059730707412E-002
          15  -3.7861580410466618E-002
          16 -0.42541419302766936     
          17   6.1927298425306732E-004
          18  -3.9029860006107905E-002
          19  -4.7289490620227623E-002
          20 -0.52977018690114330     
Sym=    13a
Ene=  -0.31264121593456728     
Spin= Alpha
Occup=     0.00000000
           1  -2.2197934175230316E-005
           2  -6.5385945304684195E-002
           3  -6.5971197257065448E-002
           4 -0.74347866257407347     
           5   4.7251312123147856E-005
           6  -4.9639213568723733E-003
           7  -5.0569914609928874E-003
           8  -5.6866436227352039E-002
           9   2.0340264525521318E-005
          10  -1.9818487146402797E-003
          11  -2.1359760276998931E-003
          12  -2.5318147899969591E-002
          13   4.9262609857682919E-005
          14   7.0011911888086267E-002
          15   7.0666433371916221E-002
          16  0.79572617784257582     
          17   8.4754144474324880E-006
          18   5.1086841403646674E-003
          19   5.5463764142794124E-003
          20   6.6541239424911844E-002
Sym=    14a
Ene=  -0.23276669475461667     
Spin= Alpha
Occup=     0.00000000
           1  -2.1277574788066540E-002
           2 -0.27773281994934218     
           3   6.6355387287223705E-002
           4   1.7792723559547301E-002
           5  -9.2539260611792518E-002
           6  -7.0063868879220975E-002
           7  -4.4215468136054002E-002
           8   1.1500217179034253E-002
           9  0.16206889185563111     
          10  -6.7886069135497218E-002
          11 -0.69007583518009175     
          12   6.4333123050405228E-002
          13   2.4731366936334907E-002
          14  0.32892311858076051     
          15  -6.9042414643098321E-003
          16  -2.8759664686189162E-002
          17   2.1350936017572191E-002
          18  -2.4673822987167069E-003
          19  0.79229509782272500     
          20  -6.7644849282734162E-002
Sym=    15a
Ene=  -0.17311585223058823     
Spin= Alpha
Occup=     0.00000000
           1   1.0166318692804918E-003
           2  -6.7000919600968614E-003
           3  -1.2907280788438334E-002
           4 -0.13881825378506302     
           5  -6.4358430096635088E-003
           6   3.9675683707440304E-002
           7   4.3531730273137913E-002
           8  0.47002035069315695     
           9   6.2779489700278898E-003
          10  -7.0019907568219783E-002
          11  -7.0958947527160171E-002
          12 -0.83534802844682543     
          13   6.6655675820440096E-004
          14  -1.6538896465800441E-002
          15  -1.8494551051090786E-002
          16 -0.19122113876131441     
          17  -3.6466531517228992E-005
          18   5.9592946500670763E-002
          19   6.0401439692832279E-002
          20  0.71246092987952436     
Sym=    16a
Ene=   -5.7036570045116995E-002
Spin= Alpha
Occup=     0.00000000
           1  -9.9305154752405821E-004
           2 -0.69142984314169476     
           3  0.42496964542727345     
           4   2.2557354651985519E-002
           5  0.33628989546566540     
           6  -9.0915114778019612E-002
           7 -0.63580667634634225     
           8   6.7214240826473454E-002
           9 -0.26062829507307506     
          10  0.11760853117391490     
          11  0.28146545506349513     
          12  -3.9296488317920937E-002
          13 -0.12687702170369977     
          14  0.46815691150302019     
          15  0.42821853877361093     
          16  -8.0163628474337556E-002
          17   3.7842604599228322E-002
          18 -0.13689351242163067     
          19 -0.17633957993592173     
          20   2.9477271934078182E-002
Sym=    17a
Ene=    1.1833674490199030E-002
Spin= Alpha
Occup=     0.00000000
           1 -0.26779121158978186     
           2 -0.27049203784719922     
           3 -0.33213805286274500     
           4   5.2175480780358649E-002
           5  0.97703095180969124     
           6  -3.2373254527255577E-003
           7  0.17741977077781912     
           8  -1.0489329124326860E-002
           9 -0.58789192808380786     
          10  0.34058699974894679     
          11 -0.28149445598364992     
          12  -1.0026368543558995E-002
          13 -0.11701128320246734     
          14 -0.59587011941663759     
          15  -3.4239785311854518E-003
          16   5.1415216948688738E-002
          17   9.0492448554947633E-002
          18 -0.32052158744629561     
          19  0.13657800761907590     
          20   1.7345068727597990E-002
Sym=    18a
Ene=   0.30368267857027842     
Spin= Alpha
Occup=     0.00000000
           1  0.72994774981477872     
           2  0.42942725658685049     
           3  0.75590890083822682     
           4 -0.10509480872353830     
           5   7.5511565899130981E-002
           6  0.30004765556777130     
           7  0.50429512256771192     
           8  -7.0246810515638483E-002
           9 -0.21716436929765828     
          10  0.10880295327757246     
          11 -0.23117432009724659     
          12   1.0724663738063384E-002
          13 -0.63712540427956443     
          14 -0.14454770919091642     
          15  0.72917889288650406     
          16  -5.2171640631262728E-002
          17   3.8307907741161100E-002
          18  -9.0822437021895838E-002
          19   8.2732463386652980E-002
          20   1.7984830550506466E-004
Sym=    19a
Ene=   0.45723134312927444     
Spin= Alpha
Occup=     0.00000000
           1  0.12890355735304621     
           2  0.29315050651486452     
           3   6.4834325192807780E-003
           4  -2.6819410931993557E-002
           5 -0.28860563431890363     
           6   1.0086698430673218     
           7 -0.24090597136296749     
           8  -6.4843083586830469E-002
           9 -0.89487872347754083     
          10   5.1956705068176519E-002
          11 -0.12854962526453370     
          12   3.5761233719396883E-003
          13  0.49278081171150573     
          14  0.44708638770207126     
          15 -0.43732372860607555     
          16  -1.0722571359228390E-003
          17  0.33573500897334085     
          18 -0.49903635425114889     
          19  -1.0795520507139554E-002
          20   4.0903345114961083E-002
Sym=    20a
Ene=    1.1259083445928624     
Spin= Alpha
Occup=     0.00000000
           1   7.5167392656208337E-002
           2   8.6612441412339244E-002
           3   2.9664995729877262E-002
           4  -1.0304898897524669E-002
           5  0.34337873667160512     
           6  0.68845158921963023     
           7 -0.19088382603730608     
           8  -4.2998456438572398E-002
           9  0.38487467575829576     
          10   1.4030735749060204     
          11   2.1280015297032058E-002
          12 -0.11411032750578702     
          13  0.19157606211112699     
          14  0.15159757783287336     
          15 -0.13512394899315347     
          16  -1.4457962168254066E-003
          17 -0.89640547280878335     
          18  0.88711140927276955     
          19  0.13313485024255103     
          20  -7.9647760988384109E-002
