5
 energy: -8.520541378394 gnorm: 0.293651550891 xtb: 6.2.2 (9d81278992624c895f80dd42a50cac0aa55982e2)
C        -1.18052300000000   -0.16322300000000   -0.49379000000000
C        -0.08001500000000    0.87017400000000   -0.32385600000000
C         1.03903600000000    0.33168000000000    0.55221400000000
C         1.88331100000000   -0.66525900000000   -0.21917500000000
H        -1.66180900000000   -0.37337200000000    0.48460800000000
5
 energy: -8.613000721714 gnorm: 0.160529519463 xtb: 6.2.2 (9d81278992624c895f80dd42a50cac0aa55982e2)
C        -1.16069918564903   -0.06170688347523   -0.44810663256087
C        -0.07105907095300    0.77866752251687   -0.30150546801693
C         1.03301933846391    0.29890848556221    0.43284747651399
C         1.86151193916607   -0.60832982411231   -0.14771093248400
H        -1.66277302102795   -0.40753930049153    0.46447655654782
5
 energy: -8.632806034595 gnorm: 0.162187161027 xtb: 6.2.2 (9d81278992624c895f80dd42a50cac0aa55982e2)
C        -1.15923437453871    0.04998263389605   -0.39213075942479
C        -0.05824934937604    0.68430477121470   -0.28751257729143
C         1.05151989460994    0.26508065745921    0.31180472344044
C         1.85217407716233   -0.54658908912301   -0.07045638260074
H        -1.68621024785751   -0.45277897344695    0.43829599587652
5
 energy: -8.646078716397 gnorm: 0.082717282773 xtb: 6.2.2 (9d81278992624c895f80dd42a50cac0aa55982e2)
C        -1.31462373606552    0.17501646506090   -0.38220190844740
C        -0.06660671539824    0.67476344564784   -0.32008625974046
C         1.04132787864828    0.24150015047932    0.25288091813986
C         2.04096754531165   -0.57105575734768   -0.00526228516861
H        -1.70106497249618   -0.52022430384039    0.45467053521662
5
 energy: -8.649489511302 gnorm: 0.067891771388 xtb: 6.2.2 (9d81278992624c895f80dd42a50cac0aa55982e2)
C        -1.28272477638545    0.08659813799997   -0.33517166967134
C        -0.09528268329325    0.62690689760248   -0.26021078877411
C         1.08232425113774    0.20103414288404    0.23440479299647
C         2.15889180462461   -0.51659391028902   -0.04917966593054
H        -1.86320859608365   -0.39794526819746    0.41015833137953
5
 energy: -8.654136107459 gnorm: 0.058060194203 xtb: 6.2.2 (9d81278992624c895f80dd42a50cac0aa55982e2)
C        -1.32017254352640    0.11751906703837   -0.30855432066109
C        -0.04485798493605    0.54570024916536   -0.27804813928459
C         1.11581740757951    0.18575576092094    0.24061281005604
C         2.17351811489033   -0.45199357834670   -0.05299324016736
H        -1.92430499400739   -0.39698149877796    0.39898389005701
5
 energy: -8.657131078395 gnorm: 0.036069495914 xtb: 6.2.2 (9d81278992624c895f80dd42a50cac0aa55982e2)
C        -1.33833092288523    0.16924656120478   -0.29382846026318
C        -0.05561097019692    0.51177610453434   -0.28544423230456
C         1.09670541744488    0.14637394144890    0.19960644398636
C         2.23814543529672   -0.42784690312157   -0.02618246570452
H        -1.94090895965945   -0.39954970406644    0.40584971428593
5
 energy: -8.654701331629 gnorm: 0.084151838826 xtb: 6.2.2 (9d81278992624c895f80dd42a50cac0aa55982e2)
C        -1.35337307684410    0.21828265318401   -0.29073026087767
C        -0.09581666362145    0.47532333617168   -0.25056235063795
C         1.14412755640768    0.16357640449244    0.13975510748353
C         2.25451416292868   -0.43825621742225    0.01440577102205
H        -1.94945197887081   -0.41892617642588    0.38713273301006
5
 energy: -8.658527136131 gnorm: 0.032900205017 xtb: 6.2.2 (9d81278992624c895f80dd42a50cac0aa55982e2)
C        -1.39370160494676    0.22639881360585   -0.28848944598807
C        -0.08258441879190    0.41278411606213   -0.27463470024491
C         1.10837113674409    0.09028515531912    0.15873747676940
C         2.32738601388127   -0.36647706841076    0.00334460170573
H        -1.95947112688670   -0.36299101657634    0.40104306775788
5
 energy: -8.658451557183 gnorm: 0.033227753902 xtb: 6.2.2 (9d81278992624c895f80dd42a50cac0aa55982e2)
C        -1.34033241547873    0.19030575475612   -0.27707819992993
C        -0.05615035424887    0.43723448683015   -0.28730710435977
C         1.08983194289149    0.09647947627058    0.18650788939879
C         2.27633520354674   -0.36425340247887   -0.02468335964895
H        -1.96968437671063   -0.35976631537797    0.40256177453989
5
 energy: -8.659722052045 gnorm: 0.012536433785 xtb: 6.2.2 (9d81278992624c895f80dd42a50cac0aa55982e2)
C        -1.36583981701210    0.20463139175204   -0.26847060888835
C        -0.06426940350143    0.39305850556633   -0.27553236708671
C         1.12044194523472    0.07934894945183    0.16718105566776
C         2.33616414561717   -0.33663485695795   -0.01878397187710
H        -2.02649687033836   -0.34040398981225    0.39560689218442
5
 energy: -8.660109198455 gnorm: 0.020211343017 xtb: 6.2.2 (9d81278992624c895f80dd42a50cac0aa55982e2)
C        -1.38187727620293    0.21765269547787   -0.27158233377789
C        -0.07640260299661    0.34505285938659   -0.26995342853499
C         1.11867456544357    0.04658962422301    0.15809697413327
C         2.36895396032134   -0.30028334596710   -0.01328021808492
H        -2.02934864656537   -0.30901183312036    0.39672000626456
5
 energy: -8.660557558295 gnorm: 0.013961998559 xtb: 6.2.2 (9d81278992624c895f80dd42a50cac0aa55982e2)
C        -1.37972481957310    0.21397369753222   -0.26610626118376
C        -0.07218548073503    0.31071746371083   -0.26487353413546
C         1.12848654444459    0.02949719742738    0.15664632677259
C         2.38785906380440   -0.26944024555636   -0.02030678487860
H        -2.06443530794086   -0.28474811311407    0.39464125342524
5
 energy: -8.661089042760 gnorm: 0.007707595718 xtb: 6.2.2 (9d81278992624c895f80dd42a50cac0aa55982e2)
C        -1.37023454018910    0.19944759095663   -0.26677534611588
C        -0.06751646678190    0.25326677399773   -0.25443279001107
C         1.13648481974695   -0.00411766483037    0.15994518380015
C         2.40404129084443   -0.21376618507039   -0.03413165728562
H        -2.10277510362038   -0.23483051505359    0.39539560961246
5
 energy: -8.660971009254 gnorm: 0.025143761469 xtb: 6.2.2 (9d81278992624c895f80dd42a50cac0aa55982e2)
C        -1.37609133674237    0.19923404751457   -0.26500594591004
C        -0.06569233268662    0.17592891066463   -0.24574516761741
C         1.14220227628207   -0.05628755083169    0.15339759432987
C         2.44607122364574   -0.14151508290527   -0.04029434819156
H        -2.14648983049881   -0.17736032444222    0.39764886738916
5
 energy: -8.661320342407 gnorm: 0.004037659356 xtb: 6.2.2 (9d81278992624c895f80dd42a50cac0aa55982e2)
C        -1.37548872710169    0.19803385119772   -0.27287056052228
C        -0.06887210603336    0.20161553201321   -0.24501660136235
C         1.14000792175925   -0.03820601884467    0.15496937177447
C         2.42011484873915   -0.16596759321802   -0.03507929087168
H        -2.11576193736335   -0.19547577114823    0.39799808098187
5
 energy: -8.661372794328 gnorm: 0.004397668404 xtb: 6.2.2 (9d81278992624c895f80dd42a50cac0aa55982e2)
C        -1.37271673222240    0.19271732663651   -0.27312511589653
C        -0.06933279343499    0.19186791310391   -0.24129573204819
C         1.14132124528981   -0.04868085184581    0.15256453109597
C         2.42610125877734   -0.15314527793015   -0.03669617352374
H        -2.12537297840976   -0.18275910996446    0.39855349037253
5
 energy: -8.661412729684 gnorm: 0.004746323006 xtb: 6.2.2 (9d81278992624c895f80dd42a50cac0aa55982e2)
C        -1.37378087464143    0.19045907554727   -0.27439130920566
C        -0.06954767170310    0.16949112647180   -0.23621814851610
C         1.14370009672194   -0.06820664262616    0.14662006944836
C         2.43494658928866   -0.12837234968941   -0.03562899187365
H        -2.13531813966606   -0.16337120970349    0.39961938014708
5
 energy: -8.661433018388 gnorm: 0.003098428971 xtb: 6.2.2 (9d81278992624c895f80dd42a50cac0aa55982e2)
C        -1.37387164967746    0.19067496647919   -0.27407720965896
C        -0.06937183356722    0.16852571605472   -0.23607948439200
C         1.14366636085575   -0.07298013070171    0.14348899969286
C         2.43445434074878   -0.12424410904855   -0.03326607185458
H        -2.13487721835986   -0.16197644278364    0.39993476621271
5
 energy: -8.661463647296 gnorm: 0.002380442490 xtb: 6.2.2 (9d81278992624c895f80dd42a50cac0aa55982e2)
C        -1.37477390325191    0.19448161941569   -0.27131287868885
C        -0.06930202887047    0.16984779813628   -0.23857007251439
C         1.14285392435295   -0.08355770249074    0.13543201500829
C         2.43427391195827   -0.11746801004162   -0.02613846658445
H        -2.13305190418884   -0.16330370501960    0.40059040277943
5
 energy: -8.661490606507 gnorm: 0.003129965422 xtb: 6.2.2 (9d81278992624c895f80dd42a50cac0aa55982e2)
C        -1.37566305639198    0.20171991985270   -0.26667347987970
C        -0.06920877531662    0.17439518666027   -0.24442684046702
C         1.14070450632523   -0.09495745235923    0.12651890573965
C         2.43401355814866   -0.11222082920140   -0.01712982319380
H        -2.12984623276528   -0.16893682495234    0.40171223780091
5
 energy: -8.661082415740 gnorm: 0.009780909497 xtb: 6.2.2 (9d81278992624c895f80dd42a50cac0aa55982e2)
C        -1.37632655010339    0.23318582986896   -0.24927721564645
C        -0.07094231838961    0.14065292323741   -0.27422117126859
C         1.13981595390588   -0.08306638597725    0.12971488680281
C         2.43402726276101   -0.11090547120477   -0.00844745977418
H        -2.12657434817379   -0.17986689592425    0.40223195988634
5
 energy: -8.661519578963 gnorm: 0.000973341616 xtb: 6.2.2 (9d81278992624c895f80dd42a50cac0aa55982e2)
C        -1.37567432912662    0.21165355992991   -0.26207928890269
C        -0.07024906329168    0.16467942558858   -0.25447320416122
C         1.13920134053606   -0.10676724816691    0.11918780133071
C         2.43512524591922   -0.10110218830615   -0.00796180587758
H        -2.12840319403700   -0.16846354904544    0.40532749761082
5
 energy: -8.661525131815 gnorm: 0.001034593574 xtb: 6.2.2 (9d81278992624c895f80dd42a50cac0aa55982e2)
C        -1.37587754885823    0.21461157551019   -0.26092821392552
C        -0.07052962067987    0.16282044775360   -0.25872047704003
C         1.13820088157360   -0.11446213983133    0.11420756020154
C         2.43517757599331   -0.09529052139747   -0.00254038398892
H        -2.12697128802884   -0.16767936203500    0.40798251475300
5
 energy: -8.661530794840 gnorm: 0.000759095599 xtb: 6.2.2 (9d81278992624c895f80dd42a50cac0aa55982e2)
C        -1.37603318062987    0.21709435583604   -0.25999242881046
C        -0.07074574964751    0.16320794626977   -0.26483213249471
C         1.13661990278036   -0.11809978574710    0.11008718518835
C         2.43352278711529   -0.09334404668998    0.00331779110138
H        -2.12336375961830   -0.16885846966875    0.41142058501552
5
 energy: -8.661534638261 gnorm: 0.000668320519 xtb: 6.2.2 (9d81278992624c895f80dd42a50cac0aa55982e2)
C        -1.37683859623100    0.21782688708754   -0.26004878910265
C        -0.07095189215540    0.16664918324767   -0.27072548504709
C         1.13506892104301   -0.11814260558999    0.10741368345110
C         2.43186876293823   -0.09511478873618    0.00829636469246
H        -2.11914719559488   -0.17121867600907    0.41506522600626
