      -----------------------------------------------------------      
     |                   =====================                   |     
     |                           x T B                           |     
     |                   =====================                   |     
     |                         S. Grimme                         |     
     |          Mulliken Center for Theoretical Chemistry        |     
     |                    University of Bonn                     |     
      -----------------------------------------------------------      

   * xtb version 6.2.2 (9d81278992624c895f80dd42a50cac0aa55982e2) compiled by '@Darwin' on 04/03/2020

   xtb is free software: you can redistribute it and/or modify it under
   the terms of the GNU Lesser General Public License as published by
   the Free Software Foundation, either version 3 of the License, or
   (at your option) any later version.
   
   xtb is distributed in the hope that it will be useful,
   but WITHOUT ANY WARRANTY; without even the implied warranty of
   MERCHANTABILITY or FITNESS FOR A PARTICULAR PURPOSE.  See the
   GNU Lesser General Public License for more details.
   
   Cite this work as:
   * S. Grimme, C. Bannwarth, P. Shushkov, J. Chem. Theory Comput., 2017,
     13, 1989-2009. DOI: 10.1021/acs.jctc.7b00118
   * C. Bannwarth, S. Ehlert and S. Grimme., J. Chem. Theory Comput., 2019,
     15, 1652-1671. DOI: 10.1021/acs.jctc.8b01176
   * P. Pracht, E. Caldeweyher, S. Ehlert, S. Grimme, ChemRxiv, 2019, preprint.
     DOI: 10.26434/chemrxiv.8326202.v1
   
   for DFT-D4:
   * E. Caldeweyher, C. Bannwarth and S. Grimme, J. Chem. Phys., 2017,
     147, 034112. DOI: 10.1063/1.4993215
   * E. Caldeweyher, S. Ehlert, A. Hansen, H. Neugebauer, S. Spicher,
     C. Bannwarth and S. Grimme, J. Chem. Phys., 2019, 150, 154122.
     DOI: 10.1063/1.5090222
   
   for sTDA-xTB:
   * S. Grimme and C. Bannwarth, J. Chem. Phys., 2016, 145, 054103.
     DOI: 10.1063/1.4959605
   
   in the mass-spec context:
   * V. Asgeirsson, C. Bauer and S. Grimme, Chem. Sci., 2017, 8, 4879.
     DOI: 10.1039/c7sc00601b
   
   for metadynamics refer to:
   * S. Grimme, J. Chem. Theory Comput., 2019, 155, 2847-2862
     DOI: 10.1021/acs.jctc.9b00143
   
   with help from (in alphabetical order)
   C. Bannwarth, F. Bohle, G. Brandenburg, E. Caldeweyher, M. Checinski,
   S. Dohm, S. Ehlert, S. Ehrlich, F. März, H. Neugebauer, J. Pisarek,
   P. Pracht, P. Shushkov, and S. Spicher.
   
 * started run on 2020/05/12 at 11:45:08.697     

           -------------------------------------------------
          |                Calculation Setup                |
           -------------------------------------------------

          program call               : xtb --input H1C4_2_S_3.input H1C4_2_S_3.xyz --ohess --molden --namespace H1C4_2_S_3 output.out
          calculation namespace      : H1C4_2_S_3
          coordinate file            : H1C4_2_S_3.xyz
          number of atoms            :                     5
          number of electrons        :                    17
          charge                     :                     0
          spin                       :                   1.5
          first test random number   :      0.21553302677865

   ID    Z sym.   atoms
    1    6 C      1-4
    2    1 H      5

           -------------------------------------------------
          |                 G F N 2 - x T B                 |
           -------------------------------------------------

        Reference                      10.1021/acs.jctc.8b01176
      * Hamiltonian:
        H0-scaling (s, p, d)           1.850000    2.230000    2.230000
        zeta-weighting                 0.500000
      * Dispersion:
        s8                             2.700000
        a1                             0.520000
        a2                             5.000000
        s9                             5.000000
      * Repulsion:
        kExp                           1.500000    1.000000
        rExp                           1.000000
      * Coulomb:
        alpha                          2.000000
        third order                    shell-resolved
        anisotropic                    true
        a3                             3.000000
        a5                             4.000000
        cn-shift                       1.200000
        cn-exp                         4.000000
        max-rad                        5.000000


          ...................................................
          :                      SETUP                      :
          :.................................................:
          :  # basis functions                  17          :
          :  # atomic orbitals                  17          :
          :  # shells                            9          :
          :  # electrons                        17          :
          :  max. iterations                   250          :
          :  Hamiltonian                  GFN2-xTB          :
          :  restarted?                      false          :
          :  GBSA solvation                  false          :
          :  PC potential                    false          :
          :  electronic temp.          300.0000000     K    :
          :  accuracy                    1.0000000          :
          :  -> integral cutoff          0.2500000E+02      :
          :  -> integral neglect         0.1000000E-07      :
          :  -> SCF convergence          0.1000000E-05 Eh   :
          :  -> wf. convergence          0.1000000E-03 e    :
          :  Broyden damping             0.4000000          :
          ...................................................

 iter      E             dE          RMSdq      gap      omega  full diag
   1     -8.5386964 -0.853870E+01  0.923E+00    1.23       0.0  T
   2     -7.9966615  0.542035E+00  0.867E+00    1.46       1.0  T
   3     -6.8974179  0.109924E+01  0.114E+01    1.30       1.0  T
   4     -8.4130636 -0.151565E+01  0.471E+00    0.85       1.0  T
   5     -8.5221017 -0.109038E+00  0.286E+00    1.37       1.0  T
   6     -8.5594975 -0.373959E-01  0.182E+00    1.25       1.0  T
   7     -8.5633307 -0.383315E-02  0.165E+00    1.24       1.0  T
   8     -8.5749672 -0.116366E-01  0.742E-01    1.22       1.0  T
   9     -8.5781039 -0.313667E-02  0.178E-01    1.19       1.0  T
  10     -8.5782304 -0.126460E-03  0.554E-02    1.19       1.0  T
  11     -8.5782438 -0.134404E-04  0.292E-02    1.19       1.5  T
  12     -8.5782477 -0.385692E-05  0.505E-03    1.19       8.9  T
  13     -8.5782477 -0.382435E-07  0.318E-03    1.19      14.1  T
  14     -8.5782478 -0.689040E-07  0.111E-03    1.19      40.2  T
  15     -8.5782478 -0.532082E-08  0.242E-04    1.19     184.5  T
  16     -8.5782478 -0.200460E-09  0.639E-05    1.19     700.1  T

   *** convergence criteria satisfied after 16 iterations ***

         #    Occupation            Energy/Eh            Energy/eV
      -------------------------------------------------------------
         1        2.0000           -0.6650288             -18.0964
       ...           ...                  ...                  ...
         4        2.0000           -0.5412928             -14.7293
         5        2.0000           -0.4885110             -13.2931
         6        2.0000           -0.4729724             -12.8702
         7        2.0000           -0.4692495             -12.7689
         8        1.0000           -0.4258469             -11.5879
         9        1.0000           -0.4068935             -11.0721
        10        1.0000           -0.3765070             -10.2453 (HOMO)
        11                         -0.3327122              -9.0536 (LUMO)
        12                         -0.3183073              -8.6616
        13                         -0.2937844              -7.9943
        14                          0.0913688               2.4863
        15                          0.0928692               2.5271
       ...                                ...                  ...
        17                          0.1408237               3.8320
      -------------------------------------------------------------
                  HL-Gap            0.0437948 Eh            1.1917 eV
             Fermi-level           -0.4010742 Eh          -10.9138 eV

 SCC (total)                   0 d,  0 h,  0 min,  0.004 sec
 SCC setup                      ...        0 min,  0.000 sec (  1.952%)
 Dispersion                     ...        0 min,  0.000 sec (  0.385%)
 integral evaluation            ...        0 min,  0.001 sec ( 26.662%)
 zeroth order Hamiltonian       ...        0 min,  0.000 sec (  0.420%)
 iterations                     ...        0 min,  0.002 sec ( 40.319%)
 molecular gradient             ...        0 min,  0.001 sec ( 27.542%)
 printout                       ...        0 min,  0.000 sec (  2.395%)

         :::::::::::::::::::::::::::::::::::::::::::::::::::::
         ::                     SUMMARY                     ::
         :::::::::::::::::::::::::::::::::::::::::::::::::::::
         :: total energy              -8.520541378380 Eh    ::
         :: gradient norm              0.293651820242 Eh/a0 ::
         :: HOMO-LUMO gap              1.191718285026 eV    ::
         ::.................................................::
         :: SCC energy                -8.578247790789 Eh    ::
         :: -> isotropic ES           -0.018699396354 Eh    ::
         :: -> anisotropic ES          0.000474417791 Eh    ::
         :: -> anisotropic XC          0.009629989098 Eh    ::
         :: -> dispersion             -0.002291092076 Eh    ::
         :: repulsion energy           0.057706314626 Eh    ::
         :: add. restraining           0.000000000000 Eh    ::
         :::::::::::::::::::::::::::::::::::::::::::::::::::::

      ----------------------------------------------------------- 
     |                   =====================                   |
     |                        A N C O P T                        |
     |                   =====================                   |
     |               Approximate Normal Coordinate               |
     |                Rational Function Optimizer                |
      ----------------------------------------------------------- 

          ...................................................
          :                      SETUP                      :
          :.................................................:
          :   optimization level            normal          :
          :   max. optcycles                   200          :
          :   ANC micro-cycles                  20          :
          :   degrees of freedom                 9          :
          :.................................................:
          :   RF solver                   davidson          :
          :   write xtbopt.log                true          :
          :   linear?                        false          :
          :   energy convergence         0.5000000E-05 Eh   :
          :   grad. convergence          0.1000000E-02 Eh/α :
          :   maximium RF displ.         1.0000000          :
          :   Hlow (freq-cutoff)         0.1000000E-01      :
          :   Hmax (freq-cutoff)         5.0000000          :
          :   S6 in model hess.         20.0000000          :
          ...................................................

generating ANC from model Hessian ...
Using Lindh-Hessian (1995)
 Shifting diagonal of input Hessian by    7.2304535040398719E-003
 Lowest  eigenvalues of input Hessian
   -0.000000   -0.000000   -0.000000    0.000000    0.000000    0.000000
    0.010000    0.017143    0.041065    0.090835    0.111457    0.613186
    0.752161    0.906746    1.040020
 Highest eigenvalues
    0.090835    0.111457    0.613186    0.752161    0.906746    1.040020


........................................................................
.............................. CYCLE    1 ..............................
........................................................................
   1     -8.5782478 -0.857825E+01  0.136E-05    1.19       0.0  T
   2     -8.5782478  0.288818E-10  0.509E-05    1.19     878.5  T
   3     -8.5782478 -0.284679E-10  0.119E-05    1.19    3755.8  T
     SCC iter.                  ...        0 min,  0.000 sec
     gradient                   ...        0 min,  0.001 sec
 * total energy  :    -8.5205414 Eh     change       -0.1363887E-10 Eh
   gradient norm :     0.2936516 Eh/α   predicted     0.0000000E+00 (-100.00%)
   displ. norm   :     0.4118305 α      lambda       -0.1147319E+00
   maximum displ.:     0.3589771 α      in ANC's #6, #3, #7, ...

........................................................................
.............................. CYCLE    2 ..............................
........................................................................
   1     -8.7279756 -0.872798E+01  0.205E+00    1.78       0.0  T
   2     -8.6611267  0.668490E-01  0.280E+00    1.85       1.0  T
   3     -8.7063246 -0.451979E-01  0.184E+00    1.72       1.0  T
   4     -8.7058132  0.511322E-03  0.168E+00    1.82       1.0  T
   5     -8.7342905 -0.284773E-01  0.205E-01    1.76       1.0  T
   6     -8.7343659 -0.753883E-04  0.143E-01    1.76       1.0  T
   7     -8.7343759 -0.100332E-04  0.110E-01    1.76       1.0  T
   8     -8.7344105 -0.345928E-04  0.777E-03    1.75       5.8  T
   9     -8.7344107 -0.192349E-06  0.268E-03    1.75      16.7  T
  10     -8.7344107 -0.285172E-07  0.105E-03    1.75      42.7  T
  11     -8.7344107 -0.558083E-08  0.154E-04    1.75     291.0  T
  12     -8.7344107 -0.591509E-10  0.238E-05    1.75    1876.3  T
     SCC iter.                  ...        0 min,  0.001 sec
     gradient                   ...        0 min,  0.001 sec
 * total energy  :    -8.6130007 Eh     change       -0.9245934E-01 Eh
   gradient norm :     0.1605182 Eh/α   predicted    -0.6709546E-01 ( -27.43%)
   displ. norm   :     0.4397863 α      lambda       -0.6473184E-01
   maximum displ.:     0.3532075 α      in ANC's #6, #3, #7, ...

........................................................................
.............................. CYCLE    3 ..............................
........................................................................
   1     -8.8757161 -0.887572E+01  0.197E+00    2.16       0.0  T
   2     -8.8721189  0.359723E-02  0.143E+00    2.17       1.0  T
   3     -8.8351174  0.370015E-01  0.208E+00    2.07       1.0  T
   4     -8.8656283 -0.305109E-01  0.101E+00    2.16       1.0  T
   5     -8.8771289 -0.115006E-01  0.134E-01    2.13       1.0  T
   6     -8.8771395 -0.105864E-04  0.996E-02    2.13       1.0  T
   7     -8.8771572 -0.177367E-04  0.469E-02    2.13       1.0  T
   8     -8.8771614 -0.417037E-05  0.779E-03    2.13       5.7  T
   9     -8.8771616 -0.175135E-06  0.103E-03    2.13      43.5  T
  10     -8.8771616 -0.133839E-08  0.274E-04    2.13     163.4  T
  11     -8.8771616 -0.357881E-09  0.760E-05    2.13     588.6  T
     SCC iter.                  ...        0 min,  0.001 sec
     gradient                   ...        0 min,  0.001 sec
 * total energy  :    -8.6328060 Eh     change       -0.1980531E-01 Eh
   gradient norm :     0.1612055 Eh/α   predicted    -0.3862587E-01 (  95.03%)
   displ. norm   :     0.5693104 α      lambda       -0.4059880E-01
   maximum displ.:     0.4062732 α      in ANC's #3, #2, #1, ...

........................................................................
.............................. CYCLE    4 ..............................
........................................................................
   1     -8.8050104 -0.880501E+01  0.173E+00    1.65       0.0  T
   2     -8.7862266  0.187837E-01  0.163E+00    1.64       1.0  T
   3     -8.7652298  0.209969E-01  0.199E+00    1.58       1.0  T
   4     -8.7963283 -0.310986E-01  0.123E+00    1.70       1.0  T
   5     -8.8080277 -0.116994E-01  0.175E-01    1.64       1.0  T
   6     -8.8080707 -0.429753E-04  0.122E-01    1.63       1.0  T
   7     -8.8080906 -0.199136E-04  0.883E-02    1.64       1.0  T
   8     -8.8081025 -0.119116E-04  0.991E-03    1.64       4.5  T
   9     -8.8081028 -0.300115E-06  0.276E-03    1.63      16.2  T
  10     -8.8081028 -0.101259E-07  0.159E-03    1.63      28.2  T
  11     -8.8081028 -0.191567E-07  0.135E-04    1.63     332.2  T
  12     -8.8081028 -0.189324E-10  0.360E-05    1.63    1241.6  T
     SCC iter.                  ...        0 min,  0.001 sec
     gradient                   ...        0 min,  0.001 sec
 * total energy  :    -8.6460787 Eh     change       -0.1327268E-01 Eh
   gradient norm :     0.0825950 Eh/α   predicted    -0.2687872E-01 ( 102.51%)
   displ. norm   :     0.5458312 α      lambda       -0.1419704E-01
   maximum displ.:     0.4818870 α      in ANC's #1, #2, #4, ...

........................................................................
.............................. CYCLE    5 ..............................
........................................................................
   1     -8.8224331 -0.882243E+01  0.128E+00    1.33       0.0  T
   2     -8.8173867  0.504638E-02  0.891E-01    1.32       1.0  T
   3     -8.7771851  0.402017E-01  0.204E+00    1.36       1.0  T
   4     -8.8214818 -0.442967E-01  0.484E-01    1.33       1.0  T
   5     -8.8230638 -0.158205E-02  0.850E-02    1.33       1.0  T
   6     -8.8230963 -0.324897E-04  0.464E-02    1.33       1.0  T
   7     -8.8230976 -0.131866E-05  0.154E-02    1.33       2.9  T
   8     -8.8230992 -0.157864E-05  0.652E-03    1.33       6.9  T
   9     -8.8230993 -0.109777E-06  0.115E-03    1.33      38.8  T
  10     -8.8230993 -0.524109E-08  0.538E-04    1.33      83.1  T
  11     -8.8230993 -0.871076E-09  0.406E-05    1.33    1100.7  T
     SCC iter.                  ...        0 min,  0.001 sec
     gradient                   ...        0 min,  0.001 sec
 * total energy  :    -8.6494895 Eh     change       -0.3410795E-02 Eh
   gradient norm :     0.0672587 Eh/α   predicted    -0.9213398E-02 ( 170.12%)
   displ. norm   :     0.2814123 α      lambda       -0.1126769E-01
   maximum displ.:     0.1835387 α      in ANC's #4, #1, #6, ...

........................................................................
.............................. CYCLE    6 ..............................
........................................................................
   1     -8.8438782 -0.884388E+01  0.842E-01    1.36       0.0  T
   2     -8.8436511  0.227186E-03  0.521E-01    1.37       1.0  T
   3     -8.8281626  0.154885E-01  0.115E+00    1.33       1.0  T
   4     -8.8436833 -0.155207E-01  0.173E-01    1.36       1.0  T
   5     -8.8439212 -0.237879E-03  0.449E-02    1.36       1.0  T
   6     -8.8439292 -0.804696E-05  0.210E-02    1.36       2.1  T
   7     -8.8439309 -0.167620E-05  0.856E-03    1.36       5.2  T
   8     -8.8439312 -0.281058E-06  0.192E-03    1.36      23.3  T
   9     -8.8439312 -0.308603E-08  0.207E-04    1.36     216.2  T
  10     -8.8439312 -0.106589E-09  0.853E-05    1.36     524.5  T
     SCC iter.                  ...        0 min,  0.001 sec
     gradient                   ...        0 min,  0.001 sec
 * total energy  :    -8.6541361 Eh     change       -0.4646596E-02 Eh
   gradient norm :     0.0572335 Eh/α   predicted    -0.6080003E-02 (  30.85%)
   displ. norm   :     0.2231894 α      lambda       -0.4943346E-02
   maximum displ.:     0.1301274 α      in ANC's #2, #1, #6, ...

........................................................................
.............................. CYCLE    7 ..............................
........................................................................
   1     -8.8438434 -0.884384E+01  0.805E-01    1.22       0.0  T
   2     -8.8404881  0.335526E-02  0.705E-01    1.23       1.0  T
   3     -8.8298914  0.105967E-01  0.113E+00    1.19       1.0  T
   4     -8.8440271 -0.141357E-01  0.143E-01    1.22       1.0  T
   5     -8.8441200 -0.928554E-04  0.478E-02    1.21       1.0  T
   6     -8.8441215 -0.153723E-05  0.381E-02    1.21       1.2  T
   7     -8.8441218 -0.280673E-06  0.246E-02    1.21       1.8  T
   8     -8.8441239 -0.205254E-05  0.308E-03    1.21      14.5  T
   9     -8.8441239 -0.103914E-07  0.953E-04    1.21      46.9  T
  10     -8.8441239 -0.284244E-08  0.162E-04    1.21     276.5  T
     SCC iter.                  ...        0 min,  0.001 sec
     gradient                   ...        0 min,  0.001 sec
 * total energy  :    -8.6571311 Eh     change       -0.2994971E-02 Eh
   gradient norm :     0.0358410 Eh/α   predicted    -0.2594796E-02 ( -13.36%)
   displ. norm   :     0.2371728 α      lambda       -0.3941000E-02
   maximum displ.:     0.1753652 α      in ANC's #3, #6, #5, ...

........................................................................
.............................. CYCLE    8 ..............................
........................................................................
   1     -8.8550203 -0.885502E+01  0.798E-01    1.16       0.0  T
   2     -8.8510868  0.393352E-02  0.740E-01    1.12       1.0  T
   3     -8.8419158  0.917097E-02  0.110E+00    1.17       1.0  T
   4     -8.8551142 -0.131984E-01  0.246E-01    1.15       1.0  T
   5     -8.8553632 -0.248909E-03  0.742E-02    1.14       1.0  T
   6     -8.8553790 -0.158412E-04  0.368E-02    1.13       1.2  T
   7     -8.8553791 -0.143052E-06  0.182E-02    1.13       2.5  T
   8     -8.8553815 -0.232464E-05  0.463E-03    1.13       9.7  T
   9     -8.8553815 -0.290102E-07  0.133E-03    1.13      33.7  T
  10     -8.8553815 -0.140885E-08  0.253E-04    1.13     176.5  T
  11     -8.8553815 -0.162249E-09  0.379E-05    1.13    1181.5  T
     SCC iter.                  ...        0 min,  0.002 sec
     gradient                   ...        0 min,  0.001 sec
 * total energy  :    -8.6547013 Eh     change        0.2429747E-02 Eh
   gradient norm :     0.0834407 Eh/α   predicted    -0.2081343E-02 (-185.66%)
   displ. norm   :     0.3126968 α      lambda       -0.8484752E-02
   maximum displ.:     0.2460954 α      in ANC's #1, #2, #3, ...

........................................................................
.............................. CYCLE    9 ..............................
........................................................................
   1     -8.8411506 -0.884115E+01  0.112E+00    1.04       0.0  T
   2     -8.8308399  0.103107E-01  0.113E+00    1.06       1.0  T
   3     -8.8207602  0.100797E-01  0.140E+00    1.02       1.0  T
   4     -8.8417188 -0.209585E-01  0.199E-01    1.05       1.0  T
   5     -8.8418806 -0.161802E-03  0.942E-02    1.04       1.0  T
   6     -8.8418877 -0.711447E-05  0.818E-02    1.04       1.0  T
   7     -8.8419026 -0.148874E-04  0.435E-02    1.04       1.0  T
   8     -8.8419072 -0.464391E-05  0.539E-03    1.04       8.3  T
   9     -8.8419073 -0.224009E-07  0.161E-03    1.04      27.8  T
  10     -8.8419073 -0.258502E-08  0.577E-04    1.04      77.5  T
  11     -8.8419073 -0.919723E-09  0.859E-05    1.04     520.4  T
     SCC iter.                  ...        0 min,  0.001 sec
     gradient                   ...        0 min,  0.001 sec
 * total energy  :    -8.6585271 Eh     change       -0.3825805E-02 Eh
   gradient norm :     0.0326308 Eh/α   predicted    -0.4657190E-02 (  21.73%)
   displ. norm   :     0.1927645 α      lambda       -0.2622195E-02
   maximum displ.:     0.1298803 α      in ANC's #3, #2, #5, ...

........................................................................
.............................. CYCLE   10 ..............................
........................................................................
   1     -8.8623371 -0.886234E+01  0.674E-01    1.12       0.0  T
   2     -8.8622159  0.121232E-03  0.414E-01    1.13       1.0  T
   3     -8.8601829  0.203303E-02  0.545E-01    1.13       1.0  T
   4     -8.8591462  0.103669E-02  0.514E-01    1.11       1.0  T
   5     -8.8624978 -0.335159E-02  0.279E-02    1.13       1.6  T
   6     -8.8624999 -0.219635E-05  0.171E-02    1.13       2.6  T
   7     -8.8625004 -0.414211E-06  0.575E-03    1.13       7.8  T
   8     -8.8625004 -0.606140E-07  0.132E-03    1.13      33.8  T
   9     -8.8625004 -0.210574E-08  0.311E-04    1.13     143.9  T
  10     -8.8625004 -0.190143E-09  0.671E-05    1.13     666.5  T
     SCC iter.                  ...        0 min,  0.001 sec
     gradient                   ...        0 min,  0.001 sec
 * total energy  :    -8.6584516 Eh     change        0.7557895E-04 Eh
   gradient norm :     0.0329795 Eh/α   predicted    -0.1359812E-02 (*******%)
   displ. norm   :     0.2131121 α      lambda       -0.2215124E-02
   maximum displ.:     0.1689486 α      in ANC's #1, #3, #6, ...

........................................................................
.............................. CYCLE   11 ..............................
........................................................................
   1     -8.8504413 -0.885044E+01  0.483E-01    1.03       0.0  T
   2     -8.8503475  0.937514E-04  0.302E-01    1.02       1.0  T
   3     -8.8467230  0.362453E-02  0.578E-01    1.01       1.0  T
   4     -8.8498487 -0.312571E-02  0.232E-01    1.03       1.0  T
   5     -8.8504737 -0.625040E-03  0.221E-02    1.02       2.0  T
   6     -8.8504753 -0.153474E-05  0.126E-02    1.02       3.6  T
   7     -8.8504759 -0.643007E-06  0.367E-03    1.02      12.2  T
   8     -8.8504760 -0.381595E-07  0.882E-04    1.02      50.7  T
   9     -8.8504760 -0.941352E-09  0.166E-04    1.02     269.4  T
     SCC iter.                  ...        0 min,  0.001 sec
     gradient                   ...        0 min,  0.001 sec
 * total energy  :    -8.6597221 Eh     change       -0.1270495E-02 Eh
   gradient norm :     0.0123216 Eh/α   predicted    -0.1157863E-02 (  -8.87%)
   displ. norm   :     0.1636537 α      lambda       -0.8352442E-03
   maximum displ.:     0.1161035 α      in ANC's #1, #2, #6, ...

........................................................................
.............................. CYCLE   12 ..............................
........................................................................
   1     -8.8498982 -0.884990E+01  0.508E-01    0.96       0.0  T
   2     -8.8498848  0.133897E-04  0.313E-01    0.96       1.0  T
   3     -8.8480597  0.182501E-02  0.388E-01    0.96       1.0  T
   4     -8.8498590 -0.179923E-02  0.657E-02    0.96       1.0  T
   5     -8.8499039 -0.448891E-04  0.138E-02    0.96       3.2  T
   6     -8.8499039 -0.209187E-07  0.104E-02    0.96       4.3  T
   7     -8.8499045 -0.571887E-06  0.158E-03    0.96      28.2  T
   8     -8.8499045 -0.596854E-08  0.791E-04    0.96      56.5  T
   9     -8.8499045 -0.147964E-08  0.171E-04    0.96     261.5  T
     SCC iter.                  ...        0 min,  0.001 sec
     gradient                   ...        0 min,  0.001 sec
 * total energy  :    -8.6601092 Eh     change       -0.3871464E-03 Eh
   gradient norm :     0.0197482 Eh/α   predicted    -0.4288040E-03 (  10.76%)
   displ. norm   :     0.1315145 α      lambda       -0.5594984E-03
   maximum displ.:     0.1192799 α      in ANC's #1, #6, #4, ...

........................................................................
.............................. CYCLE   13 ..............................
........................................................................
   1     -8.8509521 -0.885095E+01  0.285E-01    0.92       0.0  T
   2     -8.8508946  0.574912E-04  0.189E-01    0.92       1.0  T
   3     -8.8481787  0.271595E-02  0.468E-01    0.91       1.0  T
   4     -8.8509269 -0.274824E-02  0.636E-02    0.92       1.0  T
   5     -8.8509593 -0.323625E-04  0.894E-03    0.92       5.0  T
   6     -8.8509595 -0.256200E-06  0.356E-03    0.92      12.6  T
   7     -8.8509596 -0.353872E-07  0.596E-04    0.92      75.1  T
   8     -8.8509596 -0.146158E-08  0.296E-04    0.92     151.1  T
     SCC iter.                  ...        0 min,  0.001 sec
     gradient                   ...        0 min,  0.001 sec
 * total energy  :    -8.6605576 Eh     change       -0.4483598E-03 Eh
   gradient norm :     0.0136300 Eh/α   predicted    -0.2845893E-03 ( -36.53%)
   displ. norm   :     0.2108768 α      lambda       -0.8748330E-03
   maximum displ.:     0.1797980 α      in ANC's #1, #6, #3, ...

........................................................................
.............................. CYCLE   14 ..............................
........................................................................
   1     -8.8576177 -0.885762E+01  0.509E-01    0.88       0.0  T
   2     -8.8576084  0.928851E-05  0.312E-01    0.88       1.0  T
   3     -8.8569252  0.683177E-03  0.271E-01    0.87       1.0  T
   4     -8.8572336 -0.308363E-03  0.182E-01    0.87       1.0  T
   5     -8.8576342 -0.400642E-03  0.182E-02    0.87       2.5  T
   6     -8.8576349 -0.654267E-06  0.976E-03    0.87       4.6  T
   7     -8.8576353 -0.365115E-06  0.182E-03    0.87      24.5  T
   8     -8.8576353 -0.547904E-08  0.955E-04    0.87      46.8  T
   9     -8.8576353 -0.112796E-08  0.647E-05    0.87     691.6  T
     SCC iter.                  ...        0 min,  0.001 sec
     gradient                   ...        0 min,  0.001 sec
 * total energy  :    -8.6610890 Eh     change       -0.5314845E-03 Eh
   gradient norm :     0.0075735 Eh/α   predicted    -0.4568692E-03 ( -14.04%)
   displ. norm   :     0.2747474 α      lambda       -0.4650518E-03
   maximum displ.:     0.2393854 α      in ANC's #1, #6, #5, ...

........................................................................
.............................. CYCLE   15 ..............................
........................................................................
   1     -8.8488525 -0.884885E+01  0.736E-01    0.77       0.0  T
   2     -8.8471701  0.168238E-02  0.593E-01    0.77       1.0  T
   3     -8.8337967  0.133734E-01  0.112E+00    0.77       1.0  T
   4     -8.8488935 -0.150968E-01  0.122E-01    0.77       1.0  T
   5     -8.8489847 -0.911941E-04  0.378E-02    0.77       1.2  T
   6     -8.8489863 -0.168054E-05  0.297E-02    0.77       1.5  T
   7     -8.8489878 -0.148712E-05  0.197E-02    0.77       2.3  T
   8     -8.8489888 -0.963664E-06  0.206E-03    0.77      21.7  T
   9     -8.8489888 -0.424534E-08  0.193E-04    0.77     231.8  T
  10     -8.8489888 -0.562803E-10  0.100E-04    0.77     445.8  T
     SCC iter.                  ...        0 min,  0.001 sec
     gradient                   ...        0 min,  0.001 sec
 * total energy  :    -8.6609710 Eh     change        0.1180335E-03 Eh
   gradient norm :     0.0247217 Eh/α   predicted    -0.2500764E-03 (-311.87%)
   displ. norm   :     0.1140067 α      lambda       -0.8224272E-03
   maximum displ.:     0.1078627 α      in ANC's #1, #6, #9, ...

........................................................................
.............................. CYCLE   16 ..............................
........................................................................
   1     -8.8582605 -0.885826E+01  0.332E-01    0.83       0.0  T
   2     -8.8572248  0.103573E-02  0.362E-01    0.83       1.0  T
   3     -8.8569530  0.271807E-03  0.369E-01    0.83       1.0  T
   4     -8.8582838 -0.133082E-02  0.993E-02    0.83       1.0  T
   5     -8.8583429 -0.590554E-04  0.223E-02    0.83       2.0  T
   6     -8.8583445 -0.167960E-05  0.122E-02    0.83       3.7  T
   7     -8.8583449 -0.410231E-06  0.407E-03    0.83      11.0  T
   8     -8.8583450 -0.973301E-07  0.504E-04    0.83      88.7  T
   9     -8.8583450 -0.197277E-09  0.649E-05    0.83     689.3  T
     SCC iter.                  ...        0 min,  0.001 sec
     gradient                   ...        0 min,  0.001 sec
 * total energy  :    -8.6613203 Eh     change       -0.3493332E-03 Eh
   gradient norm :     0.0040181 Eh/α   predicted    -0.4165589E-03 (  19.24%)
   displ. norm   :     0.0506917 α      lambda       -0.8008568E-04
   maximum displ.:     0.0445943 α      in ANC's #1, #7, #6, ...

........................................................................
.............................. CYCLE   17 ..............................
........................................................................
   1     -8.8582975 -0.885830E+01  0.127E-01    0.81       0.0  T
   2     -8.8582866  0.109052E-04  0.850E-02    0.81       1.0  T
   3     -8.8576839  0.602613E-03  0.219E-01    0.81       1.0  T
   4     -8.8582963 -0.612356E-03  0.183E-02    0.81       2.4  T
   5     -8.8582986 -0.229357E-05  0.457E-03    0.81       9.8  T
   6     -8.8582987 -0.676758E-07  0.228E-03    0.81      19.6  T
   7     -8.8582987 -0.143145E-07  0.493E-04    0.81      90.8  T
   8     -8.8582987 -0.148237E-08  0.137E-04    0.81     326.2  T
     SCC iter.                  ...        0 min,  0.001 sec
     gradient                   ...        0 min,  0.001 sec
 * total energy  :    -8.6613728 Eh     change       -0.5245192E-04 Eh
   gradient norm :     0.0042356 Eh/α   predicted    -0.4014571E-04 ( -23.46%)
   displ. norm   :     0.0871253 α      lambda       -0.7114212E-04
   maximum displ.:     0.0694426 α      in ANC's #1, #6, #7, ...

........................................................................
.............................. CYCLE   18 ..............................
........................................................................
   1     -8.8574383 -0.885744E+01  0.241E-01    0.79       0.0  T
   2     -8.8573852  0.530791E-04  0.162E-01    0.79       1.0  T
   3     -8.8550941  0.229112E-02  0.433E-01    0.79       1.0  T
   4     -8.8574415 -0.234736E-02  0.154E-02    0.79       2.9  T
   5     -8.8574427 -0.121483E-05  0.615E-03    0.79       7.3  T
   6     -8.8574427 -0.452681E-07  0.364E-03    0.79      12.3  T
   7     -8.8574428 -0.573478E-07  0.127E-03    0.79      35.1  T
   8     -8.8574428 -0.599759E-08  0.288E-04    0.79     155.5  T
   9     -8.8574428 -0.352475E-09  0.289E-05    0.79    1546.7  T
     SCC iter.                  ...        0 min,  0.001 sec
     gradient                   ...        0 min,  0.001 sec
 * total energy  :    -8.6614127 Eh     change       -0.3993536E-04 Eh
   gradient norm :     0.0044664 Eh/α   predicted    -0.3584143E-04 ( -10.25%)
   displ. norm   :     0.0144948 α      lambda       -0.2523625E-04
   maximum displ.:     0.0073453 α      in ANC's #7, #6, #8, ...

........................................................................
.............................. CYCLE   19 ..............................
........................................................................
   1     -8.8582288 -0.885823E+01  0.637E-02    0.79       0.0  T
   2     -8.8582286  0.195948E-06  0.387E-02    0.79       1.2  T
   3     -8.8582052  0.234035E-04  0.450E-02    0.79       1.0  T
   4     -8.8582263 -0.210471E-04  0.156E-02    0.79       2.9  T
   5     -8.8582290 -0.270798E-05  0.233E-03    0.79      19.2  T
   6     -8.8582290 -0.102324E-07  0.369E-04    0.79     121.1  T
   7     -8.8582290 -0.636362E-10  0.243E-04    0.79     184.1  T
     SCC iter.                  ...        0 min,  0.001 sec
     gradient                   ...        0 min,  0.001 sec
 * total energy  :    -8.6614330 Eh     change       -0.2028870E-04 Eh
   gradient norm :     0.0028804 Eh/α   predicted    -0.1261873E-04 ( -37.80%)
   displ. norm   :     0.0333062 α      lambda       -0.4317048E-04
   maximum displ.:     0.0160687 α      in ANC's #2, #8, #6, ...

........................................................................
.............................. CYCLE   20 ..............................
........................................................................
   1     -8.8589384 -0.885894E+01  0.179E-01    0.79       0.0  T
   2     -8.8589385 -0.910369E-07  0.105E-01    0.79       1.0  T
   3     -8.8589278  0.106428E-04  0.338E-02    0.79       1.3  T
   4     -8.8589335 -0.567053E-05  0.213E-02    0.79       2.1  T
   5     -8.8589388 -0.525596E-05  0.509E-03    0.79       8.8  T
   6     -8.8589389 -0.101636E-06  0.471E-04    0.79      95.0  T
   7     -8.8589389  0.275158E-11  0.287E-04    0.79     155.9  T
     SCC iter.                  ...        0 min,  0.001 sec
     gradient                   ...        0 min,  0.001 sec
 * total energy  :    -8.6614636 Eh     change       -0.3062891E-04 Eh
   gradient norm :     0.0022786 Eh/α   predicted    -0.2160876E-04 ( -29.45%)
   displ. norm   :     0.0420751 α      lambda       -0.3461337E-04
   maximum displ.:     0.0231464 α      in ANC's #2, #5, #8, ...
 * RMSD in coord.:     1.1965479 α      energy gain  -0.1409223E+00 Eh

generating ANC from model Hessian ...
Using Lindh-Hessian (1995)
 Shifting diagonal of input Hessian by    9.9490661920178976E-003
 Lowest  eigenvalues of input Hessian
   -0.000000   -0.000000   -0.000000    0.000000    0.000000    0.000000
    0.010000    0.010830    0.071308    0.197783    0.485952    0.675066
    1.072019    1.596103    2.499095
 Highest eigenvalues
    0.197783    0.485952    0.675066    1.072019    1.596103    2.499095


........................................................................
.............................. CYCLE   21 ..............................
........................................................................
   1     -8.8588841 -0.885888E+01  0.233E-01    0.80       0.0  T
   2     -8.8588842 -0.263905E-07  0.136E-01    0.80       1.0  T
   3     -8.8588474  0.367121E-04  0.547E-02    0.80       1.0  T
   4     -8.8588839 -0.364226E-04  0.108E-02    0.80       4.1  T
   5     -8.8588846 -0.703313E-06  0.607E-03    0.80       7.4  T
   6     -8.8588847 -0.115831E-06  0.110E-03    0.80      40.7  T
   7     -8.8588847 -0.510735E-08  0.478E-04    0.80      93.5  T
   8     -8.8588847 -0.693618E-09  0.193E-04    0.80     231.7  T
     SCC iter.                  ...        0 min,  0.001 sec
     gradient                   ...        0 min,  0.001 sec
 * total energy  :    -8.6614906 Eh     change       -0.2695921E-04 Eh
   gradient norm :     0.0031300 Eh/α   predicted     0.0000000E+00 (-100.00%)
   displ. norm   :     0.1146735 α      lambda       -0.1463945E-03
   maximum displ.:     0.0849841 α      in ANC's #2, #1, #3, ...

........................................................................
.............................. CYCLE   22 ..............................
........................................................................
   1     -8.8564837 -0.885648E+01  0.277E-01    0.80       0.0  T
   2     -8.8564828  0.907935E-06  0.166E-01    0.80       1.0  T
   3     -8.8563132  0.169535E-03  0.122E-01    0.80       1.0  T
   4     -8.8564659 -0.152644E-03  0.405E-02    0.80       1.1  T
   5     -8.8564851 -0.192228E-04  0.597E-03    0.80       7.5  T
   6     -8.8564851  0.398807E-07  0.361E-03    0.80      12.4  T
   7     -8.8564851 -0.599718E-07  0.625E-04    0.80      71.6  T
   8     -8.8564851 -0.454977E-09  0.308E-04    0.80     145.2  T
     SCC iter.                  ...        0 min,  0.001 sec
     gradient                   ...        0 min,  0.001 sec
 * total energy  :    -8.6610824 Eh     change        0.4081908E-03 Eh
   gradient norm :     0.0097807 Eh/α   predicted    -0.7416205E-04 (-118.17%)
   displ. norm   :     0.0946587 α      lambda       -0.8697368E-03
   maximum displ.:     0.0875475 α      in ANC's #1, #2, #3, ...

........................................................................
.............................. CYCLE   23 ..............................
........................................................................
   1     -8.8583037 -0.885830E+01  0.264E-01    0.80       0.0  T
   2     -8.8583011  0.253979E-05  0.159E-01    0.80       1.0  T
   3     -8.8579264  0.374721E-03  0.176E-01    0.80       1.0  T
   4     -8.8582990 -0.372603E-03  0.243E-02    0.80       1.8  T
   5     -8.8583049 -0.588119E-05  0.671E-03    0.80       6.7  T
   6     -8.8583049 -0.129073E-07  0.366E-03    0.80      12.2  T
   7     -8.8583050 -0.723711E-07  0.529E-04    0.80      84.6  T
   8     -8.8583050 -0.549106E-09  0.247E-04    0.80     181.2  T
     SCC iter.                  ...        0 min,  0.001 sec
     gradient                   ...        0 min,  0.001 sec
 * total energy  :    -8.6615196 Eh     change       -0.4371632E-03 Eh
   gradient norm :     0.0009732 Eh/α   predicted    -0.4387634E-03 (   0.37%)
   displ. norm   :     0.0260199 α      lambda       -0.5475782E-05
   maximum displ.:     0.0212082 α      in ANC's #2, #1, #3, ...

........................................................................
.............................. CYCLE   24 ..............................
........................................................................
   1     -8.8579869 -0.885799E+01  0.120E-01    0.81       0.0  T
   2     -8.8579870 -0.599244E-07  0.716E-02    0.81       1.0  T
   3     -8.8579826  0.437448E-05  0.193E-02    0.81       2.3  T
   4     -8.8579866 -0.404477E-05  0.698E-03    0.81       6.4  T
   5     -8.8579870 -0.387699E-06  0.325E-03    0.81      13.8  T
   6     -8.8579871 -0.433611E-07  0.279E-04    0.81     160.4  T
   7     -8.8579871  0.522249E-11  0.170E-04    0.81     263.0  T
     SCC iter.                  ...        0 min,  0.001 sec
     gradient                   ...        0 min,  0.001 sec
 * total energy  :    -8.6615251 Eh     change       -0.5552852E-05 Eh
   gradient norm :     0.0010342 Eh/α   predicted    -0.2739524E-05 ( -50.66%)
   displ. norm   :     0.0227076 α      lambda       -0.5284995E-05
   maximum displ.:     0.0162870 α      in ANC's #3, #2, #1, ...

........................................................................
.............................. CYCLE   25 ..............................
........................................................................
   1     -8.8581919 -0.885819E+01  0.863E-02    0.82       0.0  T
   2     -8.8581911  0.797574E-06  0.528E-02    0.82       1.0  T
   3     -8.8580943  0.968604E-04  0.875E-02    0.82       1.0  T
   4     -8.8581919 -0.976114E-04  0.496E-03    0.82       9.0  T
   5     -8.8581921 -0.175057E-06  0.188E-03    0.82      23.8  T
   6     -8.8581921 -0.382360E-08  0.584E-04    0.82      76.5  T
   7     -8.8581921 -0.163476E-08  0.238E-04    0.82     187.5  T
     SCC iter.                  ...        0 min,  0.001 sec
     gradient                   ...        0 min,  0.001 sec
 * total energy  :    -8.6615308 Eh     change       -0.5663025E-05 Eh
   gradient norm :     0.0007588 Eh/α   predicted    -0.2642476E-05 ( -53.34%)
   displ. norm   :     0.0210982 α      lambda       -0.3978908E-05
   maximum displ.:     0.0196830 α      in ANC's #3, #4, #2, ...

........................................................................
.............................. CYCLE   26 ..............................
........................................................................
   1     -8.8581173 -0.885812E+01  0.614E-02    0.83       0.0  T
   2     -8.8581166  0.647899E-06  0.385E-02    0.83       1.2  T
   3     -8.8580416  0.750538E-04  0.765E-02    0.83       1.0  T
   4     -8.8581173 -0.757604E-04  0.139E-03    0.83      32.1  T
   5     -8.8581173 -0.284146E-08  0.106E-03    0.83      42.1  T
   6     -8.8581173 -0.427485E-08  0.289E-04    0.83     155.0  T
   7     -8.8581173 -0.439950E-10  0.168E-04    0.83     266.6  T
     SCC iter.                  ...        0 min,  0.001 sec
     gradient                   ...        0 min,  0.001 sec
 * total energy  :    -8.6615346 Eh     change       -0.3843421E-05 Eh
   gradient norm :     0.0006683 Eh/α   predicted    -0.1990104E-05 ( -48.22%)
   displ. norm   :     0.0126767 α      lambda       -0.1254672E-05
   maximum displ.:     0.0101227 α      in ANC's #3, #1, #2, ...

   *** GEOMETRY OPTIMIZATION CONVERGED AFTER 26 ITERATIONS ***

------------------------------------------------------------------------
 total energy gain   :        -0.1409933 Eh      -88.4746 kcal/mol
 total RMSD          :         1.2179369 a0        0.6445 Å
 total power (kW/mol):       -14.2376059 (step)-4452.5194 (real)
------------------------------------------------------------------------

 ANCopt (total)                0 d,  0 h,  0 min,  0.083 sec
 optimizer setup                ...        0 min,  0.000 sec (  0.084%)
 model hessian                  ...        0 min,  0.000 sec (  0.153%)
 ANC generation                 ...        0 min,  0.000 sec (  0.157%)
 coordinate transformation      ...        0 min,  0.000 sec (  0.079%)
 single point calculation       ...        0 min,  0.080 sec ( 96.708%)
 optimization log               ...        0 min,  0.001 sec (  0.945%)
 hessian update                 ...        0 min,  0.000 sec (  0.077%)
 rational function              ...        0 min,  0.001 sec (  0.856%)

================
 final structure:
================
5
 xtb: 6.2.2 (9d81278992624c895f80dd42a50cac0aa55982e2)
C        -1.37683859623100    0.21782688708754   -0.26004878910265
C        -0.07095189215540    0.16664918324767   -0.27072548504709
C         1.13506892104301   -0.11814260558999    0.10741368345110
C         2.43186876293823   -0.09511478873618    0.00829636469246
H        -2.11914719559488   -0.17121867600907    0.41506522600626

 Bond Distances (Angstroems)
 ---------------------------
C1-C2=1.3069         C1-H5=1.0762         C2-C1=1.3069         C2-C3=1.2956         C3-C2=1.2956         C3-C4=1.3008         
C4-C3=1.3008         H5-C1=1.0762         
 C  H  Rav=1.0762 sigma=0.0000  Rmin=1.0762  Rmax=1.0762     1
 C  C  Rav=1.3011 sigma=0.0046  Rmin=1.2956  Rmax=1.3069     3

 selected bond angles (degree)
 --------------------
H5-C1-C2=132.86                C3-C2-C1=159.45                C4-C3-C2=154.41                

 selected dihedral angles (degree)
 ---------------------------------
C3-C2-C1-H5=359.47            C4-C3-C2-C1=181.71            
           -------------------------------------------------
          |                Final Singlepoint                |
           -------------------------------------------------

          ...................................................
          :                      SETUP                      :
          :.................................................:
          :  # basis functions                  17          :
          :  # atomic orbitals                  17          :
          :  # shells                            9          :
          :  # electrons                        17          :
          :  max. iterations                   250          :
          :  Hamiltonian                  GFN2-xTB          :
          :  restarted?                      false          :
          :  GBSA solvation                  false          :
          :  PC potential                    false          :
          :  electronic temp.          300.0000000     K    :
          :  accuracy                    1.0000000          :
          :  -> integral cutoff          0.2500000E+02      :
          :  -> integral neglect         0.1000000E-07      :
          :  -> SCF convergence          0.1000000E-05 Eh   :
          :  -> wf. convergence          0.1000000E-03 e    :
          :  Broyden damping             0.4000000          :
          ...................................................

 iter      E             dE          RMSdq      gap      omega  full diag
   1     -8.8581173 -0.885812E+01  0.534E-05    0.83       0.0  T
   2     -8.8581173  0.136957E-10  0.383E-05    0.83    1168.1  T
   3     -8.8581173  0.597087E-10  0.839E-05    0.83     532.8  T

   *** convergence criteria satisfied after 3 iterations ***

         #    Occupation            Energy/Eh            Energy/eV
      -------------------------------------------------------------
         1        2.0000           -0.6604477             -17.9717
       ...           ...                  ...                  ...
         4        2.0000           -0.5386493             -14.6574
         5        2.0000           -0.4977959             -13.5457
         6        2.0000           -0.4871395             -13.2557
         7        2.0000           -0.4390982             -11.9485
         8        1.0000           -0.4195791             -11.4173
         9        1.0000           -0.4037712             -10.9872
        10        1.0000           -0.3199077              -8.7051 (HOMO)
        11        0.0000           -0.2894723              -7.8769 (LUMO)
        12                         -0.1698986              -4.6232
        13                         -0.1276637              -3.4739
        14                          0.1433076               3.8996
        15                          0.2645142               7.1978
       ...                                ...                  ...
        17                          1.1078874              30.1472
      -------------------------------------------------------------
                  HL-Gap            0.0304354 Eh            0.8282 eV
             Fermi-level           -0.3670143 Eh           -9.9870 eV

 SCC (total)                   0 d,  0 h,  0 min,  0.003 sec
 SCC setup                      ...        0 min,  0.000 sec (  2.019%)
 Dispersion                     ...        0 min,  0.000 sec (  0.449%)
 integral evaluation            ...        0 min,  0.001 sec ( 37.930%)
 zeroth order Hamiltonian       ...        0 min,  0.000 sec (  0.523%)
 iterations                     ...        0 min,  0.001 sec ( 19.123%)
 molecular gradient             ...        0 min,  0.001 sec ( 37.357%)
 printout                       ...        0 min,  0.000 sec (  2.193%)

         :::::::::::::::::::::::::::::::::::::::::::::::::::::
         ::                     SUMMARY                     ::
         :::::::::::::::::::::::::::::::::::::::::::::::::::::
         :: total energy              -8.661534638989 Eh    ::
         :: gradient norm              0.000667807366 Eh/a0 ::
         :: HOMO-LUMO gap              0.828189738086 eV    ::
         ::.................................................::
         :: SCC energy                -8.858117333872 Eh    ::
         :: -> isotropic ES           -0.007329857922 Eh    ::
         :: -> anisotropic ES         -0.000770541728 Eh    ::
         :: -> anisotropic XC          0.013947535678 Eh    ::
         :: -> dispersion             -0.002158061573 Eh    ::
         :: repulsion energy           0.196583063019 Eh    ::
         :: add. restraining           0.000000000000 Eh    ::
         :::::::::::::::::::::::::::::::::::::::::::::::::::::

           ------------------------------------------------- 
          |                Numerical Hessian                |
           ------------------------------------------------- 
step length          :   0.00500
SCC accuracy         :   0.30000
Hessian scale factor :   1.00000
frozen atoms in %    :   0.00000    0
RMS gradient         :   0.00067
estimated CPU  time      0.00 min
estimated wall time      0.00 min

writing file <hessian>.

 projected vibrational frequencies (cm-1)
eigval :       -0.00    -0.00    -0.00     0.00     0.00     0.00
eigval :      113.83   189.35   388.90   566.58   743.70  1029.57
eigval :     1443.64  1899.73  3025.20
           -------------------------------------------------
          |                Property Printout                |
           -------------------------------------------------

    * Orbital Energies and Occupations

         #    Occupation            Energy/Eh            Energy/eV
      -------------------------------------------------------------
         1        2.0000           -0.6604478             -17.9717
         2        2.0000           -0.6438761             -17.5208
         3        2.0000           -0.5984592             -16.2849
         4        2.0000           -0.5386497             -14.6574
         5        2.0000           -0.4977961             -13.5457
         6        2.0000           -0.4871396             -13.2557
         7        2.0000           -0.4390981             -11.9485
         8        1.0000           -0.4195792             -11.4173
         9        1.0000           -0.4037712             -10.9872
        10        1.0000           -0.3199078              -8.7051 (HOMO)
        11        0.0000           -0.2894723              -7.8769 (LUMO)
        12                         -0.1698985              -4.6232
        13                         -0.1276637              -3.4739
        14                          0.1433074               3.8996
        15                          0.2645140               7.1978
        16                          0.6677868              18.1714
        17                          1.1078873              30.1471
      -------------------------------------------------------------
                  HL-Gap            0.0304354 Eh            0.8282 eV
             Fermi-level           -0.3670143 Eh           -9.9870 eV

     #   Z        covCN         q      C6AA      α(0)
     1   6 C      1.908    -0.048    32.409     9.194
     2   6 C      1.964     0.020    30.556     8.927
     3   6 C      1.963     0.059    29.581     8.783
     4   6 C      0.983    -0.122    39.874    10.607
     5   1 H      0.926     0.092     1.858     2.131

 Mol. C6AA /au·bohr⁶  :        592.176194
 Mol. C8AA /au·bohr⁸  :      16455.703833
Molecule has the following symmetry elements: (sigma) 
It seems to be the Cs point group
 Mol. α(0) /au        :         39.642647


Wiberg/Mayer (AO) data.
largest (>0.10) Wiberg bond orders for each atom
          total WBO             WBO to atom ...
     1  C   2.778        C    2 1.687    H    5 0.926    C    4 0.100
     2  C   3.516        C    3 1.730    C    1 1.687
     3  C   3.539        C    2 1.730    C    4 1.730
     4  C   1.925        C    3 1.730    C    1 0.100
     5  H   0.947        C    1 0.926

MOs/occ written to file <molden.input>


molecular dipole:
                 x           y           z       tot (Debye)
 q only:       -0.683      -0.035       0.096
   full:       -0.983      -0.173       0.330       2.672
molecular quadrupole (traceless):
                xx          xy          yy          xz          yz          zz
 q only:       -1.193       0.365       0.559      -0.500      -0.029       0.634
  q+dip:       -0.385       0.464       0.039      -0.788      -0.236       0.346
   full:       -3.741       0.634       2.171      -0.695       0.713       1.570

           -------------------------------------------------
          |                Geometry Summary                 |
           -------------------------------------------------

      molecular mass/u    :       49.0508844
   center of mass at/Å    :        0.4753540       0.0384041      -0.0931064
  moments of inertia/u·Å² :        0.1420239E+01   0.1040755E+03   0.1054941E+03
rotational constants/cm⁻¹ :        0.1186957E+02   0.1619750E+00   0.1597969E+00

 * 2 selected distances

     #   Z        #   Z                                     value/Å
     1   6 C      2   6 C                                 1.3069328 (max)
     2   6 C      3   6 C                                 1.2956009 (min)

 * 1 distinct bonds (by element types)

   Z      Z             #   av. dist./Å        max./Å        min./Å
   6 C    6 C           2     1.3012668     1.3069328     1.2956009

           -------------------------------------------------
          |               Frequency Printout                |
           -------------------------------------------------
 projected vibrational frequencies (cm-1)
eigval :       -0.00    -0.00    -0.00     0.00     0.00     0.00
eigval :      113.83   189.35   388.90   566.58   743.70  1029.57
eigval :     1443.64  1899.73  3025.20
 reduced masses (amu)
   1:  6.83   2: 11.82   3: 11.63   4: 11.00   5: 11.80   6: 11.67   7: 11.12   8: 10.26
   9: 11.92  10:  8.03  11:  3.75  12: 11.81  13: 11.64  14: 11.94  15:  1.93
 IR intensities (amu)
   1:  0.34   2:  0.06   3:  0.06   4:  0.13   5:  0.19   6:  0.13   7:  0.36   8:  0.22
   9:  0.17  10:  0.05  11:  0.72  12:  0.38  13:  1.30  14:  1.51  15:  0.18
 Raman intensities (amu)
   1:  0.00   2:  0.00   3:  0.00   4:  0.00   5:  0.00   6:  0.00   7:  0.00   8:  0.00
   9:  0.00  10:  0.00  11:  0.00  12:  0.00  13:  0.00  14:  0.00  15:  0.00
 output can be read by thermo (or use thermo option).
 writing <g98.out> molden fake output.
 recommended (thermochemical) frequency scaling factor: 1.0
           -------------------------------------------------
          |             Thermodynamic Functions             |
           -------------------------------------------------

cs  symmetry found (for desy threshold:  0.10E+00) used in thermo

          ...................................................
          :                      SETUP                      :
          :.................................................:
          :  # frequencies                           9      :
          :  # imaginary freq.                       0      :
          :  linear?                             false      :
          :  only rotor calc.                    false      :
          :  symmetry                               cs      :
          :  rotational number                       1      :
          :  scaling factor                  1.0000000      :
          :  rotor cutoff                   50.0000000 cm⁻¹ :
          :  imag. cutoff                  -20.0000000 cm⁻¹ :
          :.................................................:

    mode    ω/cm⁻¹     T·S(HO)/kcal·mol⁻¹    T·S(FR)/kcal·mol⁻¹   T·S(vib)
   ------------------------------------------------------------------------
       1    113.83    -0.00000 ( 96.41%)     0.00649 (  3.59%)     0.00023
       2    189.35    -0.00000 ( 99.52%)     0.01154 (  0.48%)     0.00006
   ------------------------------------------------------------------------

   temp. (K)  partition function   enthalpy   heat capacity  entropy
                                   cal/mol     cal/K/mol   cal/K/mol   J/K/mol
 298.15  VIB   5.17                 1206.097      7.593      7.294
         ROT  0.954E+04              888.752      2.981     21.190
         INT  0.493E+05             2094.849     10.574     28.484
         TR   0.332E+27             1481.254      4.968     37.578
         TOT                        3576.1029    15.5418    66.0617   276.4021

   temp. (K)  partition function   enthalpy   heat capacity  entropy
                                   cal/mol     cal/K/mol   cal/K/mol   J/K/mol
 120.00  VIB   1.51                  186.727      3.562      2.394
         ROT  0.244E+04              357.707      2.981     18.478
         INT  0.369E+04              544.434      6.543     20.872
         TR   0.849E+26              596.178      4.968     33.058
         TOT                        1140.6119    11.5115    53.9300   225.6429

   temp. (K)  partition function   enthalpy   heat capacity  entropy
                                   cal/mol     cal/K/mol   cal/K/mol   J/K/mol
 100.00  VIB   1.33                  121.212      2.981      1.803
         ROT  0.185E+04              298.089      2.981     17.934
         INT  0.247E+04              419.301      5.962     19.737
         TR   0.646E+26              496.815      4.968     32.153
         TOT                         916.1162    10.9301    51.8900   217.1076

   temp. (K)  partition function   enthalpy   heat capacity  entropy
                                   cal/mol     cal/K/mol   cal/K/mol   J/K/mol
  80.00  VIB   1.19                   67.918      2.334      1.215
         ROT  0.133E+04              238.471      2.981     17.269
         INT  0.158E+04              306.389      5.315     18.484
         TR   0.462E+26              397.452      4.968     31.045
         TOT                         703.8409    10.2827    49.5288   207.2287

   temp. (K)  partition function   enthalpy   heat capacity  entropy
                                   cal/mol     cal/K/mol   cal/K/mol   J/K/mol
  60.00  VIB   1.08                   28.656      1.568      0.658
         ROT   861.                  178.853      2.981     16.411
         INT   931.                  207.510      4.549     17.069
         TR   0.300E+26              298.089      4.968     29.616
         TOT                         505.5989     9.5171    46.6855   195.3322

   temp. (K)  partition function   enthalpy   heat capacity  entropy
                                   cal/mol     cal/K/mol   cal/K/mol   J/K/mol
  40.00  VIB   1.02                    6.114      0.676      0.209
         ROT   469.                  119.236      2.981     15.203
         INT   477.                  125.350      3.657     15.412
         TR   0.163E+26              198.726      4.968     27.603
         TOT                         324.0758     8.6254    43.0149   179.9743

   temp. (K)  partition function   enthalpy   heat capacity  entropy
                                   cal/mol     cal/K/mol   cal/K/mol   J/K/mol
  20.00  VIB   1.00                    0.091      0.037      0.004
         ROT   166.                   59.618      2.981     13.137
         INT   166.                   59.709      3.018     13.140
         TR   0.577E+25               99.363      4.968     24.161
         TOT                         159.0719     7.9865    37.3011   156.0679

   temp. (K)  partition function   enthalpy   heat capacity  entropy
                                   cal/mol     cal/K/mol   cal/K/mol   J/K/mol
  10.00  VIB   1.00                    0.000      0.000     -0.030
         ROT   58.6                   29.809      2.981     11.070
         INT   58.6                   29.809      2.981     11.041
         TR   0.204E+25               49.681      4.968     20.719
         TOT                          79.4904     7.9491    31.7597   132.8827

       T/K    H(0)-H(T)+PV         H(T)/Eh          T*S/Eh         G(T)/Eh
   ------------------------------------------------------------------------
    298.15    0.569888E-02    0.271148E-01    0.313880E-01   -0.427324E-02
    120.00    0.181768E-02    0.232336E-01    0.103131E-01    0.129205E-01
    100.00    0.145992E-02    0.228758E-01    0.826919E-02    0.146066E-01
     80.00    0.112164E-02    0.225376E-01    0.631434E-02    0.162232E-01
     60.00    0.805723E-03    0.222216E-01    0.446389E-02    0.177578E-01
     40.00    0.516448E-03    0.219324E-01    0.274194E-02    0.191904E-01
     20.00    0.253497E-03    0.216694E-01    0.118886E-02    0.204806E-01
     10.00    0.126676E-03    0.215426E-01    0.506124E-03    0.210365E-01 (used)
   ------------------------------------------------------------------------

         :::::::::::::::::::::::::::::::::::::::::::::::::::::
         ::                  THERMODYNAMIC                  ::
         :::::::::::::::::::::::::::::::::::::::::::::::::::::
         :: total free energy          -8.640498170633 Eh   ::
         ::.................................................::
         :: total energy               -8.661534638787 Eh   ::
         :: zero point energy           0.021415915614 Eh   ::
         :: G(RRHO) w/o ZPVE           -0.000379447460 Eh   ::
         :: G(RRHO) contrib.            0.021036468154 Eh   ::
         :::::::::::::::::::::::::::::::::::::::::::::::::::::

optimized geometry written to: xtbopt.xyz


           -------------------------------------------------
          | TOTAL ENERGY               -8.661534638787 Eh   |
          | TOTAL ENTHALPY             -8.639992047117 Eh   |
          | TOTAL FREE ENERGY          -8.640498170633 Eh   |
          | GRADIENT NORM               0.000667264565 Eh/α |
          | HOMO-LUMO GAP               0.828189926268 eV   |
           -------------------------------------------------

------------------------------------------------------------------------
 * finished run on 2020/05/12 at 11:45:08.900     
------------------------------------------------------------------------
 total:
 * wall-time:     0 d,  0 h,  0 min,  0.203 sec
 *  cpu-time:     0 d,  0 h,  0 min,  0.202 sec
 * ratio c/w:     0.997 speedup
 SCF:
 * wall-time:     0 d,  0 h,  0 min,  0.004 sec
 *  cpu-time:     0 d,  0 h,  0 min,  0.004 sec
 * ratio c/w:     0.997 speedup
 ANC optimizer:
 * wall-time:     0 d,  0 h,  0 min,  0.087 sec
 *  cpu-time:     0 d,  0 h,  0 min,  0.087 sec
 * ratio c/w:     0.998 speedup
 numerical hessian:
 * wall-time:     0 d,  0 h,  0 min,  0.094 sec
 *  cpu-time:     0 d,  0 h,  0 min,  0.094 sec
 * ratio c/w:     0.997 speedup

