 Entering Gaussian System
 *********************************************
 Gaussian 98:
 frequency output generated by the xtb code
 *********************************************
                         Standard orientation:
 --------------------------------------------------------------------
  Center     Atomic     Atomic              Coordinates (Angstroms)
  Number     Number      Type              X           Y           Z
 --------------------------------------------------------------------
    1          6             0       -1.376838    0.217834   -0.260044
    2          6             0       -0.070952    0.166649   -0.270726
    3          6             0        1.135069   -0.118148    0.107410
    4          6             0        2.431868   -0.095128    0.008288
    5          1             0       -2.119147   -0.171207    0.415073
 --------------------------------------------------------------------
     1 basis functions        1 primitive gaussians
     1 alpha electrons        1 beta electrons

 Harmonic frequencies (cm**-1), IR intensities (KM/Mole),
 Raman scattering activities (A**4/amu), Raman depolarization ratios,
 reduced masses (AMU), force constants (mDyne/A) and normal coordinates:
                      1                      2                      3
                        a                      a                      a 
 Frequencies --   113.8303               189.3457               388.9040
 Red. masses --    11.1230                10.2618                11.9248
 Frc consts  --     0.0000                 0.0000                 0.0000
 IR Inten    --     0.3557                 0.2226                 0.1688
 Raman Activ --     0.0000                 0.0000                 0.0000
 Depolar     --     0.0000                 0.0000                 0.0000
 Atom AN      X      Y      Z        X      Y      Z        X      Y      Z
   1   6     0.02   0.32   0.21     0.02   0.21  -0.33     0.23  -0.06   0.08
   2   6    -0.01  -0.38  -0.25    -0.04  -0.32   0.53     0.19   0.24  -0.39
   3   6    -0.02  -0.45  -0.29     0.05  -0.19   0.26    -0.17  -0.36   0.58
   4   6     0.01   0.44   0.28     0.03   0.24  -0.37    -0.28   0.19  -0.28
   5   1     0.01   0.24   0.15    -0.22   0.17  -0.29     0.08  -0.03   0.03
                      4                      5                      6
                        a                      a                      a 
 Frequencies --   566.5757               743.7026              1029.5692
 Red. masses --     8.0277                 3.7527                11.8089
 Frc consts  --     0.0000                 0.0000                 0.0000
 IR Inten    --     0.0542                 0.7188                 0.3805
 Raman Activ --     0.0000                 0.0000                 0.0000
 Depolar     --     0.0000                 0.0000                 0.0000
 Atom AN      X      Y      Z        X      Y      Z        X      Y      Z
   1   6     0.02   0.37   0.23    -0.07   0.21  -0.34     0.60  -0.06   0.06
   2   6    -0.02  -0.46  -0.29     0.01  -0.12   0.20     0.18  -0.14   0.22
   3   6     0.01   0.31   0.20     0.03  -0.03   0.04    -0.21   0.20  -0.29
   4   6    -0.00  -0.08  -0.05    -0.16   0.03  -0.04    -0.58  -0.02   0.05
   5   1    -0.02  -0.51  -0.32     0.64  -0.33   0.48     0.03   0.07  -0.11
                      7                      8                      9
                        a                      a                      a 
 Frequencies --  1443.6391              1899.7300              3025.2038
 Red. masses --    11.6408                11.9408                 1.9299
 Frc consts  --     0.0000                 0.0000                 0.0000
 IR Inten    --     1.2995                 1.5129                 0.1810
 Raman Activ --     0.0000                 0.0000                 0.0000
 Depolar     --     0.0000                 0.0000                 0.0000
 Atom AN      X      Y      Z        X      Y      Z        X      Y      Z
   1   6     0.40  -0.01  -0.02    -0.34   0.02   0.00     0.22   0.09  -0.16
   2   6    -0.38  -0.00   0.03     0.73  -0.08   0.08    -0.02   0.00  -0.00
   3   6    -0.61   0.01   0.02    -0.54   0.06  -0.07    -0.02   0.00  -0.00
   4   6     0.53   0.00  -0.03     0.17   0.01  -0.03     0.01   0.00  -0.00
   5   1     0.18  -0.01   0.01    -0.07  -0.02   0.04    -0.68  -0.33   0.58
