[Molden Format]
[Title]
[Atoms] AU
C      1     6 -0.26018471833239E+01  0.41164588653762E+00 -0.49141258112066E+00
C      2     6 -0.13407976864807E+00  0.31492109515102E+00 -0.51159705584079E+00
C      3     6  0.21449687338672E+01 -0.22326802426257E+00  0.20297532722786E+00
C      4     6  0.45955646201249E+01 -0.17976491939593E+00  0.15662127801257E-01
H      5     1 -0.40046064020136E+01 -0.32353403802688E+00  0.78437407165841E+00
[GTO]
           1 0
 s           4   1.0000000000000000     
   51.049363095579913      -0.16312063210127389     
   8.7911227406887544      -0.19911024581000730     
  0.70640422258929825       0.31882047753655751     
  0.26922813413411617       0.12706504184240380     
 p           4   1.0000000000000000     
   5.8263656140800002       0.73716451545209605     
   1.5106896018720002       0.68216371614850257     
  0.53256483288000001       0.35783053929253711     
  0.21202323690600003        5.3983030275847881E-002

           2 0
 s           4   1.0000000000000000     
   51.049363095579913      -0.16312063210127389     
   8.7911227406887544      -0.19911024581000730     
  0.70640422258929825       0.31882047753655751     
  0.26922813413411617       0.12706504184240380     
 p           4   1.0000000000000000     
   5.8263656140800002       0.73716451545209605     
   1.5106896018720002       0.68216371614850257     
  0.53256483288000001       0.35783053929253711     
  0.21202323690600003        5.3983030275847881E-002

           3 0
 s           4   1.0000000000000000     
   51.049363095579913      -0.16312063210127389     
   8.7911227406887544      -0.19911024581000730     
  0.70640422258929825       0.31882047753655751     
  0.26922813413411617       0.12706504184240380     
 p           4   1.0000000000000000     
   5.8263656140800002       0.73716451545209605     
   1.5106896018720002       0.68216371614850257     
  0.53256483288000001       0.35783053929253711     
  0.21202323690600003        5.3983030275847881E-002

           4 0
 s           4   1.0000000000000000     
   51.049363095579913      -0.16312063210127389     
   8.7911227406887544      -0.19911024581000730     
  0.70640422258929825       0.31882047753655751     
  0.26922813413411617       0.12706504184240380     
 p           4   1.0000000000000000     
   5.8263656140800002       0.73716451545209605     
   1.5106896018720002       0.68216371614850257     
  0.53256483288000001       0.35783053929253711     
  0.21202323690600003        5.3983030275847881E-002

           5 0
 s           3   1.0000000000000000     
   3.3702276975336001       0.27359110588908298     
  0.61389118221497996       0.26460540653860526     
  0.16614291148415999        8.2465947534082318E-002

[MO]
Sym=     1a
Ene=  -0.66044781174118006     
Spin= Alpha
Occup=     2.00000000
           1  0.26003909054862417     
           2  0.14070463344778236     
           3  -1.4341215254187505E-002
           4   1.3214515932434341E-002
           5  0.48473052632182695     
           6   4.2468372310847671E-002
           7  -3.0744945740763027E-002
           8   4.7482732106666259E-002
           9  0.44506552432409924     
          10  -6.7972219992461766E-002
          11   3.4419077782997971E-002
          12  -4.8998137792855348E-002
          13  0.22017480402183598     
          14 -0.11157192472584625     
          15   4.1688701025949576E-003
          16  -8.2870656232107872E-004
          17   5.7076769796361122E-002
Sym=     2a
Ene=  -0.64387609041950322     
Spin= Alpha
Occup=     2.00000000
           1  0.37980432625229088     
           2  0.11524295795572519     
           3  -1.2870740222140025E-002
           4   1.2223815019133846E-002
           5  0.23070511718600253     
           6 -0.23469192196969690     
           7   1.1362162369483860E-002
           8  -2.6601613294695826E-003
           9 -0.32145260870435571     
          10 -0.20096661014713219     
          11  -1.9833485708729255E-003
          12   1.3592762075593111E-002
          13 -0.39428110933007221     
          14  0.12909705476538841     
          15   5.2284678770832065E-004
          16  -7.0422787830865356E-003
          17  0.10449600741293004     
Sym=     3a
Ene=  -0.59845920617191051     
Spin= Alpha
Occup=     2.00000000
           1  0.38720010389044024     
           2  -5.4396438731928655E-002
           3  -1.3002506920788439E-002
           4   2.4654368814696275E-002
           5 -0.18863943250167850     
           6 -0.30285747259562190     
           7   4.2677384781429122E-002
           8  -4.6550701824383194E-002
           9  -9.3994393828272543E-002
          10  0.36486751392089101     
          11  -4.2018564248755857E-002
          12   4.7691398729021783E-002
          13  0.41172900299202925     
          14  -3.6441630751397426E-002
          15  -1.1688413001546901E-002
          16   1.9972469165195135E-002
          17  0.19507366691654937     
Sym=     4a
Ene=  -0.53864971982030463     
Spin= Alpha
Occup=     2.00000000
           1 -0.12150720316147690     
           2  0.40239170041674283     
           3  0.13544571129093305     
           4 -0.24514637092424146     
           5  0.17282254030200281     
           6 -0.21284158280369511     
           7  0.13524266249554903     
           8 -0.20107824669896920     
           9 -0.15468993669047140     
          10  0.13974905272507812     
          11   3.9458696861906041E-002
          12  -6.9439417719741228E-002
          13  0.17701431342393212     
          14   4.1637801831204996E-002
          15   1.3252737084246742E-002
          16  -2.3113344044691800E-002
          17 -0.42135403596905907     
Sym=     5a
Ene=  -0.49779609736594982     
Spin= Alpha
Occup=     2.00000000
           1   1.0241087896237704E-003
           2  -1.3177235558620567E-002
           3 -0.29395590135688182     
           4 -0.18506077366690252     
           5   9.0261109759470055E-004
           6  -1.9315057403652896E-002
           7 -0.45262152633859282     
           8 -0.28492181143906842     
           9   2.0363102273175853E-003
          10  -1.4107782085288295E-002
          11 -0.42343168271329412     
          12 -0.26578014163278429     
          13   4.4289963449501866E-004
          14  -7.0871946722577865E-003
          15 -0.22003239129014915     
          16 -0.13800949587975941     
          17   1.3527221170641339E-004
Sym=     6a
Ene=  -0.48713964371866686     
Spin= Alpha
Occup=     2.00000000
           1 -0.14347823740343285     
           2  0.24216559298917370     
           3 -0.11024155544694265     
           4  0.15668338510002416     
           5  -4.1680417096859192E-002
           6 -0.20849238180582011     
           7 -0.22303093861399276     
           8  0.36789279012873100     
           9   8.8630674632417888E-002
          10  -1.7469349243347275E-002
          11 -0.28201073027972917     
          12  0.45138870134148973     
          13   2.1053054008716047E-002
          14   4.6390092863842084E-003
          15 -0.15897285633379296     
          16  0.25359793052368723     
          17 -0.15230188234517941     
Sym=     7a
Ene=  -0.43909810265537763     
Spin= Alpha
Occup=     1.99996544
           1 -0.19225616480568586     
           2   9.9502610880434342E-002
           3 -0.19718817738532451     
           4  0.29894022263624503     
           5  0.10052964527317167     
           6   3.5093981896601505E-002
           7 -0.11189861525453899     
           8  0.16944167725567272     
           9 -0.24196614250337289     
          10 -0.13528884322746132     
          11  0.11248198971950947     
          12 -0.16599465437976157     
          13  0.54128880578858163     
          14  0.51380696341287313     
          15  0.10925135984453938     
          16 -0.19274205857139204     
          17   5.6402085415145090E-002
Sym=     8a
Ene=  -0.41957915098443260     
Spin= Alpha
Occup=     1.00003456
           1  -2.4758532831029583E-003
           2   2.5427657789585396E-002
           3  0.49558101918959924     
           4  0.31683601953770335     
           5   2.6704038604562593E-004
           6   9.3726810753314849E-003
           7  0.24338575388057851     
           8  0.15566492746544924     
           9  -5.5793027685757093E-004
          10  -1.2206176330482373E-002
          11 -0.35429630021151293     
          12 -0.22484403312695089     
          13   2.5453743904742181E-003
          14  -1.0736572073921424E-002
          15 -0.44851760659364304     
          16 -0.28490471023673364     
          17   8.7472376618602006E-005
Sym=     9a
Ene=  -0.40377118291628961     
Spin= Alpha
Occup=     1.00000000
           1 -0.18015626894040507     
           2  0.27147538852728720     
           3 -0.25822315859682227     
           4  0.38549009563707115     
           5  -6.6077277745888924E-002
           6 -0.18649797419059380     
           7  -8.1143284744415123E-002
           8  0.14028921173884373     
           9  -2.8229599183610659E-002
          10  0.23111886032502893     
          11  0.14493283258574827     
          12 -0.24029154771614039     
          13 -0.30582367989818032     
          14 -0.43793865716718322     
          15  0.21304453576809471     
          16 -0.31541625519918259     
          17   9.7296072040159594E-004
Sym=    10a
Ene=  -0.31990776059134046     
Spin= Alpha
Occup=     0.99999989
           1  0.28294261553099420     
           2 -0.14565805797265088     
           3  0.24744964557783714     
           4 -0.38656476484042218     
           5 -0.20990069402227057     
           6 -0.10162468172545440     
           7 -0.26491390667424336     
           8  0.43167435943323551     
           9  0.12085702167784389     
          10 -0.11056436995846551     
          11  -7.0748277281160246E-002
          12  0.11870712039981032     
          13   4.0390401314368780E-002
          14   1.2934068771851378E-002
          15  0.34464319948291655     
          16 -0.55157609082899473     
          17 -0.22897178857999068     
Sym=    11a
Ene=  -0.28947234083057810     
Spin= Alpha
Occup=     0.00000011
           1   1.2292375450990993E-005
           2  -2.4657191514661669E-002
           3 -0.53500583612600205     
           4 -0.33548608285521297     
           5   2.8242457530362991E-004
           6   1.7194290443622862E-002
           7  0.38026867022706512     
           8  0.23860065035646941     
           9  -1.2169202198914874E-003
          10   9.4756379513663714E-003
          11  0.28506945672968853     
          12  0.17759591500474958     
          13  -4.2334783301422213E-004
          14  -1.6718427505442938E-002
          15 -0.57749580668995981     
          16 -0.35933439818092860     
          17  -1.1468980864817461E-004
Sym=    12a
Ene=  -0.16989852416816184     
Spin= Alpha
Occup=     0.00000000
           1 -0.24266436059540894     
           2   8.7586817132385114E-002
           3  -9.4652942856720892E-002
           4  0.14084921296487724     
           5  0.11397484718198030     
           6   2.1832629092270552E-002
           7  0.32755235170315083     
           8 -0.51927993226907010     
           9  0.16780504235833063     
          10  -6.4780010491627932E-002
          11 -0.39782311670579495     
          12  0.63760512084092036     
          13  -2.3517481407498344E-003
          14   6.1495149351141649E-002
          15  0.30588989235058106     
          16 -0.49100211032768704     
          17  0.24802802667445570     
Sym=    13a
Ene=  -0.12766374288201210     
Spin= Alpha
Occup=     0.00000000
           1  -2.5417966453840477E-003
           2   1.3909189414049927E-002
           3  0.36865588774495583     
           4  0.22864596391197650     
           5   4.8428519932171687E-003
           6  -2.5627836212379972E-002
           7 -0.62482743793789020     
           8 -0.39103666155689287     
           9  -5.4735925070109213E-003
          10   2.2821771459329902E-002
          11  0.64214047087214887     
          12  0.40622570139329822     
          13   8.3172269147687057E-004
          14  -1.6808841846948770E-002
          15 -0.41687257700386426     
          16 -0.26384478615616286     
          17   1.7864730507585202E-003
Sym=    14a
Ene=   0.14330736737283203     
Spin= Alpha
Occup=     0.00000000
           1  0.78763437060647756     
           2   7.3123540950263743E-002
           3 -0.30949632591552934     
           4  0.49304437758748343     
           5 -0.62555187501576448     
           6  0.11648031193669321     
           7  0.17263793677015188     
           8 -0.29273934839427618     
           9  0.55657875210917984     
          10  -9.3498163153070454E-002
          11   4.6693639807775460E-002
          12  -5.7310320144749093E-002
          13 -0.18254536248075590     
          14  0.34873230267013899     
          15  -1.4860740023329499E-002
          16   1.9657109007114510E-003
          17 -0.76326390567890801     
Sym=    15a
Ene=   0.26451395757185697     
Spin= Alpha
Occup=     0.00000000
           1 -0.31825007729831178     
           2  0.69497903453261767     
           3  0.20546018924544809     
           4 -0.37543895868884081     
           5 -0.67782958109737868     
           6 -0.20840875320928959     
           7  -4.5744432227240945E-003
           8   1.4307712029332054E-002
           9  0.71584431294027862     
          10  -4.3517197188713490E-002
          11  0.16081465468319081     
          12 -0.24401124518982906     
          13 -0.25965009790451138     
          14  0.43542153984798626     
          15  -4.6891256569779910E-002
          16   5.0343733756869388E-002
          17  0.79602234900876812     
Sym=    16a
Ene=   0.66778675084918215     
Spin= Alpha
Occup=     0.00000000
           1  0.40784755348364282     
           2  0.74566293106042802     
           3   1.8211099048200341E-002
           4  -8.2864688773435377E-002
           5 -0.67518092189047652     
           6  0.62263693217375893     
           7   2.7088558257137824E-002
           8  -8.4469720483874869E-002
           9 -0.65492583001137439     
          10 -0.74314766420279632     
          11  -4.9483492545365673E-002
          12  0.11600318209497305     
          13  0.60015327761092796     
          14 -0.71767663392439796     
          15  -6.0793845693174840E-003
          16   4.3705944561655455E-002
          17  0.24079963994708176     
Sym=    17a
Ene=    1.1078872759761114     
Spin= Alpha
Occup=     0.00000000
           1  0.46012884625075728     
           2  0.60009763426456053     
           3   5.3658806812914905E-002
           4 -0.12900814663799479     
           5  0.26814605213314480     
           6   1.2265639576476766     
           7 -0.22465994147534926     
           8  0.27544951670113099     
           9 -0.34476199938386032     
          10   1.1704253116641223     
          11 -0.18621092837412595     
          12  0.23075966702577455     
          13 -0.48769128847327819     
          14  0.46094919874138512     
          15   5.3625812479985664E-002
          16 -0.10556871710319179     
          17  0.17146111142710363     
