[Molden Format]
[Title]
[Atoms] AU
C      1     6 -0.24818236410976E+00 -0.36109402595273E+01 -0.12873318999923E+01
C      2     6  0.70952046967918E-01  0.10234401283177E+01  0.30820027415717E+00
C      3     6 -0.86017848413104E-01 -0.13539296394244E+01 -0.92921581152831E+00
N      4     7  0.24054587248293E+00  0.31858393840384E+01 -0.48132535736276E+00
H      5     1  0.22700403346066E-01  0.75559038660553E+00  0.23896727947327E+01
[GTO]
           1 0
 s           4   1.0000000000000000     
   51.049363095579913      -0.16312063210127389     
   8.7911227406887544      -0.19911024581000730     
  0.70640422258929825       0.31882047753655751     
  0.26922813413411617       0.12706504184240380     
 p           4   1.0000000000000000     
   5.8263656140800002       0.73716451545209605     
   1.5106896018720002       0.68216371614850257     
  0.53256483288000001       0.35783053929253711     
  0.21202323690600003        5.3983030275847881E-002

           2 0
 s           4   1.0000000000000000     
   51.049363095579913      -0.16312063210127389     
   8.7911227406887544      -0.19911024581000730     
  0.70640422258929825       0.31882047753655751     
  0.26922813413411617       0.12706504184240380     
 p           4   1.0000000000000000     
   5.8263656140800002       0.73716451545209605     
   1.5106896018720002       0.68216371614850257     
  0.53256483288000001       0.35783053929253711     
  0.21202323690600003        5.3983030275847881E-002

           3 0
 s           4   1.0000000000000000     
   51.049363095579913      -0.16312063210127389     
   8.7911227406887544      -0.19911024581000730     
  0.70640422258929825       0.31882047753655751     
  0.26922813413411617       0.12706504184240380     
 p           4   1.0000000000000000     
   5.8263656140800002       0.73716451545209605     
   1.5106896018720002       0.68216371614850257     
  0.53256483288000001       0.35783053929253711     
  0.21202323690600003        5.3983030275847881E-002

           4 0
 s           4   1.0000000000000000     
   63.594024466941008      -0.19234388414721629     
   10.951417231523665      -0.23478107924953728     
  0.87999310257376984       0.37593753901700888     
  0.33538715296521110       0.14982889271862770     
 p           4   1.0000000000000000     
   7.2965040481495080       0.97658666315667420     
   1.8918745450712575       0.90372226730345739     
  0.66694432110824120       0.47404958461536373     
  0.26552202674130870        7.1516067715011844E-002

           5 0
 s           3   1.0000000000000000     
   3.3702276975336001       0.27359110588908298     
  0.61389118221497996       0.26460540653860526     
  0.16614291148415999        8.2465947534082318E-002

[MO]
Sym=     1a
Ene=  -0.68272859800974939     
Spin= Alpha
Occup=     2.00000000
           1   5.8071384763422815E-002
           2   3.2778696156464241E-003
           3   4.6959665401250933E-002
           4   1.3354057767967907E-002
           5  0.51647071803720246     
           6   9.0420694241924830E-003
           7  0.10867397511262021     
           8  -7.5787653982810566E-002
           9  0.21141735442135737     
          10   5.7643390084828701E-003
          11   8.7141325900207206E-002
          12   4.3214421505122197E-002
          13  0.40647916482492846     
          14  -1.6068008216751455E-002
          15 -0.20579506043257206     
          16   7.0740812524886745E-002
          17  0.13203032133582418     
Sym=     2a
Ene=  -0.65812300122159939     
Spin= Alpha
Occup=     2.00000000
           1  0.41798484956553827     
           2   1.2819821840479990E-002
           3  0.18153322175135533     
           4   4.3960144063054415E-002
           5   3.4203799261304630E-003
           6  -1.7408260947983790E-002
           7 -0.24084558693120631     
           8  -1.9939787769317627E-002
           9  0.49821600641048064     
          10  -1.0550591319806246E-002
          11 -0.13938088065497911     
          12   1.3965813044119859E-002
          13 -0.22743493187604835     
          14   4.6864095366480896E-003
          15   5.4861332042591457E-002
          16  -4.8243108773751785E-002
          17   1.8502149543071202E-002
Sym=     3a
Ene=  -0.60868749684727064     
Spin= Alpha
Occup=     2.00000000
           1  0.35317858632059412     
           2   4.0163027865332372E-003
           3   4.9437611201339250E-002
           4  -2.3305792327089979E-002
           5 -0.23803424904371395     
           6   2.7486383730241610E-002
           7  0.35730188845022465     
           8  -9.6741047992142573E-002
           9  -4.7927049172049908E-002
          10  -2.0792292944094147E-002
          11 -0.31512109822717377     
          12 -0.17529269127464792     
          13  0.39705780591580003     
          14  -8.7002199694987629E-004
          15  -9.3351581549623308E-003
          16   1.1330934805116306E-002
          17 -0.19754270240927027     
Sym=     4a
Ene=  -0.57392450997680799     
Spin= Alpha
Occup=     2.00000000
           1 -0.17841021107805030     
           2   3.0062829670647220E-003
           3   3.3526050144109268E-002
           4  -4.0995086692624590E-002
           5  -5.3554640702015419E-002
           6  -1.4118048047234168E-003
           7 -0.11417406884490773     
           8 -0.50231644867140735     
           9  0.16959491211633143     
          10   1.8722677633761280E-002
          11  0.23981446880362634     
          12  -7.8907411163968405E-002
          13   8.1782338129652105E-002
          14  -2.1051579649956731E-003
          15  -8.6031997933362164E-002
          16 -0.30403207603556442     
          17 -0.37058110106234987     
Sym=     5a
Ene=  -0.52327383391912963     
Spin= Alpha
Occup=     2.00000000
           1  -1.8706044796116696E-005
           2  0.18166724424365999     
           3  -1.3393253928153602E-002
           4   2.4842674681784002E-003
           5  -8.4362770328534416E-005
           6  0.57452539835973571     
           7  -4.2105558330791423E-002
           8   7.9627412686536225E-003
           9   1.7100886921998741E-004
          10  0.34185598426856734     
          11  -2.5183881651879562E-002
          12   4.6917397713957506E-003
          13   6.9053999310548879E-005
          14  0.51596770096703304     
          15  -3.7811787127118295E-002
          16   7.1666931432732527E-003
          17   5.5225141739510330E-006
Sym=     6a
Ene=  -0.47358094458067840     
Spin= Alpha
Occup=     2.00000000
           1  -9.3992590752526722E-002
           2  -4.8088811516948833E-003
           3  -3.8431632498912242E-004
           4  0.35042866269753642     
           5 -0.12588098597001993     
           6  -1.2255553609549046E-002
           7 -0.15857922211563616     
           8   4.2228554219520757E-002
           9   3.1670459368475921E-002
          10  -8.9954128631683245E-003
          11  -4.7636385283514319E-002
          12  0.40202053288000450     
          13  0.55476198916874009     
          14   3.7680369101123039E-002
          15  0.47414944476369358     
          16 -0.21567061864392853     
          17   1.3033994430418137E-002
Sym=     7a
Ene=  -0.45681643796478016     
Spin= Alpha
Occup=     1.99999995
           1  0.37126178637617663     
           2  -3.6208639145041410E-002
           3 -0.38593559010476614     
           4  0.35074805161371947     
           5   9.8494650771609016E-002
           6   5.7684115944054695E-003
           7   3.8811006788217937E-002
           8 -0.14327457842319452     
           9 -0.23171475017688398     
          10  -1.5868899292092908E-002
          11 -0.10608431161466444     
          12  0.38287234661488490     
          13 -0.25164577821367562     
          14  -2.4340226856869929E-002
          15 -0.39601064067636732     
          16 -0.16087013517457305     
          17 -0.11170080111877578     
Sym=     8a
Ene=  -0.45484663109714574     
Spin= Alpha
Occup=     1.99999960
           1  -1.5978976844939641E-003
           2 -0.56014504705670609     
           3   4.3227701309045463E-002
           4  -9.6892781683795455E-003
           5  -5.2805283599186904E-004
           6  0.16434948778917974     
           7  -1.2382443441321738E-002
           8   3.0414273239918240E-003
           9   9.4102647488671142E-004
          10 -0.53466070701274537     
          11   4.0049508629197303E-002
          12  -9.4366812942634822E-003
          13   1.4868887372356677E-003
          14  0.46117985157340002     
          15  -3.1522415160709014E-002
          16   7.1214411955120432E-003
          17   6.4668368424226333E-004
Sym=     9a
Ene=  -0.42698375839709896     
Spin= Alpha
Occup=     1.00000045
           1 -0.45232599924994882     
           2   2.6892292113801862E-002
           3  0.44253346686909056     
           4  0.39976551261976784     
           5  -6.4300065348030247E-002
           6   1.4764754191351790E-002
           7  0.19134627152449774     
           8  -5.1108999793715089E-002
           9  0.12450921494528720     
          10  -1.5124369777975830E-002
          11 -0.16474081177147479     
          12  0.19553334544019116     
          13 -0.18241230673271450     
          14  -1.9818463694450901E-002
          15 -0.19763114271446497     
          16  0.40448506469835549     
          17 -0.23363997864432412     
Sym=    10a
Ene=  -0.38738057591788116     
Spin= Alpha
Occup=     1.00000000
           1  0.24483646972249601     
           2  -2.5154170706964279E-002
           3 -0.34287726449369627     
           4  -1.2544046345337992E-002
           5   3.9890953903598834E-002
           6  -4.9409789469856396E-003
           7  -9.5370052047786397E-002
           8 -0.14628978149486768     
           9  0.11533721377782527     
          10   1.7740704320290249E-002
          11  0.25023364479711957     
          12   5.7985185178151433E-002
          13   4.3757306335933666E-002
          14   1.2093813418401917E-002
          15  0.31035492370958029     
          16  0.75930970663782349     
          17 -0.32486250512998455     
Sym=    11a
Ene=  -0.29353376451322222     
Spin= Alpha
Occup=     0.00000000
           1   4.6834691751901040E-005
           2 -0.55685881414590077     
           3   4.1197571810352440E-002
           4  -7.5371262054076422E-003
           5  -1.7351920916146684E-004
           6  0.62412714240030043     
           7  -4.5624492572649396E-002
           8   8.7015393003686235E-003
           9   1.3858921164397749E-004
          10  0.25027052696923374     
          11  -1.8393283487973179E-002
          12   3.4107083012933580E-003
          13  -3.2055378030172748E-005
          14 -0.67670593929407652     
          15   4.9535166145538503E-002
          16  -9.4636998559955183E-003
          17   1.0040769036089313E-004
Sym=    12a
Ene=  -0.21141251990337603     
Spin= Alpha
Occup=     0.00000000
           1  -1.6906497955044668E-002
           2   2.5890395686505398E-002
           3  0.20282361490333806     
           4 -0.78594457595871159     
           5  0.10826695804965900     
           6  -6.8159665191201702E-003
           7  -9.9180727831829435E-002
           8  -1.3651829732516659E-002
           9 -0.15319458723740370     
          10  -2.9053337182129442E-002
          11 -0.25606783229272090     
          12  0.72907580423230733     
          13   5.6849165870978692E-002
          14  -5.6490314370403159E-003
          15  -6.5262100370226520E-002
          16   4.8678968145037013E-002
          17 -0.26356948691947724     
Sym=    13a
Ene=  -0.14735956599396788     
Spin= Alpha
Occup=     0.00000000
           1  -1.7553466691380587E-006
           2 -0.64520458646014700     
           3   4.7547611554968477E-002
           4  -9.1620360726866537E-003
           5  -1.2782040892213086E-004
           6 -0.58420622760093588     
           7   4.2983319288516113E-002
           8  -7.9293044220768993E-003
           9   4.3634166100438543E-004
          10  0.80308331675848532     
          11  -5.9164664117385753E-002
          12   1.1394654592763922E-002
          13   4.0125263894497047E-005
          14  0.33814446304249801     
          15  -2.4963352392506539E-002
          16   4.6049266816390495E-003
          17  -7.1667024076964520E-005
Sym=    14a
Ene=   0.13377817807520265     
Spin= Alpha
Occup=     0.00000000
           1 -0.10192348104904926     
           2  -1.3649883827720113E-002
           3 -0.22265263710247585     
           4 -0.18957394847410450     
           5  -1.0197627645152605     
           6   2.5924654512449564E-002
           7  0.27766140684766760     
           8 -0.40436687006980437     
           9  0.51154693359196279     
          10   7.6707569333966455E-003
          11  0.17464645130910239     
          12  0.34703867462187094     
          13   9.1750230261849211E-002
          14  -2.1134242701110341E-002
          15 -0.25849490946064868     
          16  0.15747775899553026     
          17  0.82901253894511306     
Sym=    15a
Ene=   0.19562003824213117     
Spin= Alpha
Occup=     0.00000000
           1 -0.14681790036849138     
           2  -2.3318726410830090E-002
           3 -0.33296151408354679     
           4  -7.5982740297246984E-002
           5 -0.18928684246012639     
           6   8.0703173536777022E-003
           7  0.29253647407750111     
           8  0.97507649250444195     
           9  0.77364661155659498     
          10   1.9871161564746463E-002
          11  0.29978793348801047     
          12  0.11932468779345323     
          13  0.14396743458749561     
          14  -1.8359279654620083E-002
          15 -0.29308452583224559     
          16 -0.22947401816666441     
          17 -0.67484989869122869     
Sym=    16a
Ene=   0.64723090223799440     
Spin= Alpha
Occup=     0.00000000
           1   7.8664166898102669E-002
           2   7.0584869382737140E-003
           3  0.11408402592100242     
           4   9.6980744334298097E-002
           5 -0.54517291664073464     
           6  -8.7300543036125652E-002
           7  -1.1345717960293347     
           8  0.29334395886576109     
           9 -0.37113769363461324     
          10   4.7678346870133636E-004
          11  -4.6047125408561575E-002
          12 -0.26777310885107730     
          13  0.82966240197428809     
          14  -6.6344541094257942E-002
          15 -0.83942861826212434     
          16  0.34304805869828642     
          17  -7.9910404311322805E-002
Sym=    17a
Ene=    1.1042196261641333     
Spin= Alpha
Occup=     0.00000000
           1  0.97699904133022852     
           2   7.1199429888848476E-002
           3  0.98354753447195975     
           4  0.12268029844581604     
           5 -0.35247636491545054     
           6   2.3501987558399381E-002
           7  0.37215206316368898     
           8  0.26043296357445128     
           9 -0.62996460082263139     
          10   9.1157906631544633E-002
          11   1.2944046244590546     
          12  0.32031506649021729     
          13  -5.6607179504592466E-002
          14   1.1993326835901166E-003
          15   2.0093262409908558E-003
          16  -7.2935171431778897E-002
          17  -4.2342105484059145E-002
