      -----------------------------------------------------------      
     |                   =====================                   |     
     |                           x T B                           |     
     |                   =====================                   |     
     |                         S. Grimme                         |     
     |          Mulliken Center for Theoretical Chemistry        |     
     |                    University of Bonn                     |     
      -----------------------------------------------------------      

   * xtb version 6.2.2 (9d81278992624c895f80dd42a50cac0aa55982e2) compiled by '@Darwin' on 04/03/2020

   xtb is free software: you can redistribute it and/or modify it under
   the terms of the GNU Lesser General Public License as published by
   the Free Software Foundation, either version 3 of the License, or
   (at your option) any later version.
   
   xtb is distributed in the hope that it will be useful,
   but WITHOUT ANY WARRANTY; without even the implied warranty of
   MERCHANTABILITY or FITNESS FOR A PARTICULAR PURPOSE.  See the
   GNU Lesser General Public License for more details.
   
   Cite this work as:
   * S. Grimme, C. Bannwarth, P. Shushkov, J. Chem. Theory Comput., 2017,
     13, 1989-2009. DOI: 10.1021/acs.jctc.7b00118
   * C. Bannwarth, S. Ehlert and S. Grimme., J. Chem. Theory Comput., 2019,
     15, 1652-1671. DOI: 10.1021/acs.jctc.8b01176
   * P. Pracht, E. Caldeweyher, S. Ehlert, S. Grimme, ChemRxiv, 2019, preprint.
     DOI: 10.26434/chemrxiv.8326202.v1
   
   for DFT-D4:
   * E. Caldeweyher, C. Bannwarth and S. Grimme, J. Chem. Phys., 2017,
     147, 034112. DOI: 10.1063/1.4993215
   * E. Caldeweyher, S. Ehlert, A. Hansen, H. Neugebauer, S. Spicher,
     C. Bannwarth and S. Grimme, J. Chem. Phys., 2019, 150, 154122.
     DOI: 10.1063/1.5090222
   
   for sTDA-xTB:
   * S. Grimme and C. Bannwarth, J. Chem. Phys., 2016, 145, 054103.
     DOI: 10.1063/1.4959605
   
   in the mass-spec context:
   * V. Asgeirsson, C. Bauer and S. Grimme, Chem. Sci., 2017, 8, 4879.
     DOI: 10.1039/c7sc00601b
   
   for metadynamics refer to:
   * S. Grimme, J. Chem. Theory Comput., 2019, 155, 2847-2862
     DOI: 10.1021/acs.jctc.9b00143
   
   with help from (in alphabetical order)
   C. Bannwarth, F. Bohle, G. Brandenburg, E. Caldeweyher, M. Checinski,
   S. Dohm, S. Ehlert, S. Ehrlich, F. März, H. Neugebauer, J. Pisarek,
   P. Pracht, P. Shushkov, and S. Spicher.
   
 * started run on 2020/05/12 at 11:44:50.412     

           -------------------------------------------------
          |                Calculation Setup                |
           -------------------------------------------------

          program call               : xtb --input H1C3N1_1_S_2.input H1C3N1_1_S_2.xyz --ohess --molden --namespace H1C3N1_1_S_2 output.out
          calculation namespace      : H1C3N1_1_S_2
          coordinate file            : H1C3N1_1_S_2.xyz
          number of atoms            :                     5
          number of electrons        :                    18
          charge                     :                     0
          spin                       :                   1.0
          first test random number   :      0.74704340886255

   ID    Z sym.   atoms
    1    6 C      1-3
    2    7 N      4
    3    1 H      5

           -------------------------------------------------
          |                 G F N 2 - x T B                 |
           -------------------------------------------------

        Reference                      10.1021/acs.jctc.8b01176
      * Hamiltonian:
        H0-scaling (s, p, d)           1.850000    2.230000    2.230000
        zeta-weighting                 0.500000
      * Dispersion:
        s8                             2.700000
        a1                             0.520000
        a2                             5.000000
        s9                             5.000000
      * Repulsion:
        kExp                           1.500000    1.000000
        rExp                           1.000000
      * Coulomb:
        alpha                          2.000000
        third order                    shell-resolved
        anisotropic                    true
        a3                             3.000000
        a5                             4.000000
        cn-shift                       1.200000
        cn-exp                         4.000000
        max-rad                        5.000000


          ...................................................
          :                      SETUP                      :
          :.................................................:
          :  # basis functions                  17          :
          :  # atomic orbitals                  17          :
          :  # shells                            9          :
          :  # electrons                        18          :
          :  max. iterations                   250          :
          :  Hamiltonian                  GFN2-xTB          :
          :  restarted?                      false          :
          :  GBSA solvation                  false          :
          :  PC potential                    false          :
          :  electronic temp.          300.0000000     K    :
          :  accuracy                    1.0000000          :
          :  -> integral cutoff          0.2500000E+02      :
          :  -> integral neglect         0.1000000E-07      :
          :  -> SCF convergence          0.1000000E-05 Eh   :
          :  -> wf. convergence          0.1000000E-03 e    :
          :  Broyden damping             0.4000000          :
          ...................................................

 iter      E             dE          RMSdq      gap      omega  full diag
   1     -9.1752266 -0.917523E+01  0.927E+00    0.11       0.0  T
   2     -8.2532472  0.921979E+00  0.136E+01    0.31       1.0  T
   3     -9.3131210 -0.105987E+01  0.527E+00    0.07       1.0  T
   4     -9.1429290  0.170192E+00  0.625E+00    0.09       1.0  T
   5     -9.2956062 -0.152677E+00  0.304E+00    0.09       1.0  T
   6     -9.2830257  0.125805E-01  0.276E+00    0.01       1.0  T
   7     -9.2436555  0.393703E-01  0.334E+00    0.03       1.0  T
   8     -9.2991350 -0.554795E-01  0.236E+00    0.08       1.0  T
   9     -9.3148854 -0.157504E-01  0.106E+00    0.05       1.0  T
  10     -9.3225407 -0.765529E-02  0.325E-01    0.05       1.0  T
  11     -9.3224983  0.423565E-04  0.285E-01    0.04       1.0  T
  12     -9.3225636 -0.652659E-04  0.299E-01    0.05       1.0  T
  13     -9.3229868 -0.423228E-03  0.363E-02    0.04       1.2  T
  14     -9.3229505  0.363128E-04  0.939E-02    0.04       1.0  T
  15     -9.3229878 -0.373005E-04  0.129E-02    0.04       3.5  T
  16     -9.3229872  0.575588E-06  0.131E-02    0.04       3.4  T
  17     -9.3229880 -0.775951E-06  0.530E-03    0.04       8.4  T
  18     -9.3229881 -0.110084E-06  0.218E-03    0.04      20.6  T
  19     -9.3229881 -0.196923E-07  0.634E-04    0.04      70.5  T
  20     -9.3229881 -0.309690E-09  0.487E-04    0.04      91.8  T

   *** convergence criteria satisfied after 20 iterations ***

         #    Occupation            Energy/Eh            Energy/eV
      -------------------------------------------------------------
         1        2.0000           -0.7186108             -19.5544
       ...           ...                  ...                  ...
         4        2.0000           -0.6055885             -16.4789
         5        2.0000           -0.5288009             -14.3894
         6        2.0000           -0.5086632             -13.8414
         7        2.0000           -0.4948192             -13.4647
         8        1.5820           -0.4310047             -11.7282
         9        1.4180           -0.4303760             -11.7111
        10        0.6439           -0.4021446             -10.9429 (HOMO)
        11        0.2634           -0.4006049             -10.9010 (LUMO)
        12        0.0927           -0.3994142             -10.8686
        13        0.0000           -0.3896029             -10.6016
        14                          0.0492797               1.3410
        15                          0.0725774               1.9749
       ...                                ...                  ...
        17                          0.1182288               3.2172
      -------------------------------------------------------------
                  HL-Gap            0.0015397 Eh            0.0419 eV
             Fermi-level           -0.4161361 Eh          -11.3236 eV

 transition dipole moment (au) for excitation:           9          10
     X       Y       Z   
  -0.1986  -0.0140   0.0021  total (au/Debye):    0.199   0.506
 dE (eV)             :    0.768
 oscillator strength :  0.10557E-02

 SCC (total)                   0 d,  0 h,  0 min,  0.007 sec
 SCC setup                      ...        0 min,  0.000 sec (  1.466%)
 Dispersion                     ...        0 min,  0.000 sec (  0.253%)
 integral evaluation            ...        0 min,  0.002 sec ( 24.902%)
 zeroth order Hamiltonian       ...        0 min,  0.000 sec (  0.434%)
 iterations                     ...        0 min,  0.003 sec ( 41.558%)
 molecular gradient             ...        0 min,  0.001 sec ( 17.168%)
 printout                       ...        0 min,  0.001 sec ( 13.973%)

         :::::::::::::::::::::::::::::::::::::::::::::::::::::
         ::                     SUMMARY                     ::
         :::::::::::::::::::::::::::::::::::::::::::::::::::::
         :: total energy              -9.267488998691 Eh    ::
         :: gradient norm              0.111372923190 Eh/a0 ::
         :: HOMO-LUMO gap              0.041896565883 eV    ::
         ::.................................................::
         :: SCC energy                -9.322988126991 Eh    ::
         :: -> isotropic ES           -0.021058778502 Eh    ::
         :: -> anisotropic ES         -0.000775497489 Eh    ::
         :: -> anisotropic XC          0.008568234264 Eh    ::
         :: -> dispersion             -0.002126224959 Eh    ::
         :: repulsion energy           0.055499011150 Eh    ::
         :: add. restraining           0.000000000000 Eh    ::
         :::::::::::::::::::::::::::::::::::::::::::::::::::::

      ----------------------------------------------------------- 
     |                   =====================                   |
     |                        A N C O P T                        |
     |                   =====================                   |
     |               Approximate Normal Coordinate               |
     |                Rational Function Optimizer                |
      ----------------------------------------------------------- 

          ...................................................
          :                      SETUP                      :
          :.................................................:
          :   optimization level            normal          :
          :   max. optcycles                   200          :
          :   ANC micro-cycles                  20          :
          :   degrees of freedom                 9          :
          :.................................................:
          :   RF solver                   davidson          :
          :   write xtbopt.log                true          :
          :   linear?                        false          :
          :   energy convergence         0.5000000E-05 Eh   :
          :   grad. convergence          0.1000000E-02 Eh/α :
          :   maximium RF displ.         1.0000000          :
          :   Hlow (freq-cutoff)         0.1000000E-01      :
          :   Hmax (freq-cutoff)         5.0000000          :
          :   S6 in model hess.         20.0000000          :
          ...................................................

generating ANC from model Hessian ...
Using Lindh-Hessian (1995)
 Shifting diagonal of input Hessian by    0.0000000000000000     
 Lowest  eigenvalues of input Hessian
   -0.000000   -0.000000   -0.000000    0.000000    0.000000    0.000000
    0.066376    0.073964    0.088378    0.107163    0.113119    0.448800
    1.010551    1.032350    1.178798
 Highest eigenvalues
    0.107163    0.113119    0.448800    1.010551    1.032350    1.178798


........................................................................
.............................. CYCLE    1 ..............................
........................................................................
   1     -9.3229881 -0.932299E+01  0.118E-04    0.04       0.0  T
   2     -9.3229881  0.340914E-08  0.803E-04    0.04      55.7  T
   3     -9.3229881 -0.237309E-08  0.351E-04    0.04     127.2  T
     SCC iter.                  ...        0 min,  0.000 sec
     gradient                   ...        0 min,  0.001 sec
 * total energy  :    -9.2674890 Eh     change        0.2493124E-08 Eh
   gradient norm :     0.1113741 Eh/α   predicted     0.0000000E+00 (-100.00%)
   displ. norm   :     0.3127713 α      lambda       -0.2594617E-01
   maximum displ.:     0.1968547 α      in ANC's #1, #6, #3, ...

........................................................................
.............................. CYCLE    2 ..............................
........................................................................
   1     -9.3530217 -0.935302E+01  0.283E+00    0.22       0.0  T
   2     -9.0718763  0.281145E+00  0.644E+00    0.32       1.0  T
   3     -9.3422159 -0.270340E+00  0.228E+00    0.18       1.0  T
   4     -9.3680522 -0.258362E-01  0.817E-01    0.17       1.0  T
   5     -9.3686875 -0.635318E-03  0.440E-01    0.16       1.0  T
   6     -9.3679889  0.698603E-03  0.481E-01    0.15       1.0  T
   7     -9.3664577  0.153116E-02  0.604E-01    0.14       1.0  T
   8     -9.3693260 -0.286833E-02  0.882E-02    0.15       1.0  T
   9     -9.3693588 -0.327842E-04  0.157E-02    0.15       2.9  T
  10     -9.3693594 -0.589055E-06  0.370E-03    0.15      12.1  T
  11     -9.3693594  0.587464E-07  0.409E-03    0.15      10.9  T
  12     -9.3693594 -0.866037E-07  0.135E-03    0.15      33.0  T
  13     -9.3693594 -0.222494E-08  0.315E-04    0.15     141.9  T
  14     -9.3693594 -0.189477E-09  0.166E-04    0.15     268.6  T
     SCC iter.                  ...        0 min,  0.001 sec
     gradient                   ...        0 min,  0.001 sec
 * total energy  :    -9.2927527 Eh     change       -0.2526375E-01 Eh
   gradient norm :     0.0911282 Eh/α   predicted    -0.1424219E-01 ( -43.63%)
   displ. norm   :     0.9836584 α      lambda       -0.8251498E-01
   maximum displ.:     0.5834867 α      in ANC's #6, #1, #3, ...

........................................................................
.............................. CYCLE    3 ..............................
........................................................................
   1     -9.4496296 -0.944963E+01  0.608E+00    1.66       0.0  T
   2     -9.1784461  0.271184E+00  0.736E+00    1.70       1.0  T
   3     -9.4900175 -0.311571E+00  0.339E+00    1.60       1.0  T
   4     -9.5238461 -0.338286E-01  0.736E-01    1.52       1.0  T
   5     -9.5239991 -0.152984E-03  0.427E-01    1.53       1.0  T
   6     -9.5239316  0.674232E-04  0.163E-01    1.54       1.0  T
   7     -9.5240284 -0.967925E-04  0.371E-02    1.53       1.2  T
   8     -9.5240272  0.121678E-05  0.199E-02    1.53       2.3  T
   9     -9.5240297 -0.248283E-05  0.725E-03    1.53       6.2  T
  10     -9.5240299 -0.166968E-06  0.232E-03    1.53      19.2  T
  11     -9.5240299  0.902464E-09  0.791E-04    1.53      56.6  T
  12     -9.5240299 -0.209334E-08  0.269E-04    1.53     165.9  T
     SCC iter.                  ...        0 min,  0.001 sec
     gradient                   ...        0 min,  0.001 sec
 * total energy  :    -9.3335688 Eh     change       -0.4081608E-01 Eh
   gradient norm :     0.3386452 Eh/α   predicted    -0.8117757E-01 (  98.89%)
   displ. norm   :     0.6570401 α      lambda       -0.4816316E-01
   maximum displ.:     0.4779238 α      in ANC's #1, #5, #3, ...

........................................................................
.............................. CYCLE    4 ..............................
........................................................................
   1     -9.5754452 -0.957545E+01  0.679E+00    0.61       0.0  T
   2     -9.4881772  0.872680E-01  0.545E+00    0.28       1.0  T
   3     -9.3937623  0.944149E-01  0.573E+00    0.42       1.0  T
   4     -9.5889876 -0.195225E+00  0.135E+00    0.45       1.0  T
   5     -9.5950284 -0.604083E-02  0.783E-01    0.42       1.0  T
   6     -9.5962564 -0.122794E-02  0.339E-01    0.41       1.0  T
   7     -9.5963165 -0.601675E-04  0.736E-02    0.41       1.0  T
   8     -9.5963014  0.151561E-04  0.542E-02    0.41       1.0  T
   9     -9.5963194 -0.180269E-04  0.252E-02    0.41       1.8  T
  10     -9.5963210 -0.160437E-05  0.309E-03    0.41      14.5  T
  11     -9.5963210 -0.996008E-08  0.832E-04    0.41      53.7  T
  12     -9.5963210 -0.116133E-08  0.433E-04    0.41     103.2  T
     SCC iter.                  ...        0 min,  0.001 sec
     gradient                   ...        0 min,  0.001 sec
 * total energy  :    -9.3827573 Eh     change       -0.4918848E-01 Eh
   gradient norm :     0.3880849 Eh/α   predicted    -0.3447770E-01 ( -29.91%)
   displ. norm   :     0.7692371 α      lambda       -0.9142372E-01
   maximum displ.:     0.4311717 α      in ANC's #1, #3, #5, ...

........................................................................
.............................. CYCLE    5 ..............................
........................................................................
   1     -9.6484554 -0.964846E+01  0.440E+00    0.06       0.0  T
   2     -9.6472943  0.116114E-02  0.267E+00    0.19       1.0  T
   3     -9.5388529  0.108441E+00  0.480E+00    0.23       1.0  T
   4     -9.6027177 -0.638648E-01  0.315E+00    0.64       1.0  T
   5     -9.6486836 -0.459659E-01  0.977E-01    0.22       1.0  T
   6     -9.6527825 -0.409896E-02  0.376E-01    0.12       1.0  T
   7     -9.6532704 -0.487808E-03  0.157E-01    0.10       1.0  T
   8     -9.6533712 -0.100817E-03  0.700E-02    0.09       1.0  T
   9     -9.6533009  0.702516E-04  0.133E-01    0.08       1.0  T
  10     -9.6533839 -0.829763E-04  0.287E-02    0.09       1.6  T
  11     -9.6533879 -0.396774E-05  0.873E-03    0.09       5.1  T
  12     -9.6533882 -0.290562E-06  0.400E-03    0.09      11.2  T
  13     -9.6533882 -0.772673E-07  0.107E-03    0.09      41.7  T
  14     -9.6533882 -0.449748E-08  0.387E-04    0.09     115.6  T
  15     -9.6533882 -0.632905E-09  0.154E-04    0.09     291.0  T
     SCC iter.                  ...        0 min,  0.001 sec
     gradient                   ...        0 min,  0.001 sec
 * total energy  :    -9.3069249 Eh     change        0.7583239E-01 Eh
   gradient norm :     0.9630288 Eh/α   predicted    -0.7276090E-01 (-195.95%)
   displ. norm   :     0.5213714 α      lambda       -0.4051246E+00
   maximum displ.:     0.3459653 α      in ANC's #6, #7, #1, ...

........................................................................
.............................. CYCLE    6 ..............................
........................................................................
   1     -9.4269129 -0.942691E+01  0.361E+00    0.84       0.0  T
   2     -8.7318985  0.695014E+00  0.982E+00    0.01       1.0  T
   3     -9.4580845 -0.726186E+00  0.170E+00    0.74       1.0  T
   4     -9.4611177 -0.303320E-02  0.115E+00    0.40       1.0  T
   5     -9.4625310 -0.141328E-02  0.446E-01    0.54       1.0  T
   6     -9.4622653  0.265670E-03  0.226E-01    0.52       1.0  T
   7     -9.4625477 -0.282403E-03  0.126E-01    0.52       1.0  T
   8     -9.4626148 -0.670741E-04  0.394E-02    0.52       1.1  T
   9     -9.4626177 -0.293612E-05  0.720E-03    0.53       6.2  T
  10     -9.4626177 -0.133543E-07  0.284E-03    0.53      15.7  T
  11     -9.4626177 -0.458871E-08  0.631E-04    0.53      70.9  T
  12     -9.4626177 -0.362800E-09  0.128E-04    0.53     350.7  T
     SCC iter.                  ...        0 min,  0.001 sec
     gradient                   ...        0 min,  0.001 sec
 * total energy  :    -9.3770833 Eh     change       -0.7015833E-01 Eh
   gradient norm :     0.3109269 Eh/α   predicted    -0.2576245E+00 ( 267.20%)
   displ. norm   :     0.8677828 α      lambda       -0.1087403E+00
   maximum displ.:     0.6180634 α      in ANC's #3, #6, #5, ...

........................................................................
.............................. CYCLE    7 ..............................
........................................................................
   1     -9.5512999 -0.955130E+01  0.412E+00    0.89       0.0  T
   2     -9.5346690  0.166309E-01  0.312E+00    0.49       1.0  T
   3     -9.5561990 -0.215300E-01  0.218E+00    0.73       1.0  T
   4     -9.5710099 -0.148109E-01  0.282E-01    0.55       1.0  T
   5     -9.5709620  0.479894E-04  0.150E-01    0.57       1.0  T
   6     -9.5710347 -0.726905E-04  0.337E-02    0.57       1.3  T
   7     -9.5710172  0.174799E-04  0.535E-02    0.57       1.0  T
   8     -9.5710392 -0.219869E-04  0.149E-02    0.57       3.0  T
   9     -9.5710398 -0.627316E-06  0.245E-03    0.57      18.3  T
  10     -9.5710398 -0.738174E-08  0.947E-04    0.57      47.2  T
  11     -9.5710398 -0.305257E-08  0.194E-04    0.57     230.6  T
     SCC iter.                  ...        0 min,  0.001 sec
     gradient                   ...        0 min,  0.001 sec
 * total energy  :    -9.4337715 Eh     change       -0.5668825E-01 Eh
   gradient norm :     0.1715474 Eh/α   predicted    -0.9531337E-01 (  68.14%)
   displ. norm   :     0.6690771 α      lambda       -0.7199895E-01
   maximum displ.:     0.4535950 α      in ANC's #1, #3, #5, ...

........................................................................
.............................. CYCLE    8 ..............................
........................................................................
   1     -9.6602363 -0.966024E+01  0.399E+00    0.92       0.0  T
   2     -9.6622108 -0.197456E-02  0.220E+00    0.55       1.0  T
   3     -9.6581434  0.406744E-02  0.112E+00    0.88       1.0  T
   4     -9.6628163 -0.467293E-02  0.297E-01    0.68       1.0  T
   5     -9.6630211 -0.204764E-03  0.105E-01    0.65       1.0  T
   6     -9.6630377 -0.166715E-04  0.309E-02    0.66       1.4  T
   7     -9.6630377  0.345105E-08  0.795E-03    0.66       5.6  T
   8     -9.6630377 -0.166118E-08  0.690E-03    0.66       6.5  T
   9     -9.6630380 -0.237943E-06  0.208E-03    0.66      21.5  T
  10     -9.6630380 -0.100630E-07  0.545E-04    0.66      82.0  T
  11     -9.6630380 -0.130369E-09  0.521E-05    0.66     858.4  T
     SCC iter.                  ...        0 min,  0.001 sec
     gradient                   ...        0 min,  0.001 sec
 * total energy  :    -9.3967068 Eh     change        0.3706471E-01 Eh
   gradient norm :     0.6008286 Eh/α   predicted    -0.5211511E-01 (-240.61%)
   displ. norm   :     0.3246908 α      lambda       -0.1447204E+00
   maximum displ.:     0.1994695 α      in ANC's #7, #1, #5, ...

........................................................................
.............................. CYCLE    9 ..............................
........................................................................
   1     -9.5850917 -0.958509E+01  0.216E+00    0.95       0.0  T
   2     -9.5864661 -0.137441E-02  0.110E+00    1.10       1.0  T
   3     -9.5861909  0.275192E-03  0.590E-01    1.02       1.0  T
   4     -9.5866042 -0.413272E-03  0.243E-01    1.02       1.0  T
   5     -9.5867684 -0.164184E-03  0.120E-01    1.08       1.0  T
   6     -9.5868155 -0.471256E-04  0.522E-02    1.06       1.0  T
   7     -9.5868303 -0.147731E-04  0.266E-02    1.06       1.7  T
   8     -9.5868329 -0.260937E-05  0.432E-03    1.06      10.3  T
   9     -9.5868329 -0.304632E-07  0.119E-03    1.06      37.7  T
  10     -9.5868329 -0.949443E-09  0.264E-04    1.06     169.6  T
  11     -9.5868329 -0.139604E-10  0.380E-05    1.06    1176.7  T
     SCC iter.                  ...        0 min,  0.001 sec
     gradient                   ...        0 min,  0.001 sec
 * total energy  :    -9.4556678 Eh     change       -0.5896100E-01 Eh
   gradient norm :     0.1445098 Eh/α   predicted    -0.7998869E-01 (  35.66%)
   displ. norm   :     0.2599390 α      lambda       -0.1831227E-01
   maximum displ.:     0.1844091 α      in ANC's #5, #6, #3, ...

........................................................................
.............................. CYCLE   10 ..............................
........................................................................
   1     -9.6241204 -0.962412E+01  0.110E+00    1.36       0.0  T
   2     -9.6238313  0.289098E-03  0.729E-01    1.46       1.0  T
   3     -9.6246672 -0.835949E-03  0.526E-01    1.36       1.0  T
   4     -9.6253287 -0.661465E-03  0.378E-02    1.39       1.2  T
   5     -9.6253288 -0.990265E-07  0.128E-02    1.40       3.5  T
   6     -9.6253281  0.660634E-06  0.134E-02    1.40       3.3  T
   7     -9.6253295 -0.130465E-05  0.370E-03    1.40      12.1  T
   8     -9.6253295 -0.410354E-07  0.105E-03    1.40      42.7  T
   9     -9.6253295 -0.152922E-08  0.391E-04    1.40     114.5  T
  10     -9.6253295 -0.110925E-09  0.403E-05    1.40    1109.5  T
     SCC iter.                  ...        0 min,  0.001 sec
     gradient                   ...        0 min,  0.001 sec
 * total energy  :    -9.4661908 Eh     change       -0.1052305E-01 Eh
   gradient norm :     0.0762078 Eh/α   predicted    -0.9774797E-02 (  -7.11%)
   displ. norm   :     0.1231265 α      lambda       -0.6864492E-02
   maximum displ.:     0.0973093 α      in ANC's #1, #3, #5, ...

........................................................................
.............................. CYCLE   11 ..............................
........................................................................
   1     -9.6356563 -0.963566E+01  0.539E-01    1.45       0.0  T
   2     -9.6356885 -0.321315E-04  0.313E-01    1.40       1.0  T
   3     -9.6355517  0.136742E-03  0.231E-01    1.46       1.0  T
   4     -9.6357621 -0.210378E-03  0.358E-02    1.43       1.2  T
   5     -9.6357632 -0.113296E-05  0.151E-02    1.42       3.0  T
   6     -9.6357635 -0.253380E-06  0.737E-03    1.42       6.1  T
   7     -9.6357637 -0.265249E-06  0.405E-03    1.42      11.1  T
   8     -9.6357638 -0.639896E-07  0.498E-04    1.42      89.8  T
   9     -9.6357638 -0.251646E-09  0.179E-04    1.42     249.5  T
     SCC iter.                  ...        0 min,  0.001 sec
     gradient                   ...        0 min,  0.001 sec
 * total energy  :    -9.4714463 Eh     change       -0.5255449E-02 Eh
   gradient norm :     0.0617191 Eh/α   predicted    -0.3484281E-02 ( -33.70%)
   displ. norm   :     0.1858137 α      lambda       -0.8041222E-02
   maximum displ.:     0.1499972 α      in ANC's #1, #6, #3, ...

........................................................................
.............................. CYCLE   12 ..............................
........................................................................
   1     -9.6491118 -0.964911E+01  0.858E-01    1.58       0.0  T
   2     -9.6493203 -0.208498E-03  0.508E-01    1.44       1.0  T
   3     -9.6492045  0.115763E-03  0.307E-01    1.55       1.0  T
   4     -9.6494886 -0.284079E-03  0.714E-02    1.50       1.0  T
   5     -9.6495002 -0.115763E-04  0.230E-02    1.49       1.9  T
   6     -9.6495002 -0.246143E-07  0.117E-02    1.49       3.8  T
   7     -9.6495009 -0.759020E-06  0.547E-03    1.49       8.2  T
   8     -9.6495010 -0.899004E-07  0.723E-04    1.49      61.8  T
   9     -9.6495010 -0.805615E-09  0.243E-04    1.49     184.1  T
     SCC iter.                  ...        0 min,  0.001 sec
     gradient                   ...        0 min,  0.001 sec
 * total energy  :    -9.4761708 Eh     change       -0.4724497E-02 Eh
   gradient norm :     0.0564701 Eh/α   predicted    -0.4159425E-02 ( -11.96%)
   displ. norm   :     0.0794638 α      lambda       -0.1731645E-02
   maximum displ.:     0.0479698 α      in ANC's #1, #6, #3, ...

........................................................................
.............................. CYCLE   13 ..............................
........................................................................
   1     -9.6460068 -0.964601E+01  0.278E-01    1.55       0.0  T
   2     -9.6460245 -0.177543E-04  0.188E-01    1.51       1.0  T
   3     -9.6460381 -0.135478E-04  0.109E-01    1.54       1.0  T
   4     -9.6460617 -0.236636E-04  0.216E-02    1.53       2.1  T
   5     -9.6460620 -0.277578E-06  0.120E-02    1.53       3.7  T
   6     -9.6460617  0.307456E-06  0.102E-02    1.53       4.4  T
   7     -9.6460624 -0.671389E-06  0.319E-03    1.53      14.0  T
   8     -9.6460624 -0.212827E-07  0.254E-04    1.53     176.3  T
   9     -9.6460624 -0.771649E-11  0.117E-04    1.53     381.3  T
     SCC iter.                  ...        0 min,  0.001 sec
     gradient                   ...        0 min,  0.002 sec
 * total energy  :    -9.4774053 Eh     change       -0.1234541E-02 Eh
   gradient norm :     0.0392341 Eh/α   predicted    -0.8712910E-03 ( -29.42%)
   displ. norm   :     0.0550423 α      lambda       -0.8997271E-03
   maximum displ.:     0.0307912 α      in ANC's #6, #1, #9, ...

........................................................................
.............................. CYCLE   14 ..............................
........................................................................
   1     -9.6443841 -0.964438E+01  0.206E-01    1.64       0.0  T
   2     -9.6443928 -0.874584E-05  0.148E-01    1.61       1.0  T
   3     -9.6443932 -0.336923E-06  0.797E-02    1.63       1.0  T
   4     -9.6444074 -0.142206E-04  0.160E-02    1.63       2.8  T
   5     -9.6444074  0.200888E-07  0.120E-02    1.62       3.7  T
   6     -9.6444071  0.273312E-06  0.110E-02    1.62       4.1  T
   7     -9.6444079 -0.797996E-06  0.161E-03    1.62      27.8  T
   8     -9.6444079 -0.279999E-08  0.302E-04    1.62     148.1  T
   9     -9.6444079 -0.540261E-10  0.771E-05    1.62     580.0  T
     SCC iter.                  ...        0 min,  0.001 sec
     gradient                   ...        0 min,  0.001 sec
 * total energy  :    -9.4779390 Eh     change       -0.5337052E-03 Eh
   gradient norm :     0.0166491 Eh/α   predicted    -0.4512261E-03 ( -15.45%)
   displ. norm   :     0.0235594 α      lambda       -0.1545319E-03
   maximum displ.:     0.0181118 α      in ANC's #3, #6, #5, ...

........................................................................
.............................. CYCLE   15 ..............................
........................................................................
   1     -9.6424263 -0.964243E+01  0.841E-02    1.64       0.0  T
   2     -9.6424283 -0.198458E-05  0.558E-02    1.62       1.0  T
   3     -9.6424298 -0.159463E-05  0.330E-02    1.63       1.4  T
   4     -9.6424317 -0.186341E-05  0.667E-03    1.63       6.7  T
   5     -9.6424317  0.568501E-07  0.549E-03    1.63       8.1  T
   6     -9.6424318 -0.985743E-07  0.350E-03    1.63      12.8  T
   7     -9.6424318 -0.701135E-07  0.787E-04    1.63      56.9  T
   8     -9.6424318 -0.246397E-09  0.719E-05    1.63     621.6  T
     SCC iter.                  ...        0 min,  0.001 sec
     gradient                   ...        0 min,  0.001 sec
 * total energy  :    -9.4780570 Eh     change       -0.1179946E-03 Eh
   gradient norm :     0.0166385 Eh/α   predicted    -0.7731018E-04 ( -34.48%)
   displ. norm   :     0.0389227 α      lambda       -0.2685261E-03
   maximum displ.:     0.0348537 α      in ANC's #3, #5, #6, ...

........................................................................
.............................. CYCLE   16 ..............................
........................................................................
   1     -9.6413425 -0.964134E+01  0.148E-01    1.66       0.0  T
   2     -9.6413497 -0.716936E-05  0.881E-02    1.63       1.0  T
   3     -9.6413484  0.122330E-05  0.533E-02    1.65       1.0  T
   4     -9.6413550 -0.652395E-05  0.146E-02    1.64       3.1  T
   5     -9.6413548  0.119123E-06  0.113E-02    1.64       3.9  T
   6     -9.6413555 -0.641194E-06  0.574E-03    1.64       7.8  T
   7     -9.6413557 -0.187578E-06  0.118E-03    1.64      37.9  T
   8     -9.6413557 -0.302238E-09  0.115E-04    1.64     387.8  T
   9     -9.6413557 -0.671818E-11  0.446E-05    1.64    1003.5  T
     SCC iter.                  ...        0 min,  0.001 sec
     gradient                   ...        0 min,  0.001 sec
 * total energy  :    -9.4782724 Eh     change       -0.2153409E-03 Eh
   gradient norm :     0.0182128 Eh/α   predicted    -0.1344664E-03 ( -37.56%)
   displ. norm   :     0.0890456 α      lambda       -0.6044930E-03
   maximum displ.:     0.0856481 α      in ANC's #3, #5, #6, ...

........................................................................
.............................. CYCLE   17 ..............................
........................................................................
   1     -9.6403741 -0.964037E+01  0.352E-01    1.66       0.0  T
   2     -9.6404054 -0.312877E-04  0.184E-01    1.63       1.0  T
   3     -9.6403896  0.158409E-04  0.947E-02    1.66       1.0  T
   4     -9.6404109 -0.213811E-04  0.358E-02    1.64       1.2  T
   5     -9.6404093  0.159985E-05  0.313E-02    1.64       1.4  T
   6     -9.6404158 -0.646174E-05  0.103E-02    1.64       4.3  T
   7     -9.6404164 -0.610562E-06  0.180E-03    1.64      24.9  T
   8     -9.6404164 -0.824306E-09  0.238E-04    1.64     188.2  T
   9     -9.6404164 -0.353353E-10  0.871E-05    1.64     513.4  T
     SCC iter.                  ...        0 min,  0.001 sec
     gradient                   ...        0 min,  0.001 sec
 * total energy  :    -9.4787405 Eh     change       -0.4681855E-03 Eh
   gradient norm :     0.0244904 Eh/α   predicted    -0.3046413E-03 ( -34.93%)
   displ. norm   :     0.1416214 α      lambda       -0.9375815E-03
   maximum displ.:     0.1393742 α      in ANC's #3, #5, #7, ...

........................................................................
.............................. CYCLE   18 ..............................
........................................................................
   1     -9.6408724 -0.964087E+01  0.563E-01    1.63       0.0  T
   2     -9.6409227 -0.502277E-04  0.297E-01    1.62       1.0  T
   3     -9.6408956  0.270952E-04  0.104E-01    1.63       1.0  T
   4     -9.6409162 -0.206122E-04  0.604E-02    1.63       1.0  T
   5     -9.6409124  0.374498E-05  0.553E-02    1.63       1.0  T
   6     -9.6409350 -0.225390E-04  0.735E-03    1.63       6.1  T
   7     -9.6409352 -0.244546E-06  0.222E-03    1.63      20.1  T
   8     -9.6409352 -0.182413E-08  0.396E-04    1.63     112.9  T
   9     -9.6409352 -0.125592E-09  0.135E-04    1.63     332.2  T
     SCC iter.                  ...        0 min,  0.001 sec
     gradient                   ...        0 min,  0.001 sec
 * total energy  :    -9.4794065 Eh     change       -0.6659174E-03 Eh
   gradient norm :     0.0270883 Eh/α   predicted    -0.4781955E-03 ( -28.19%)
   displ. norm   :     0.0976881 α      lambda       -0.7390195E-03
   maximum displ.:     0.0904357 α      in ANC's #3, #6, #1, ...

........................................................................
.............................. CYCLE   19 ..............................
........................................................................
   1     -9.6443091 -0.964431E+01  0.413E-01    1.59       0.0  T
   2     -9.6443346 -0.255659E-04  0.256E-01    1.63       1.0  T
   3     -9.6442902  0.444232E-04  0.169E-01    1.59       1.0  T
   4     -9.6443922 -0.101958E-03  0.335E-02    1.61       1.3  T
   5     -9.6443765  0.157216E-04  0.499E-02    1.61       1.0  T
   6     -9.6443955 -0.190031E-04  0.374E-03    1.61      12.0  T
   7     -9.6443955 -0.434555E-08  0.200E-03    1.61      22.4  T
   8     -9.6443955 -0.315522E-08  0.465E-04    1.61      96.2  T
   9     -9.6443955 -0.274904E-09  0.165E-04    1.61     270.5  T
     SCC iter.                  ...        0 min,  0.001 sec
     gradient                   ...        0 min,  0.001 sec
 * total energy  :    -9.4798976 Eh     change       -0.4911622E-03 Eh
   gradient norm :     0.0177646 Eh/α   predicted    -0.3730375E-03 ( -24.05%)
   displ. norm   :     0.0425980 α      lambda       -0.4071887E-03
   maximum displ.:     0.0291392 α      in ANC's #6, #5, #7, ...

........................................................................
.............................. CYCLE   20 ..............................
........................................................................
   1     -9.6490401 -0.964904E+01  0.157E-01    1.58       0.0  T
   2     -9.6490445 -0.440190E-05  0.127E-01    1.60       1.0  T
   3     -9.6490748 -0.302901E-04  0.620E-02    1.58       1.0  T
   4     -9.6490776 -0.283401E-05  0.135E-02    1.59       3.3  T
   5     -9.6490777 -0.735694E-07  0.443E-03    1.59      10.1  T
   6     -9.6490776  0.341291E-07  0.371E-03    1.59      12.0  T
   7     -9.6490776 -0.202002E-07  0.276E-03    1.59      16.2  T
   8     -9.6490777 -0.476348E-07  0.220E-04    1.59     203.7  T
   9     -9.6490777 -0.423057E-10  0.947E-05    1.59     472.0  T
     SCC iter.                  ...        0 min,  0.001 sec
     gradient                   ...        0 min,  0.001 sec
 * total energy  :    -9.4801238 Eh     change       -0.2261492E-03 Eh
   gradient norm :     0.0054116 Eh/α   predicted    -0.2039648E-03 (  -9.81%)
   displ. norm   :     0.0150218 α      lambda       -0.4615604E-04
   maximum displ.:     0.0102110 α      in ANC's #5, #7, #9, ...
 * RMSD in coord.:     0.9218703 α      energy gain  -0.2126348E+00 Eh

generating ANC from model Hessian ...
Using Lindh-Hessian (1995)
 Shifting diagonal of input Hessian by    0.0000000000000000     
 Lowest  eigenvalues of input Hessian
   -0.000000   -0.000000    0.000000    0.000000    0.000000    0.000000
    0.031761    0.086753    0.101017    0.194627    0.420653    0.434630
    1.073941    1.741619    2.107584
 Highest eigenvalues
    0.194627    0.420653    0.434630    1.073941    1.741619    2.107584


........................................................................
.............................. CYCLE   21 ..............................
........................................................................
   1     -9.6488156 -0.964882E+01  0.528E-02    1.56       0.0  T
   2     -9.6488160 -0.396267E-06  0.365E-02    1.57       1.2  T
   3     -9.6488160  0.485679E-07  0.223E-02    1.56       2.0  T
   4     -9.6488171 -0.113357E-05  0.732E-03    1.56       6.1  T
   5     -9.6488172 -0.420756E-07  0.664E-03    1.56       6.7  T
   6     -9.6488174 -0.260244E-06  0.118E-03    1.56      37.8  T
   7     -9.6488174 -0.151505E-08  0.627E-04    1.56      71.3  T
   8     -9.6488174 -0.336541E-09  0.840E-05    1.56     532.4  T
     SCC iter.                  ...        0 min,  0.001 sec
     gradient                   ...        0 min,  0.001 sec
 * total energy  :    -9.4801510 Eh     change       -0.2719990E-04 Eh
   gradient norm :     0.0034934 Eh/α   predicted     0.0000000E+00 (-100.00%)
   displ. norm   :     0.0167775 α      lambda       -0.3423637E-04
   maximum displ.:     0.0125808 α      in ANC's #1, #2, #3, ...

........................................................................
.............................. CYCLE   22 ..............................
........................................................................
   1     -9.6487431 -0.964874E+01  0.616E-02    1.57       0.0  T
   2     -9.6487432 -0.461406E-07  0.359E-02    1.57       1.2  T
   3     -9.6487381  0.508187E-05  0.268E-02    1.57       1.7  T
   4     -9.6487434 -0.529060E-05  0.381E-03    1.57      11.7  T
   5     -9.6487434  0.368837E-09  0.178E-03    1.57      25.2  T
   6     -9.6487434 -0.111318E-07  0.608E-04    1.57      73.5  T
   7     -9.6487434 -0.927256E-09  0.140E-04    1.57     320.1  T
     SCC iter.                  ...        0 min,  0.001 sec
     gradient                   ...        0 min,  0.001 sec
 * total energy  :    -9.4801747 Eh     change       -0.2368274E-04 Eh
   gradient norm :     0.0035361 Eh/α   predicted    -0.1712300E-04 ( -27.70%)
   displ. norm   :     0.0438447 α      lambda       -0.1186408E-03
   maximum displ.:     0.0281800 α      in ANC's #5, #3, #6, ...

........................................................................
.............................. CYCLE   23 ..............................
........................................................................
   1     -9.6485062 -0.964851E+01  0.226E-01    1.59       0.0  T
   2     -9.6484962  0.997546E-05  0.139E-01    1.60       1.0  T
   3     -9.6482151  0.281068E-03  0.200E-01    1.59       1.0  T
   4     -9.6485113 -0.296164E-03  0.181E-02    1.59       2.5  T
   5     -9.6485115 -0.227035E-06  0.138E-02    1.59       3.2  T
   6     -9.6485120 -0.497750E-06  0.411E-03    1.59      10.9  T
   7     -9.6485120 -0.463979E-07  0.128E-03    1.59      34.8  T
   8     -9.6485121 -0.422080E-08  0.251E-04    1.59     178.0  T
   9     -9.6485121 -0.118087E-09  0.102E-04    1.59     436.4  T
     SCC iter.                  ...        0 min,  0.001 sec
     gradient                   ...        0 min,  0.001 sec
 * total energy  :    -9.4803300 Eh     change       -0.1553715E-03 Eh
   gradient norm :     0.0097017 Eh/α   predicted    -0.5943525E-04 ( -61.75%)
   displ. norm   :     0.0609429 α      lambda       -0.3544437E-03
   maximum displ.:     0.0440916 α      in ANC's #5, #6, #3, ...

........................................................................
.............................. CYCLE   24 ..............................
........................................................................
   1     -9.6484039 -0.964840E+01  0.343E-01    1.63       0.0  T
   2     -9.6483786  0.252535E-04  0.212E-01    1.65       1.0  T
   3     -9.6478232  0.555433E-03  0.293E-01    1.63       1.0  T
   4     -9.6484151 -0.591947E-03  0.509E-02    1.64       1.0  T
   5     -9.6484272 -0.120318E-04  0.227E-02    1.65       2.0  T
   6     -9.6484284 -0.126660E-05  0.113E-02    1.65       4.0  T
   7     -9.6484287 -0.276720E-06  0.171E-03    1.65      26.1  T
   8     -9.6484287 -0.672296E-08  0.441E-04    1.65     101.4  T
   9     -9.6484287 -0.434364E-09  0.150E-04    1.65     297.6  T
     SCC iter.                  ...        0 min,  0.001 sec
     gradient                   ...        0 min,  0.001 sec
 * total energy  :    -9.4808257 Eh     change       -0.4957049E-03 Eh
   gradient norm :     0.0181810 Eh/α   predicted    -0.1778814E-03 ( -64.12%)
   displ. norm   :     0.1040698 α      lambda       -0.1109980E-02
   maximum displ.:     0.0759021 α      in ANC's #5, #6, #3, ...

........................................................................
.............................. CYCLE   25 ..............................
........................................................................
   1     -9.6483204 -0.964832E+01  0.580E-01    1.73       0.0  T
   2     -9.6482542  0.662011E-04  0.360E-01    1.80       1.0  T
   3     -9.6471760  0.107819E-02  0.450E-01    1.75       1.0  T
   4     -9.6483089 -0.113293E-02  0.155E-01    1.76       1.0  T
   5     -9.6484556 -0.146683E-03  0.422E-02    1.78       1.1  T
   6     -9.6484610 -0.541706E-05  0.212E-02    1.78       2.1  T
   7     -9.6484619 -0.862054E-06  0.297E-03    1.78      15.1  T
   8     -9.6484619 -0.175961E-07  0.875E-04    1.78      51.1  T
   9     -9.6484619 -0.180048E-08  0.245E-04    1.78     182.3  T
     SCC iter.                  ...        0 min,  0.001 sec
     gradient                   ...        0 min,  0.001 sec
 * total energy  :    -9.4822747 Eh     change       -0.1448955E-02 Eh
   gradient norm :     0.0324390 Eh/α   predicted    -0.5610013E-03 ( -61.28%)
   displ. norm   :     0.1511774 α      lambda       -0.2700780E-02
   maximum displ.:     0.1114858 α      in ANC's #5, #6, #3, ...

........................................................................
.............................. CYCLE   26 ..............................
........................................................................
   1     -9.6485542 -0.964855E+01  0.808E-01    1.94       0.0  T
   2     -9.6483933  0.160943E-03  0.509E-01    2.02       1.0  T
   3     -9.6468819  0.151138E-02  0.597E-01    1.97       1.0  T
   4     -9.6484502 -0.156831E-02  0.283E-01    1.97       1.0  T
   5     -9.6489658 -0.515632E-03  0.609E-02    1.99       1.0  T
   6     -9.6489792 -0.133416E-04  0.286E-02    2.00       1.6  T
   7     -9.6489806 -0.137924E-05  0.379E-03    2.00      11.8  T
   8     -9.6489806 -0.184184E-07  0.141E-03    2.00      31.7  T
   9     -9.6489806 -0.500228E-08  0.313E-04    2.00     143.0  T
  10     -9.6489806 -0.155238E-09  0.785E-05    2.00     569.7  T
     SCC iter.                  ...        0 min,  0.001 sec
     gradient                   ...        0 min,  0.001 sec
 * total energy  :    -9.4854041 Eh     change       -0.3129379E-02 Eh
   gradient norm :     0.0509936 Eh/α   predicted    -0.1381254E-02 ( -55.86%)
   displ. norm   :     0.1658047 α      lambda       -0.4374042E-02
   maximum displ.:     0.1240780 α      in ANC's #5, #6, #3, ...

........................................................................
.............................. CYCLE   27 ..............................
........................................................................
   1     -9.6511321 -0.965113E+01  0.806E-01    2.20       0.0  T
   2     -9.6509467  0.185358E-03  0.508E-01    2.21       1.0  T
   3     -9.6492185  0.172821E-02  0.616E-01    2.21       1.0  T
   4     -9.6509679 -0.174936E-02  0.289E-01    2.21       1.0  T
   5     -9.6515172 -0.549328E-03  0.563E-02    2.22       1.0  T
   6     -9.6515294 -0.122249E-04  0.253E-02    2.22       1.8  T
   7     -9.6515302 -0.795568E-06  0.300E-03    2.22      14.9  T
   8     -9.6515302 -0.102816E-08  0.145E-03    2.22      30.8  T
   9     -9.6515302 -0.567675E-08  0.254E-04    2.22     176.2  T
  10     -9.6515302 -0.864731E-10  0.756E-05    2.22     591.4  T
     SCC iter.                  ...        0 min,  0.001 sec
     gradient                   ...        0 min,  0.001 sec
 * total energy  :    -9.4899281 Eh     change       -0.4524032E-02 Eh
   gradient norm :     0.0668237 Eh/α   predicted    -0.2247145E-02 ( -50.33%)
   displ. norm   :     0.1359856 α      lambda       -0.4937156E-02
   maximum displ.:     0.1022079 α      in ANC's #5, #6, #4, ...

........................................................................
.............................. CYCLE   28 ..............................
........................................................................
   1     -9.6579982 -0.965800E+01  0.571E-01    2.38       0.0  T
   2     -9.6579453  0.529769E-04  0.349E-01    2.36       1.0  T
   3     -9.6566422  0.130305E-02  0.458E-01    2.40       1.0  T
   4     -9.6579436 -0.130140E-02  0.150E-01    2.38       1.0  T
   5     -9.6580957 -0.152098E-03  0.313E-02    2.38       1.4  T
   6     -9.6580992 -0.350857E-05  0.138E-02    2.38       3.2  T
   7     -9.6580994 -0.134090E-06  0.160E-03    2.38      28.0  T
   8     -9.6580994  0.140062E-08  0.807E-04    2.38      55.4  T
   9     -9.6580994 -0.184046E-08  0.125E-04    2.38     358.8  T
     SCC iter.                  ...        0 min,  0.001 sec
     gradient                   ...        0 min,  0.001 sec
 * total energy  :    -9.4948180 Eh     change       -0.4889850E-02 Eh
   gradient norm :     0.0708753 Eh/α   predicted    -0.2514227E-02 ( -48.58%)
   displ. norm   :     0.8663886 α      lambda       -0.3818638E-01
   maximum displ.:     0.6285376 α      in ANC's #5, #6, #4, ...

........................................................................
.............................. CYCLE   29 ..............................
........................................................................
   1     -9.6603599 -0.966036E+01  0.276E+00    2.37       0.0  T
   2     -9.6602950  0.648770E-04  0.160E+00    2.48       1.0  T
   3     -9.6507091  0.958590E-02  0.134E+00    2.11       1.0  T
   4     -9.6574839 -0.677482E-02  0.697E-01    2.45       1.0  T
   5     -9.6612669 -0.378293E-02  0.159E-01    2.39       1.0  T
   6     -9.6613230 -0.561650E-04  0.613E-02    2.37       1.0  T
   7     -9.6613269 -0.390756E-05  0.290E-02    2.38       1.5  T
   8     -9.6613275 -0.588197E-06  0.143E-02    2.38       3.1  T
   9     -9.6613277 -0.137853E-06  0.384E-03    2.38      11.6  T
  10     -9.6613277 -0.749200E-08  0.985E-04    2.38      45.4  T
  11     -9.6613277 -0.144229E-08  0.204E-04    2.38     218.7  T
     SCC iter.                  ...        0 min,  0.001 sec
     gradient                   ...        0 min,  0.001 sec
 * total energy  :    -9.5030013 Eh     change       -0.8183347E-02 Eh
   gradient norm :     0.1943521 Eh/α   predicted    -0.3342507E-01 ( 308.45%)
   displ. norm   :     0.3141948 α      lambda       -0.3877265E-01
   maximum displ.:     0.1878993 α      in ANC's #5, #6, #3, ...

........................................................................
.............................. CYCLE   30 ..............................
........................................................................
   1     -9.7255722 -0.972557E+01  0.164E+00    2.85       0.0  T
   2     -9.7258015 -0.229328E-03  0.962E-01    2.86       1.0  T
   3     -9.7258214 -0.198793E-04  0.212E-01    2.85       1.0  T
   4     -9.7257966  0.247718E-04  0.152E-01    2.88       1.0  T
   5     -9.7258802 -0.836187E-04  0.467E-02    2.86       1.0  T
   6     -9.7258778  0.245927E-05  0.364E-02    2.86       1.2  T
   7     -9.7258842 -0.644694E-05  0.122E-02    2.86       3.7  T
   8     -9.7258853 -0.107736E-05  0.280E-03    2.86      16.0  T
   9     -9.7258853 -0.218605E-07  0.123E-03    2.86      36.4  T
  10     -9.7258853 -0.567261E-08  0.204E-04    2.86     219.3  T
  11     -9.7258853 -0.188418E-10  0.285E-05    2.86    1571.3  T
     SCC iter.                  ...        0 min,  0.001 sec
     gradient                   ...        0 min,  0.001 sec
 * total energy  :    -9.5168170 Eh     change       -0.1381567E-01 Eh
   gradient norm :     0.0904878 Eh/α   predicted    -0.2130012E-01 (  54.17%)
   displ. norm   :     0.2534351 α      lambda       -0.1289597E-01
   maximum displ.:     0.1819991 α      in ANC's #3, #5, #2, ...

........................................................................
.............................. CYCLE   31 ..............................
........................................................................
   1     -9.7107233 -0.971072E+01  0.706E-01    2.78       0.0  T
   2     -9.7106793  0.439679E-04  0.449E-01    2.80       1.0  T
   3     -9.7081764  0.250290E-02  0.570E-01    2.72       1.0  T
   4     -9.7107709 -0.259454E-02  0.679E-02    2.78       1.0  T
   5     -9.7107921 -0.211534E-04  0.254E-02    2.78       1.8  T
   6     -9.7107931 -0.100094E-05  0.143E-02    2.78       3.1  T
   7     -9.7107938 -0.674791E-06  0.598E-03    2.78       7.5  T
   8     -9.7107938 -0.262446E-07  0.152E-03    2.78      29.5  T
   9     -9.7107938 -0.471070E-08  0.450E-04    2.78      99.3  T
  10     -9.7107938 -0.276502E-09  0.923E-05    2.78     484.6  T
     SCC iter.                  ...        0 min,  0.001 sec
     gradient                   ...        0 min,  0.001 sec
 * total energy  :    -9.5246069 Eh     change       -0.7789924E-02 Eh
   gradient norm :     0.0415843 Eh/α   predicted    -0.6862139E-02 ( -11.91%)
   displ. norm   :     0.3061521 α      lambda       -0.7183401E-02
   maximum displ.:     0.2016732 α      in ANC's #2, #5, #8, ...

........................................................................
.............................. CYCLE   32 ..............................
........................................................................
   1     -9.7097569 -0.970976E+01  0.106E+00    2.62       0.0  T
   2     -9.7095977  0.159237E-03  0.633E-01    2.67       1.0  T
   3     -9.7049158  0.468187E-02  0.821E-01    2.54       1.0  T
   4     -9.7093606 -0.444476E-02  0.321E-01    2.64       1.0  T
   5     -9.7100624 -0.701826E-03  0.506E-02    2.64       1.0  T
   6     -9.7100680 -0.553243E-05  0.258E-02    2.63       1.7  T
   7     -9.7100691 -0.115820E-05  0.123E-02    2.63       3.6  T
   8     -9.7100699 -0.743574E-06  0.384E-03    2.63      11.7  T
   9     -9.7100699 -0.607071E-07  0.696E-04    2.63      64.2  T
  10     -9.7100699 -0.124466E-08  0.937E-05    2.63     477.2  T
     SCC iter.                  ...        0 min,  0.001 sec
     gradient                   ...        0 min,  0.001 sec
 * total energy  :    -9.5288825 Eh     change       -0.4275634E-02 Eh
   gradient norm :     0.0826361 Eh/α   predicted    -0.3928350E-02 (  -8.12%)
   displ. norm   :     0.2027627 α      lambda       -0.5307102E-02
   maximum displ.:     0.1193877 α      in ANC's #2, #8, #3, ...

........................................................................
.............................. CYCLE   33 ..............................
........................................................................
   1     -9.7145094 -0.971451E+01  0.868E-01    2.64       0.0  T
   2     -9.7138172  0.692259E-03  0.552E-01    2.67       1.0  T
   3     -9.7088483  0.496888E-02  0.899E-01    2.59       1.0  T
   4     -9.7146921 -0.584384E-02  0.161E-01    2.64       1.0  T
   5     -9.7148223 -0.130150E-03  0.476E-02    2.65       1.0  T
   6     -9.7148279 -0.558637E-05  0.235E-02    2.65       1.9  T
   7     -9.7148256  0.224552E-05  0.206E-02    2.65       2.2  T
   8     -9.7148281 -0.242874E-05  0.488E-03    2.65       9.2  T
   9     -9.7148281 -0.796722E-07  0.120E-03    2.65      37.3  T
  10     -9.7148281 -0.385743E-08  0.143E-04    2.65     311.7  T
  11     -9.7148281 -0.122924E-11  0.723E-05    2.65     618.2  T
     SCC iter.                  ...        0 min,  0.001 sec
     gradient                   ...        0 min,  0.001 sec
 * total energy  :    -9.5324867 Eh     change       -0.3604206E-02 Eh
   gradient norm :     0.0545060 Eh/α   predicted    -0.2762644E-02 ( -23.35%)
   displ. norm   :     0.2053653 α      lambda       -0.4692970E-02
   maximum displ.:     0.1318296 α      in ANC's #8, #2, #4, ...

........................................................................
.............................. CYCLE   34 ..............................
........................................................................
   1     -9.7278636 -0.972786E+01  0.828E-01    2.58       0.0  T
   2     -9.7277440  0.119626E-03  0.460E-01    2.59       1.0  T
   3     -9.7241559  0.358804E-02  0.695E-01    2.54       1.0  T
   4     -9.7278769 -0.372095E-02  0.173E-01    2.58       1.0  T
   5     -9.7280314 -0.154552E-03  0.567E-02    2.58       1.0  T
   6     -9.7280394 -0.801531E-05  0.256E-02    2.58       1.7  T
   7     -9.7280399 -0.478477E-06  0.147E-02    2.58       3.1  T
   8     -9.7280410 -0.106543E-05  0.358E-03    2.58      12.5  T
   9     -9.7280410 -0.218672E-07  0.956E-04    2.58      46.8  T
  10     -9.7280410 -0.222240E-08  0.115E-04    2.58     388.4  T
     SCC iter.                  ...        0 min,  0.001 sec
     gradient                   ...        0 min,  0.001 sec
 * total energy  :    -9.5355964 Eh     change       -0.3109649E-02 Eh
   gradient norm :     0.0245922 Eh/α   predicted    -0.2445448E-02 ( -21.36%)
   displ. norm   :     0.3384331 α      lambda       -0.4221767E-02
   maximum displ.:     0.2174418 α      in ANC's #8, #2, #4, ...

........................................................................
.............................. CYCLE   35 ..............................
........................................................................
   1     -9.7155078 -0.971551E+01  0.134E+00    2.49       0.0  T
   2     -9.7144957  0.101217E-02  0.827E-01    2.51       1.0  T
   3     -9.6811269  0.333688E-01  0.190E+00    2.38       1.0  T
   4     -9.7156179 -0.344910E-01  0.198E-01    2.50       1.0  T
   5     -9.7157400 -0.122151E-03  0.129E-01    2.50       1.0  T
   6     -9.7157933 -0.533115E-04  0.902E-02    2.49       1.0  T
   7     -9.7158385 -0.451172E-04  0.191E-02    2.49       2.3  T
   8     -9.7158392 -0.766013E-06  0.967E-03    2.49       4.6  T
   9     -9.7158394 -0.203367E-06  0.287E-03    2.49      15.6  T
  10     -9.7158395 -0.454446E-07  0.379E-04    2.49     117.9  T
  11     -9.7158395 -0.467830E-09  0.137E-04    2.49     326.7  T
     SCC iter.                  ...        0 min,  0.001 sec
     gradient                   ...        0 min,  0.001 sec
 * total energy  :    -9.5370353 Eh     change       -0.1438875E-02 Eh
   gradient norm :     0.0694508 Eh/α   predicted    -0.2352658E-02 (  63.51%)
   displ. norm   :     0.1230938 α      lambda       -0.4967141E-02
   maximum displ.:     0.0859304 α      in ANC's #1, #8, #5, ...

........................................................................
.............................. CYCLE   36 ..............................
........................................................................
   1     -9.7463732 -0.974637E+01  0.502E-01    2.58       0.0  T
   2     -9.7461206  0.252608E-03  0.361E-01    2.58       1.0  T
   3     -9.7444000  0.172058E-02  0.510E-01    2.56       1.0  T
   4     -9.7463667 -0.196674E-02  0.135E-01    2.59       1.0  T
   5     -9.7464686 -0.101825E-03  0.335E-02    2.58       1.3  T
   6     -9.7464723 -0.372321E-05  0.177E-02    2.58       2.5  T
   7     -9.7464724 -0.115425E-06  0.776E-03    2.58       5.8  T
   8     -9.7464728 -0.389173E-06  0.219E-03    2.58      20.4  T
   9     -9.7464728 -0.762657E-08  0.395E-04    2.58     113.1  T
  10     -9.7464728 -0.847091E-10  0.467E-05    2.58     956.7  T
     SCC iter.                  ...        0 min,  0.001 sec
     gradient                   ...        0 min,  0.001 sec
 * total energy  :    -9.5395051 Eh     change       -0.2469819E-02 Eh
   gradient norm :     0.0094848 Eh/α   predicted    -0.2521201E-02 (   2.08%)
   displ. norm   :     0.2028905 α      lambda       -0.1470331E-02
   maximum displ.:     0.1399572 α      in ANC's #2, #8, #4, ...

........................................................................
.............................. CYCLE   37 ..............................
........................................................................
   1     -9.7394516 -0.973945E+01  0.778E-01    2.52       0.0  T
   2     -9.7393708  0.808233E-04  0.474E-01    2.52       1.0  T
   3     -9.7345455  0.482523E-02  0.724E-01    2.49       1.0  T
   4     -9.7394381 -0.489256E-02  0.978E-02    2.52       1.0  T
   5     -9.7395000 -0.619076E-04  0.326E-02    2.52       1.4  T
   6     -9.7395012 -0.117982E-05  0.108E-02    2.52       4.1  T
   7     -9.7395014 -0.244421E-06  0.565E-03    2.52       7.9  T
   8     -9.7395016 -0.145633E-06  0.195E-03    2.52      23.0  T
   9     -9.7395016 -0.107114E-07  0.576E-04    2.52      77.7  T
  10     -9.7395016 -0.333548E-09  0.891E-05    2.52     501.8  T
     SCC iter.                  ...        0 min,  0.001 sec
     gradient                   ...        0 min,  0.001 sec
 * total energy  :    -9.5403477 Eh     change       -0.8425829E-03 Eh
   gradient norm :     0.0301445 Eh/α   predicted    -0.7654309E-03 (  -9.16%)
   displ. norm   :     0.0632235 α      lambda       -0.4979725E-03
   maximum displ.:     0.0464494 α      in ANC's #8, #2, #4, ...

........................................................................
.............................. CYCLE   38 ..............................
........................................................................
   1     -9.7417706 -0.974177E+01  0.232E-01    2.51       0.0  T
   2     -9.7417724 -0.185319E-05  0.135E-01    2.51       1.0  T
   3     -9.7417575  0.149831E-04  0.493E-02    2.51       1.0  T
   4     -9.7417699 -0.124381E-04  0.224E-02    2.51       2.0  T
   5     -9.7417725 -0.255992E-05  0.141E-02    2.51       3.2  T
   6     -9.7417738 -0.133477E-05  0.288E-03    2.51      15.6  T
   7     -9.7417738  0.321008E-08  0.193E-03    2.51      23.2  T
   8     -9.7417738 -0.197307E-07  0.306E-04    2.51     146.1  T
   9     -9.7417738 -0.776552E-10  0.139E-04    2.51     322.4  T
     SCC iter.                  ...        0 min,  0.001 sec
     gradient                   ...        0 min,  0.001 sec
 * total energy  :    -9.5407180 Eh     change       -0.3703387E-03 Eh
   gradient norm :     0.0188427 Eh/α   predicted    -0.2499822E-03 ( -32.50%)
   displ. norm   :     0.1008489 α      lambda       -0.4805420E-03
   maximum displ.:     0.0792333 α      in ANC's #8, #2, #1, ...

........................................................................
.............................. CYCLE   39 ..............................
........................................................................
   1     -9.7437438 -0.974374E+01  0.357E-01    2.53       0.0  T
   2     -9.7437069  0.368724E-04  0.225E-01    2.54       1.0  T
   3     -9.7422083  0.149867E-02  0.396E-01    2.51       1.0  T
   4     -9.7437526 -0.154437E-02  0.251E-02    2.53       1.8  T
   5     -9.7437553 -0.261978E-05  0.123E-02    2.53       3.6  T
   6     -9.7437556 -0.346431E-06  0.405E-03    2.53      11.0  T
   7     -9.7437556  0.330710E-09  0.218E-03    2.53      20.5  T
   8     -9.7437556 -0.346886E-07  0.510E-04    2.53      87.7  T
   9     -9.7437556 -0.372745E-09  0.911E-05    2.53     491.1  T
     SCC iter.                  ...        0 min,  0.001 sec
     gradient                   ...        0 min,  0.001 sec
 * total energy  :    -9.5410442 Eh     change       -0.3261586E-03 Eh
   gradient norm :     0.0087703 Eh/α   predicted    -0.2427142E-03 ( -25.58%)
   displ. norm   :     0.0713828 α      lambda       -0.2414312E-03
   maximum displ.:     0.0502511 α      in ANC's #8, #2, #1, ...

........................................................................
.............................. CYCLE   40 ..............................
........................................................................
   1     -9.7466782 -0.974668E+01  0.231E-01    2.55       0.0  T
   2     -9.7466351  0.430679E-04  0.157E-01    2.55       1.0  T
   3     -9.7460189  0.616223E-03  0.269E-01    2.54       1.0  T
   4     -9.7466875 -0.668653E-03  0.113E-02    2.55       3.9  T
   5     -9.7466879 -0.412981E-06  0.711E-03    2.55       6.3  T
   6     -9.7466880 -0.390068E-07  0.385E-03    2.55      11.6  T
   7     -9.7466881 -0.107058E-06  0.105E-03    2.55      42.8  T
   8     -9.7466881 -0.347483E-08  0.325E-04    2.55     137.7  T
   9     -9.7466881 -0.698552E-10  0.377E-05    2.55    1187.6  T
     SCC iter.                  ...        0 min,  0.001 sec
     gradient                   ...        0 min,  0.001 sec
 * total energy  :    -9.5412011 Eh     change       -0.1569238E-03 Eh
   gradient norm :     0.0036553 Eh/α   predicted    -0.1213315E-03 ( -22.68%)
   displ. norm   :     0.1198939 α      lambda       -0.1548491E-03
   maximum displ.:     0.0865079 α      in ANC's #8, #2, #1, ...

........................................................................
.............................. CYCLE   41 ..............................
........................................................................
   1     -9.7404555 -0.974046E+01  0.413E-01    2.54       0.0  T
   2     -9.7404564 -0.907246E-06  0.251E-01    2.54       1.0  T
   3     -9.7401758  0.280593E-03  0.180E-01    2.53       1.0  T
   4     -9.7404432 -0.267332E-03  0.484E-02    2.55       1.0  T
   5     -9.7404633 -0.201312E-04  0.157E-02    2.54       2.8  T
   6     -9.7404635 -0.224953E-06  0.102E-02    2.54       4.4  T
   7     -9.7404639 -0.426974E-06  0.296E-03    2.54      15.1  T
   8     -9.7404639 -0.146139E-07  0.606E-04    2.54      73.8  T
   9     -9.7404639 -0.299842E-09  0.267E-04    2.54     167.4  T
     SCC iter.                  ...        0 min,  0.001 sec
     gradient                   ...        0 min,  0.001 sec
 * total energy  :    -9.5411251 Eh     change        0.7601144E-04 Eh
   gradient norm :     0.0174780 Eh/α   predicted    -0.7853820E-04 (-203.32%)
   displ. norm   :     0.0676099 α      lambda       -0.3064474E-03
   maximum displ.:     0.0468497 α      in ANC's #8, #2, #1, ...

........................................................................
.............................. CYCLE   42 ..............................
........................................................................
   1     -9.7467176 -0.974672E+01  0.251E-01    2.56       0.0  T
   2     -9.7467103  0.735212E-05  0.153E-01    2.56       1.0  T
   3     -9.7462465  0.463764E-03  0.220E-01    2.55       1.0  T
   4     -9.7467203 -0.473814E-03  0.262E-02    2.56       1.7  T
   5     -9.7467228 -0.249803E-05  0.147E-02    2.56       3.0  T
   6     -9.7467232 -0.373298E-06  0.617E-03    2.56       7.2  T
   7     -9.7467233 -0.144437E-06  0.172E-03    2.56      26.0  T
   8     -9.7467233 -0.723067E-08  0.493E-04    2.56      90.8  T
   9     -9.7467233 -0.366562E-09  0.176E-04    2.56     254.7  T
     SCC iter.                  ...        0 min,  0.001 sec
     gradient                   ...        0 min,  0.001 sec
 * total energy  :    -9.5412549 Eh     change       -0.1298686E-03 Eh
   gradient norm :     0.0026653 Eh/α   predicted    -0.1539257E-03 (  18.52%)
   displ. norm   :     0.0088768 α      lambda       -0.6285813E-05
   maximum displ.:     0.0071897 α      in ANC's #8, #2, #7, ...
 * RMSD in coord.:     1.0813675 α      energy gain  -0.6113116E-01 Eh

generating ANC from model Hessian ...
Using Lindh-Hessian (1995)
 Shifting diagonal of input Hessian by    9.1318195117162330E-003
 Lowest  eigenvalues of input Hessian
   -0.000000   -0.000000   -0.000000    0.000000    0.000000    0.000000
    0.010000    0.010650    0.097504    0.232522    0.405779    0.476019
    1.235642    1.956963    2.441320
 Highest eigenvalues
    0.232522    0.405779    0.476019    1.235642    1.956963    2.441320


........................................................................
.............................. CYCLE   43 ..............................
........................................................................
   1     -9.7462287 -0.974623E+01  0.323E-02    2.56       0.0  T
   2     -9.7462287 -0.395155E-07  0.193E-02    2.56       2.3  T
   3     -9.7462285  0.267525E-06  0.685E-03    2.56       6.5  T
   4     -9.7462286 -0.855639E-07  0.462E-03    2.56       9.7  T
   5     -9.7462288 -0.200914E-06  0.114E-03    2.56      39.1  T
   6     -9.7462288 -0.767265E-09  0.779E-04    2.56      57.4  T
   7     -9.7462288 -0.297297E-08  0.201E-04    2.56     222.2  T
     SCC iter.                  ...        0 min,  0.001 sec
     gradient                   ...        0 min,  0.001 sec
 * total energy  :    -9.5412596 Eh     change       -0.4698857E-05 Eh
   gradient norm :     0.0012734 Eh/α   predicted     0.0000000E+00 (-100.00%)
   displ. norm   :     0.0526017 α      lambda       -0.1502353E-04
   maximum displ.:     0.0490768 α      in ANC's #2, #1, #3, ...

........................................................................
.............................. CYCLE   44 ..............................
........................................................................
   1     -9.7455017 -0.974550E+01  0.199E-01    2.55       0.0  T
   2     -9.7455023 -0.614804E-06  0.121E-01    2.55       1.0  T
   3     -9.7455014  0.881055E-06  0.139E-02    2.55       3.2  T
   4     -9.7455016 -0.214872E-06  0.111E-02    2.55       4.0  T
   5     -9.7455023 -0.641588E-06  0.657E-03    2.55       6.8  T
   6     -9.7455026 -0.325256E-06  0.149E-03    2.55      30.1  T
   7     -9.7455026 -0.125730E-07  0.541E-04    2.55      82.7  T
   8     -9.7455026 -0.984599E-09  0.829E-05    2.55     539.2  T
     SCC iter.                  ...        0 min,  0.001 sec
     gradient                   ...        0 min,  0.001 sec
 * total energy  :    -9.5411947 Eh     change        0.6496687E-04 Eh
   gradient norm :     0.0041772 Eh/α   predicted    -0.7522501E-05 (-111.58%)
   displ. norm   :     0.0360030 α      lambda       -0.1042649E-03
   maximum displ.:     0.0340225 α      in ANC's #1, #2, #3, ...

........................................................................
.............................. CYCLE   45 ..............................
........................................................................
   1     -9.7452582 -0.974526E+01  0.127E-01    2.55       0.0  T
   2     -9.7452588 -0.550307E-06  0.718E-02    2.55       1.0  T
   3     -9.7452411  0.176363E-04  0.433E-02    2.55       1.0  T
   4     -9.7452595 -0.183804E-04  0.339E-03    2.55      13.2  T
   5     -9.7452595  0.332021E-07  0.216E-03    2.55      20.7  T
   6     -9.7452595 -0.354601E-07  0.733E-04    2.55      61.0  T
   7     -9.7452595 -0.233764E-08  0.259E-04    2.55     172.3  T
     SCC iter.                  ...        0 min,  0.001 sec
     gradient                   ...        0 min,  0.001 sec
 * total energy  :    -9.5412452 Eh     change       -0.5054300E-04 Eh
   gradient norm :     0.0024200 Eh/α   predicted    -0.5219884E-04 (   3.28%)
   displ. norm   :     0.1046121 α      lambda       -0.9823690E-04
   maximum displ.:     0.1016397 α      in ANC's #2, #1, #3, ...

........................................................................
.............................. CYCLE   46 ..............................
........................................................................
   1     -9.7464014 -0.974640E+01  0.377E-01    2.56       0.0  T
   2     -9.7464035 -0.207386E-05  0.228E-01    2.56       1.0  T
   3     -9.7463666  0.369157E-04  0.634E-02    2.55       1.0  T
   4     -9.7464045 -0.379489E-04  0.149E-02    2.56       3.0  T
   5     -9.7464049 -0.355392E-06  0.669E-03    2.56       6.7  T
   6     -9.7464052 -0.293617E-06  0.265E-03    2.56      16.9  T
   7     -9.7464052 -0.119478E-07  0.141E-03    2.56      31.6  T
   8     -9.7464052 -0.816143E-08  0.150E-04    2.56     297.4  T
   9     -9.7464052 -0.141114E-10  0.732E-05    2.56     611.3  T
     SCC iter.                  ...        0 min,  0.001 sec
     gradient                   ...        0 min,  0.001 sec
 * total energy  :    -9.5412312 Eh     change        0.1401326E-04 Eh
   gradient norm :     0.0019390 Eh/α   predicted    -0.4965470E-04 (-454.34%)
   displ. norm   :     0.0848056 α      lambda       -0.6446833E-04
   maximum displ.:     0.0825687 α      in ANC's #2, #1, #3, ...

........................................................................
.............................. CYCLE   47 ..............................
........................................................................
   1     -9.7460237 -0.974602E+01  0.304E-01    2.55       0.0  T
   2     -9.7460251 -0.142099E-05  0.184E-01    2.55       1.0  T
   3     -9.7460089  0.161796E-04  0.437E-02    2.55       1.0  T
   4     -9.7460249 -0.159591E-04  0.145E-02    2.55       3.1  T
   5     -9.7460257 -0.844716E-06  0.821E-03    2.55       5.4  T
   6     -9.7460261 -0.339130E-06  0.197E-03    2.55      22.7  T
   7     -9.7460261 -0.500599E-08  0.106E-03    2.55      42.0  T
   8     -9.7460261 -0.765670E-08  0.117E-04    2.55     382.3  T
   9     -9.7460261 -0.696385E-10  0.338E-05    2.55    1321.5  T
     SCC iter.                  ...        0 min,  0.001 sec
     gradient                   ...        0 min,  0.001 sec
 * total energy  :    -9.5412599 Eh     change       -0.2868130E-04 Eh
   gradient norm :     0.0007542 Eh/α   predicted    -0.3233654E-04 (  12.74%)
   displ. norm   :     0.0255746 α      lambda       -0.8697465E-05
   maximum displ.:     0.0249822 α      in ANC's #2, #1, #3, ...

........................................................................
.............................. CYCLE   48 ..............................
........................................................................
   1     -9.7461843 -0.974618E+01  0.917E-02    2.55       0.0  T
   2     -9.7461844 -0.139391E-06  0.554E-02    2.55       1.0  T
   3     -9.7461835  0.983524E-06  0.106E-02    2.55       4.2  T
   4     -9.7461843 -0.879746E-06  0.538E-03    2.55       8.3  T
   5     -9.7461845 -0.160067E-06  0.274E-03    2.55      16.4  T
   6     -9.7461845 -0.231094E-07  0.992E-04    2.55      45.1  T
   7     -9.7461845 -0.573407E-08  0.352E-04    2.55     127.2  T
     SCC iter.                  ...        0 min,  0.001 sec
     gradient                   ...        0 min,  0.001 sec
 * total energy  :    -9.5412665 Eh     change       -0.6668738E-05 Eh
   gradient norm :     0.0004005 Eh/α   predicted    -0.4349451E-05 ( -34.78%)
   displ. norm   :     0.0025172 α      lambda       -0.3522125E-06
   maximum displ.:     0.0022109 α      in ANC's #3, #5, #2, ...

........................................................................
.............................. CYCLE   49 ..............................
........................................................................
   1     -9.7460159 -0.974602E+01  0.726E-03    2.55       0.0  T
   2     -9.7460159  0.809547E-08  0.448E-03    2.55      10.0  T
   3     -9.7460157  0.278004E-06  0.598E-03    2.55       7.5  T
   4     -9.7460159 -0.268177E-06  0.157E-03    2.55      28.5  T
   5     -9.7460159 -0.239262E-07  0.204E-04    2.55     219.5  T
   6     -9.7460159 -0.507043E-10  0.118E-04    2.55     379.5  T
     SCC iter.                  ...        0 min,  0.001 sec
     gradient                   ...        0 min,  0.001 sec
 * total energy  :    -9.5412669 Eh     change       -0.3512153E-06 Eh
   gradient norm :     0.0003634 Eh/α   predicted    -0.1763105E-06 ( -49.80%)
   displ. norm   :     0.0042678 α      lambda       -0.3742152E-06
   maximum displ.:     0.0039277 α      in ANC's #3, #5, #4, ...

   *** GEOMETRY OPTIMIZATION CONVERGED AFTER 49 ITERATIONS ***

------------------------------------------------------------------------
 total energy gain   :        -0.2737779 Eh     -171.7982 kcal/mol
 total RMSD          :         1.8176844 a0        0.9619 Å
 total power (kW/mol):       -14.6694649 (step)-4961.9267 (real)
------------------------------------------------------------------------

 ANCopt (total)                0 d,  0 h,  0 min,  0.145 sec
 optimizer setup                ...        0 min,  0.000 sec (  0.046%)
 model hessian                  ...        0 min,  0.000 sec (  0.124%)
 ANC generation                 ...        0 min,  0.000 sec (  0.112%)
 coordinate transformation      ...        0 min,  0.000 sec (  0.074%)
 single point calculation       ...        0 min,  0.141 sec ( 97.105%)
 optimization log               ...        0 min,  0.001 sec (  0.839%)
 hessian update                 ...        0 min,  0.000 sec (  0.068%)
 rational function              ...        0 min,  0.001 sec (  0.772%)

================
 final structure:
================
5
 xtb: 6.2.2 (9d81278992624c895f80dd42a50cac0aa55982e2)
C        -0.13132008041807   -1.91082697122061   -0.68123056096945
C         0.03754280479188    0.54158115480997    0.16309365289753
C        -0.04551322148553   -0.71646815693441   -0.49172128644092
N         0.12728346758114    1.68587486706190   -0.25470304706984
H         0.01200602953057    0.39983910628316    1.26456124158269

 Bond Distances (Angstroems)
 ---------------------------
C1-C3=1.2123         C2-C3=1.4207         C2-N4=1.2215         C2-H5=1.1108         C3-C1=1.2123         C3-C2=1.4207         
N4-C2=1.2215         H5-C2=1.1108         
 C  H  Rav=1.1108 sigma=0.0000  Rmin=1.1108  Rmax=1.1108     1
 C  C  Rav=1.3165 sigma=0.1042  Rmin=1.2123  Rmax=1.4207     2
 N  C  Rav=1.2215 sigma=0.0000  Rmin=1.2215  Rmax=1.2215     1

 selected bond angles (degree)
 --------------------
N4-C2-C3=132.55                H5-C2-C3=110.04                H5-C2-N4=117.41                C2-C3-C1=161.54                

 selected dihedral angles (degree)
 ---------------------------------
C1-C3-C2-N4=180.13            C1-C3-C2-H5=  0.15            
           -------------------------------------------------
          |                Final Singlepoint                |
           -------------------------------------------------

          ...................................................
          :                      SETUP                      :
          :.................................................:
          :  # basis functions                  17          :
          :  # atomic orbitals                  17          :
          :  # shells                            9          :
          :  # electrons                        18          :
          :  max. iterations                   250          :
          :  Hamiltonian                  GFN2-xTB          :
          :  restarted?                      false          :
          :  GBSA solvation                  false          :
          :  PC potential                    false          :
          :  electronic temp.          300.0000000     K    :
          :  accuracy                    1.0000000          :
          :  -> integral cutoff          0.2500000E+02      :
          :  -> integral neglect         0.1000000E-07      :
          :  -> SCF convergence          0.1000000E-05 Eh   :
          :  -> wf. convergence          0.1000000E-03 e    :
          :  Broyden damping             0.4000000          :
          ...................................................

 iter      E             dE          RMSdq      gap      omega  full diag
   1     -9.7460159 -0.974602E+01  0.378E-05    2.55       0.0  T
   2     -9.7460159 -0.254019E-12  0.179E-05    2.55    2493.8  T
   3     -9.7460159  0.243894E-11  0.176E-05    2.55    2545.9  T

   *** convergence criteria satisfied after 3 iterations ***

         #    Occupation            Energy/Eh            Energy/eV
      -------------------------------------------------------------
         1        2.0000           -0.6827284             -18.5780
       ...           ...                  ...                  ...
         4        2.0000           -0.5739244             -15.6173
         5        2.0000           -0.5232737             -14.2390
         6        2.0000           -0.4735808             -12.8868
         7        2.0000           -0.4568166             -12.4306
         8        2.0000           -0.4548468             -12.3770
         9        1.0000           -0.4269840             -11.6188
        10        1.0000           -0.3873804             -10.5412 (HOMO)
        11                         -0.2935337              -7.9875 (LUMO)
        12                         -0.2114128              -5.7528
        13                         -0.1473597              -4.0099
        14                          0.1337783               3.6403
        15                          0.1956201               5.3231
       ...                                ...                  ...
        17                          1.1042194              30.0473
      -------------------------------------------------------------
                  HL-Gap            0.0938467 Eh            2.5537 eV
             Fermi-level           -0.3906581 Eh          -10.6303 eV

 transition dipole moment (au) for excitation:           9          10
     X       Y       Z   
  -0.1317  -1.8729  -0.4385  total (au/Debye):    1.928   4.901
 dE (eV)             :    1.078
 oscillator strength :  0.13880E+00

 SCC (total)                   0 d,  0 h,  0 min,  0.003 sec
 SCC setup                      ...        0 min,  0.000 sec (  2.113%)
 Dispersion                     ...        0 min,  0.000 sec (  0.356%)
 integral evaluation            ...        0 min,  0.001 sec ( 31.672%)
 zeroth order Hamiltonian       ...        0 min,  0.000 sec (  0.426%)
 iterations                     ...        0 min,  0.000 sec ( 10.648%)
 molecular gradient             ...        0 min,  0.001 sec ( 31.223%)
 printout                       ...        0 min,  0.001 sec ( 23.207%)

         :::::::::::::::::::::::::::::::::::::::::::::::::::::
         ::                     SUMMARY                     ::
         :::::::::::::::::::::::::::::::::::::::::::::::::::::
         :: total energy              -9.541266899307 Eh    ::
         :: gradient norm              0.000363343056 Eh/a0 ::
         :: HOMO-LUMO gap              2.553698821210 eV    ::
         ::.................................................::
         :: SCC energy                -9.746015946809 Eh    ::
         :: -> isotropic ES            0.005799920230 Eh    ::
         :: -> anisotropic ES          0.001357712570 Eh    ::
         :: -> anisotropic XC          0.013331173897 Eh    ::
         :: -> dispersion             -0.002097909095 Eh    ::
         :: repulsion energy           0.204749029933 Eh    ::
         :: add. restraining           0.000000000000 Eh    ::
         :::::::::::::::::::::::::::::::::::::::::::::::::::::

           ------------------------------------------------- 
          |                Numerical Hessian                |
           ------------------------------------------------- 
step length          :   0.00500
SCC accuracy         :   0.30000
Hessian scale factor :   1.00000
frozen atoms in %    :   0.00000    0
RMS gradient         :   0.00036
estimated CPU  time      0.00 min
estimated wall time      0.00 min

writing file <hessian>.

 projected vibrational frequencies (cm-1)
eigval :       -0.00    -0.00     0.00     0.00     0.00     0.00
eigval :      196.72   227.03   498.01   705.39   944.02  1073.88
eigval :     1796.83  2073.68  2663.31
           -------------------------------------------------
          |                Property Printout                |
           -------------------------------------------------

    * Orbital Energies and Occupations

         #    Occupation            Energy/Eh            Energy/eV
      -------------------------------------------------------------
         1        2.0000           -0.6827286             -18.5780
         2        2.0000           -0.6581230             -17.9084
         3        2.0000           -0.6086875             -16.5632
         4        2.0000           -0.5739245             -15.6173
         5        2.0000           -0.5232738             -14.2390
         6        2.0000           -0.4735809             -12.8868
         7        2.0000           -0.4568164             -12.4306
         8        2.0000           -0.4548466             -12.3770
         9        1.0000           -0.4269838             -11.6188
        10        1.0000           -0.3873806             -10.5412 (HOMO)
        11                         -0.2935338              -7.9875 (LUMO)
        12                         -0.2114125              -5.7528
        13                         -0.1473596              -4.0099
        14                          0.1337782               3.6403
        15                          0.1956200               5.3231
        16                          0.6472309              17.6120
        17                          1.1042196              30.0473
      -------------------------------------------------------------
                  HL-Gap            0.0938468 Eh            2.5537 eV
             Fermi-level           -0.3906580 Eh          -10.6303 eV

     #   Z        covCN         q      C6AA      α(0)
     1   6 C      0.982    -0.069    38.073    10.364
     2   6 C      2.812     0.120    25.351     8.249
     3   6 C      1.965     0.006    30.915     8.979
     4   7 N      0.915    -0.188    25.060     7.238
     5   1 H      0.921     0.131     1.527     1.932

 Mol. C6AA /au·bohr⁶  :        527.970477
 Mol. C8AA /au·bohr⁸  :      13883.845351
 Mol. α(0) /au        :         36.762716


Wiberg/Mayer (AO) data.
largest (>0.10) Wiberg bond orders for each atom
          total WBO             WBO to atom ...
     1  C   2.912        C    3 2.672    N    4 0.199
     2  C   3.895        N    4 2.038    C    3 1.033    H    5 0.796
     3  C   3.771        C    1 2.672    C    2 1.033
     4  N   2.298        C    2 2.038    C    1 0.199
     5  H   0.834        C    2 0.796

MOs/occ written to file <molden.input>


molecular dipole:
                 x           y           z       tot (Debye)
 q only:       -0.017      -0.137       0.524
   full:       -0.033      -0.331       0.636       1.823
molecular quadrupole (traceless):
                xx          xy          yy          xz          yz          zz
 q only:        0.981      -0.292      -2.894       0.015       0.375       1.914
  q+dip:        0.240      -0.266      -3.073       0.080       1.575       2.833
   full:        1.858      -0.565      -5.518       0.079       1.412       3.661

           -------------------------------------------------
          |                Geometry Summary                 |
           -------------------------------------------------

      molecular mass/u    :       51.0468517
   center of mass at/Å    :        0.0023877      -0.0202642      -0.2825265
  moments of inertia/u·Å² :        0.4669334E+01   0.9654196E+02   0.1012113E+03
rotational constants/cm⁻¹ :        0.3610286E+01   0.1746146E+00   0.1665588E+00

 * 2 selected distances

     #   Z        #   Z                                     value/Å
     1   6 C      3   6 C                                 1.2123405 (min)
     2   6 C      4   7 N                                 1.2214809 (max)

 * 2 distinct bonds (by element types)

   Z      Z             #   av. dist./Å        max./Å        min./Å
   6 C    6 C           1     1.2123405     1.2123405     1.2123405
Molecule has the following symmetry elements: (sigma) 
It seems to be the Cs point group
   6 C    7 N           1     1.2214809     1.2214809     1.2214809

           -------------------------------------------------
          |               Frequency Printout                |
           -------------------------------------------------
 projected vibrational frequencies (cm-1)
eigval :       -0.00    -0.00     0.00     0.00     0.00     0.00
eigval :      196.72   227.03   498.01   705.39   944.02  1073.88
eigval :     1796.83  2073.68  2663.31
 reduced masses (amu)
   1: 13.37   2: 12.01   3: 11.24   4:  7.85   5: 12.81   6: 12.46   7: 11.94   8: 11.87
   9: 12.44  10:  6.60  11: 11.21  12:  2.85  13: 12.84  14: 12.01  15:  1.66
 IR intensities (amu)
   1:  0.22   2:  0.03   3:  0.10   4:  0.22   5:  0.20   6:  0.11   7:  0.18   8:  0.21
   9:  0.58  10:  0.03  11:  0.30  12:  0.11  13:  0.72  14:  1.19  15:  0.07
 Raman intensities (amu)
   1:  0.00   2:  0.00   3:  0.00   4:  0.00   5:  0.00   6:  0.00   7:  0.00   8:  0.00
   9:  0.00  10:  0.00  11:  0.00  12:  0.00  13:  0.00  14:  0.00  15:  0.00
 output can be read by thermo (or use thermo option).
 writing <g98.out> molden fake output.
 recommended (thermochemical) frequency scaling factor: 1.0
           -------------------------------------------------
          |             Thermodynamic Functions             |
           -------------------------------------------------

cs  symmetry found (for desy threshold:  0.10E+00) used in thermo

          ...................................................
          :                      SETUP                      :
          :.................................................:
          :  # frequencies                           9      :
          :  # imaginary freq.                       0      :
          :  linear?                             false      :
          :  only rotor calc.                    false      :
          :  symmetry                               cs      :
          :  rotational number                       1      :
          :  scaling factor                  1.0000000      :
          :  rotor cutoff                   50.0000000 cm⁻¹ :
          :  imag. cutoff                  -20.0000000 cm⁻¹ :
          :.................................................:

    mode    ω/cm⁻¹     T·S(HO)/kcal·mol⁻¹    T·S(FR)/kcal·mol⁻¹   T·S(vib)
   ------------------------------------------------------------------------
       1    196.72    -0.00000 ( 99.58%)     0.01192 (  0.42%)     0.00005
       2    227.03    -0.00000 ( 99.77%)     0.01334 (  0.23%)     0.00003
   ------------------------------------------------------------------------

   temp. (K)  partition function   enthalpy   heat capacity  entropy
                                   cal/mol     cal/K/mol   cal/K/mol   J/K/mol
 298.15  VIB   2.83                  939.245      6.499      5.220
         ROT  0.163E+05              888.752      2.981     22.257
         INT  0.462E+05             1827.998      9.480     27.478
         TR   0.353E+27             1481.254      4.968     37.697
         TOT                        3309.2514    14.4481    65.1740   272.6882

   temp. (K)  partition function   enthalpy   heat capacity  entropy
                                   cal/mol     cal/K/mol   cal/K/mol   J/K/mol
 120.00  VIB   1.19                  108.525      2.600      1.246
         ROT  0.417E+04              357.707      2.981     19.544
         INT  0.494E+04              466.232      5.581     20.791
         TR   0.901E+26              596.178      4.968     33.177
         TOT                        1062.4095    10.5489    53.9679   225.8016

   temp. (K)  partition function   enthalpy   heat capacity  entropy
                                   cal/mol     cal/K/mol   cal/K/mol   J/K/mol
 100.00  VIB   1.11                   62.188      2.022      0.826
         ROT  0.317E+04              298.089      2.981     19.001
         INT  0.350E+04              360.277      5.003     19.826
         TR   0.685E+26              496.815      4.968     32.272
         TOT                         857.0917     9.9713    52.0983   217.9795

   temp. (K)  partition function   enthalpy   heat capacity  entropy
                                   cal/mol     cal/K/mol   cal/K/mol   J/K/mol
  80.00  VIB   1.05                   28.162      1.366      0.449
         ROT  0.227E+04              238.471      2.981     18.336
         INT  0.238E+04              266.634      4.347     18.784
         TR   0.490E+26              397.452      4.968     31.164
         TOT                         664.0855     9.3155    49.9480   208.9823

   temp. (K)  partition function   enthalpy   heat capacity  entropy
                                   cal/mol     cal/K/mol   cal/K/mol   J/K/mol
  60.00  VIB   1.01                    7.901      0.661      0.161
         ROT  0.147E+04              178.853      2.981     17.478
         INT  0.149E+04              186.754      3.642     17.639
         TR   0.319E+26              298.089      4.968     29.735
         TOT                         484.8434     8.6102    47.3744   198.2144

   temp. (K)  partition function   enthalpy   heat capacity  entropy
                                   cal/mol     cal/K/mol   cal/K/mol   J/K/mol
  40.00  VIB   1.00                    0.660      0.122      0.019
         ROT   802.                  119.236      2.981     16.269
         INT   803.                  119.896      3.103     16.289
         TR   0.173E+26              198.726      4.968     27.722
         TOT                         318.6220     8.0710    44.0107   184.1408

   temp. (K)  partition function   enthalpy   heat capacity  entropy
                                   cal/mol     cal/K/mol   cal/K/mol   J/K/mol
  20.00  VIB   1.00                    0.000      0.000     -0.004
         ROT   283.                   59.618      2.981     14.203
         INT   283.                   59.618      2.981     14.199
         TR   0.613E+25               99.363      4.968     24.280
         TOT                         158.9813     7.9494    38.4793   160.9974

   temp. (K)  partition function   enthalpy   heat capacity  entropy
                                   cal/mol     cal/K/mol   cal/K/mol   J/K/mol
  10.00  VIB   1.00                    0.000      0.000     -0.008
         ROT   100.                   29.809      2.981     12.137
         INT   100.                   29.809      2.981     12.129
         TR   0.217E+25               49.681      4.968     20.838
         TOT                          79.4904     7.9490    32.9665   137.9320

       T/K    H(0)-H(T)+PV         H(T)/Eh          T*S/Eh         G(T)/Eh
   ------------------------------------------------------------------------
    298.15    0.527363E-02    0.284628E-01    0.309663E-01   -0.250352E-02
    120.00    0.169306E-02    0.248822E-01    0.103204E-01    0.145618E-01
    100.00    0.136586E-02    0.245550E-01    0.830240E-02    0.162526E-01
     80.00    0.105829E-02    0.242474E-01    0.636777E-02    0.178797E-01
     60.00    0.772647E-03    0.239618E-01    0.452975E-02    0.194320E-01
     40.00    0.507756E-03    0.236969E-01    0.280542E-02    0.208915E-01
     20.00    0.253353E-03    0.234425E-01    0.122641E-02    0.222161E-01
     10.00    0.126676E-03    0.233158E-01    0.525355E-03    0.227905E-01 (used)
   ------------------------------------------------------------------------

         :::::::::::::::::::::::::::::::::::::::::::::::::::::
         ::                  THERMODYNAMIC                  ::
         :::::::::::::::::::::::::::::::::::::::::::::::::::::
         :: total free energy          -9.518476431394 Eh   ::
         ::.................................................::
         :: total energy               -9.541266899460 Eh   ::
         :: zero point energy           0.023189147196 Eh   ::
         :: G(RRHO) w/o ZPVE           -0.000398679131 Eh   ::
         :: G(RRHO) contrib.            0.022790468066 Eh   ::
         :::::::::::::::::::::::::::::::::::::::::::::::::::::

optimized geometry written to: xtbopt.xyz


           -------------------------------------------------
          | TOTAL ENERGY               -9.541266899460 Eh   |
          | TOTAL ENTHALPY             -9.517951076248 Eh   |
          | TOTAL FREE ENERGY          -9.518476431394 Eh   |
          | GRADIENT NORM               0.000363307620 Eh/α |
          | HOMO-LUMO GAP               2.553701720847 eV   |
           -------------------------------------------------

------------------------------------------------------------------------
 * finished run on 2020/05/12 at 11:44:50.663     
------------------------------------------------------------------------
 total:
 * wall-time:     0 d,  0 h,  0 min,  0.250 sec
 *  cpu-time:     0 d,  0 h,  0 min,  0.250 sec
 * ratio c/w:     0.998 speedup
 SCF:
 * wall-time:     0 d,  0 h,  0 min,  0.007 sec
 *  cpu-time:     0 d,  0 h,  0 min,  0.007 sec
 * ratio c/w:     0.999 speedup
 ANC optimizer:
 * wall-time:     0 d,  0 h,  0 min,  0.149 sec
 *  cpu-time:     0 d,  0 h,  0 min,  0.148 sec
 * ratio c/w:     0.999 speedup
 numerical hessian:
 * wall-time:     0 d,  0 h,  0 min,  0.078 sec
 *  cpu-time:     0 d,  0 h,  0 min,  0.077 sec
 * ratio c/w:     0.997 speedup

