3
 energy: -6.829649457308 gnorm: 0.302115005671 xtb: 6.2.2 (9d81278992624c895f80dd42a50cac0aa55982e2)
N        -0.00180200000000    0.57745200000000    0.00000000000000
C         1.16508500000000   -0.28509200000000    0.00000000000000
C        -1.16328200000000   -0.29235900000000    0.00000000000000
3
 energy: -6.905227619010 gnorm: 0.160086230289 xtb: 6.2.2 (9d81278992624c895f80dd42a50cac0aa55982e2)
N        -0.00142180252045    0.45563973216367    0.00000000000000
C         1.11346697342800   -0.22434637673815    0.00000000000000
C        -1.11204417090755   -0.23129235542552    0.00000000000000
3
 energy: -6.916636594349 gnorm: 0.155639298755 xtb: 6.2.2 (9d81278992624c895f80dd42a50cac0aa55982e2)
N        -0.00098338329827    0.31518818979681    0.00000000000000
C         1.08089623368866   -0.15422156062255    0.00000000000000
C        -1.07991185039039   -0.16096562917426    0.00000000000000
3
 energy: -6.928685076284 gnorm: 0.048825034703 xtb: 6.2.2 (9d81278992624c895f80dd42a50cac0aa55982e2)
N        -0.00078550045656    0.25179453804658    0.00000000000000
C         1.19037540919445   -0.12218272633410   -0.00000000000000
C        -1.18958890873789   -0.12961081171248    0.00000000000000
3
 energy: -6.930035542401 gnorm: 0.023017751303 xtb: 6.2.2 (9d81278992624c895f80dd42a50cac0aa55982e2)
N        -0.00072729362368    0.23313952782126    0.00000000000000
C         1.18633482887117   -0.11286774835906   -0.00000000000000
C        -1.18560653524750   -0.12027077946220    0.00000000000000
3
 energy: -6.931702901556 gnorm: 0.010412286654 xtb: 6.2.2 (9d81278992624c895f80dd42a50cac0aa55982e2)
N        -0.00052788987362    0.16908706605179    0.00000000000000
C         1.20358558097597   -0.08078755735532   -0.00000000000000
C        -1.20305669110234   -0.08829850869646    0.00000000000000
3
 energy: -6.931058842880 gnorm: 0.064560890899 xtb: 6.2.2 (9d81278992624c895f80dd42a50cac0aa55982e2)
N        -0.00003852445535    0.01267461184325    0.00000000000000
C         1.25668843742563   -0.00241439230197   -0.00000000000000
C        -1.25664891297028   -0.01025921954128    0.00000000000000
3
 energy: -6.933046227141 gnorm: 0.006110510521 xtb: 6.2.2 (9d81278992624c895f80dd42a50cac0aa55982e2)
N        -0.00030060552561    0.09657645259848    0.00000000000000
C         1.21900681185086   -0.04448340606623   -0.00000000000000
C        -1.21870520632525   -0.05209204653226    0.00000000000000
3
 energy: -6.933392688269 gnorm: 0.005960097163 xtb: 6.2.2 (9d81278992624c895f80dd42a50cac0aa55982e2)
N        -0.00021061002328    0.06784936207936    0.00000000000000
C         1.22452164623677   -0.03010238431342   -0.00000000000000
C        -1.22431003621349   -0.03774597776594    0.00000000000000
3
 energy: -6.933624376117 gnorm: 0.014689452757 xtb: 6.2.2 (9d81278992624c895f80dd42a50cac0aa55982e2)
N        -0.00001086769901    0.00442871344139    0.00000000000000
C         1.23305517467960    0.00163555313460   -0.00000000000000
C        -1.23304330698058   -0.00606326657599    0.00000000000000
3
 energy: -6.933724456358 gnorm: 0.003444043071 xtb: 6.2.2 (9d81278992624c895f80dd42a50cac0aa55982e2)
N        -0.00004989928111    0.01624835492550    0.00000000000000
C         1.22792739506728   -0.00429112889829   -0.00000000000000
C        -1.22787649578616   -0.01195622602721    0.00000000000000
3
 energy: -6.933745815805 gnorm: 0.000900271359 xtb: 6.2.2 (9d81278992624c895f80dd42a50cac0aa55982e2)
N        -0.00002426154552    0.00771781899091    0.00000000000000
C         1.22702128734484   -0.00002901636323   -0.00000000000000
C        -1.22699602579932   -0.00768780262768    0.00000000000000
3
 energy: -6.933750034974 gnorm: 0.000207573342 xtb: 6.2.2 (9d81278992624c895f80dd42a50cac0aa55982e2)
N         0.00000990780837   -0.00292630109580    0.00000000000000
C         1.22670717140246    0.00529246895143   -0.00000000000000
C        -1.22671607921083   -0.00236516785563    0.00000000000000
