[Molden Format]
[Title]
[Atoms] AU
N      1     7  0.18694088082753E-04 -0.55299072141437E-02  0.95861529028556E-08
C      2     6  0.23181404263090E+01  0.99891781586041E-02 -0.81092919993515E-05
C      3     6 -0.23181572306613E+01 -0.44573812284061E-02  0.80996959516221E-05
[GTO]
           1 0
 s           4   1.0000000000000000     
   63.594024466941008      -0.19234388414721629     
   10.951417231523665      -0.23478107924953728     
  0.87999310257376984       0.37593753901700888     
  0.33538715296521110       0.14982889271862770     
 p           4   1.0000000000000000     
   7.2965040481495080       0.97658666315667420     
   1.8918745450712575       0.90372226730345739     
  0.66694432110824120       0.47404958461536373     
  0.26552202674130870        7.1516067715011844E-002

           2 0
 s           4   1.0000000000000000     
   51.049363095579913      -0.16312063210127389     
   8.7911227406887544      -0.19911024581000730     
  0.70640422258929825       0.31882047753655751     
  0.26922813413411617       0.12706504184240380     
 p           4   1.0000000000000000     
   5.8263656140800002       0.73716451545209605     
   1.5106896018720002       0.68216371614850257     
  0.53256483288000001       0.35783053929253711     
  0.21202323690600003        5.3983030275847881E-002

           3 0
 s           4   1.0000000000000000     
   51.049363095579913      -0.16312063210127389     
   8.7911227406887544      -0.19911024581000730     
  0.70640422258929825       0.31882047753655751     
  0.26922813413411617       0.12706504184240380     
 p           4   1.0000000000000000     
   5.8263656140800002       0.73716451545209605     
   1.5106896018720002       0.68216371614850257     
  0.53256483288000001       0.35783053929253711     
  0.21202323690600003        5.3983030275847881E-002

[MO]
Sym=     1a
Ene=  -0.72726676467763152     
Spin= Alpha
Occup=     2.00000000
           1 -0.60004513616880140     
           2   1.4818581879300729E-006
           3  -1.4014967638739807E-003
           4   2.4735608224024971E-009
           5 -0.31378034299750518     
           6  0.16190534578264415     
           7   7.8158489624558891E-004
           8  -5.6033312428757546E-007
           9 -0.31377457631650713     
          10 -0.16190510516411089     
          11  -2.2742530823836919E-004
          12   5.5934137790454452E-007
Sym=     2a
Ene=  -0.69321848746487014     
Spin= Alpha
Occup=     2.00000000
           1   4.3532119051802024E-006
           2 -0.47016738770816552     
           3  -1.4647781349554124E-003
           4   1.8035193769406718E-006
           5 -0.44577974596341391     
           6  0.10942701899883470     
           7   1.0077595780601262E-003
           8  -3.2967773524574354E-007
           9  0.44578316551783553     
          10  0.10943373161768666     
          11  -3.2563497846334148E-004
          12  -3.2737771910206593E-007
Sym=     3a
Ene=  -0.57583602894161956     
Spin= Alpha
Occup=     2.00000000
           1  -4.1965770954978344E-003
           2  -2.2571864369704945E-003
           3  0.72440063614972627     
           4  -2.3439399287003929E-005
           5   2.5017461301298032E-003
           6  -9.8451066215647838E-004
           7  0.34751002653857910     
           8  -1.1246005739669689E-005
           9   2.5013099408756480E-003
          10  -1.1812019760218731E-003
          11  0.34750630364536472     
          12  -1.1243785933761660E-005
Sym=     4a
Ene=  -0.57583525844853156     
Spin= Alpha
Occup=     2.00000000
           1  -1.2853582072293279E-007
           2   2.4784918206094627E-006
           3   2.3447688440443732E-005
           4  0.72441463854969657     
           5   2.1674785963652580E-007
           6   1.1591833655958641E-006
           7   1.1246931216481471E-005
           8  0.34751665567293877     
           9  -6.3591043210880897E-008
          10   1.1532849125715210E-006
          11   1.1248265082022959E-005
          12  0.34751354525638745     
Sym=     5a
Ene=  -0.52662740625589533     
Spin= Alpha
Occup=     2.00000000
           1  0.29613142415818866     
           2  -8.1970465894959259E-006
           3   3.1256141744015436E-003
           4  -5.5300017999561771E-009
           5 -0.58435591785196972     
           6 -0.35879489004005605     
           7   1.0016205776220574E-004
           8   1.2477863368251923E-006
           9 -0.58435254076218857     
          10  0.35878120196557617     
          11   2.3361250945786688E-003
          12  -1.2519816315911379E-006
Sym=     6a
Ene=  -0.47209159260130085     
Spin= Alpha
Occup=     2.00000000
           1  -2.1939860881055505E-006
           2  0.31033279107110062     
           3   9.6703942280555212E-004
           4  -1.0535325958179851E-006
           5 -0.42303201348804831     
           6 -0.51953850992167916     
           7  -4.9497657277344839E-003
           8   1.8502062163614099E-006
           9  0.42303813654442651     
          10 -0.51956251649470908     
          11   1.7120368164920210E-003
          12   1.8383991390830901E-006
Sym=     7a
Ene=  -0.39813023513464807     
Spin= Alpha
Occup=     0.50007362
           1  -4.6809862826529869E-008
           2   3.9049935497087985E-007
           3  -2.9107949431737578E-010
           4  -2.6999471208440446E-006
           5  -1.4355257476341974E-007
           6  -6.8275663920239936E-007
           7   3.4690914733114631E-004
           8  0.71347434349654026     
           9   1.8040579892187431E-007
          10  -3.4340725197973835E-006
          11  -3.4691938955864766E-004
          12 -0.71347454835939639     
Sym=     8a
Ene=  -0.39812967560034240     
Spin= Alpha
Occup=     0.49992638
           1   6.4890042230044872E-008
           2  -8.0615166503518855E-004
           3   1.8802308581646425E-007
           4   1.7185814464603003E-009
           5   3.3446671114358543E-004
           6   6.4718817286642874E-003
           7 -0.71344569209922393     
           8   3.4689854543762318E-004
           9  -3.3453647958969789E-004
          10   2.0255517905074412E-003
          11  0.71347237517830020     
          12  -3.4693130782959306E-004
Sym=     9a
Ene=  -0.23084288148830678     
Spin= Alpha
Occup=     0.00000000
           1   4.1609367523196732E-003
           2   2.3908340069354792E-003
           3 -0.76730138378541235     
           4   1.8066827669821662E-004
           5  -1.5949688819575248E-004
           6  -1.5467944039925996E-003
           7  0.65290913625197844     
           8  -1.5373155878537151E-004
           9  -1.5951570582763285E-004
          10  -2.5221047333814470E-003
          11  0.65290729537029402     
          12  -1.5372588085760467E-004
Sym=    10a
Ene=  -0.23083692585436469     
Spin= Alpha
Occup=     0.00000000
           1  -9.7248367683314910E-007
           2   2.1557877327796207E-006
           3   1.8067179964601892E-004
           4  0.76732321783491675     
           5   3.0822491200216782E-008
           6  -1.9143322628245336E-006
           7  -1.5373584565824827E-004
           8 -0.65291024937050279     
           9   4.3710204535099053E-008
          10  -1.6862966665473620E-006
          11  -1.5373833604172380E-004
          12 -0.65291144800436074     
Sym=    11a
Ene=   0.19945763656673959     
Spin= Alpha
Occup=     0.00000000
           1  -1.1591790264826780     
           2   2.2810475104279361E-005
           3  -6.3960121671227943E-003
           4   1.1025367413471656E-008
           5  0.41645975293725229     
           6 -0.73329604296839324     
           7  -2.6724166273986564E-003
           8   2.5312119891825091E-006
           9  0.41646207808872227     
          10  0.73330205574965324     
          11   1.8975364466760870E-003
          12  -2.5298772828768185E-006
Sym=    12a
Ene=   0.94716910610053473     
Spin= Alpha
Occup=     0.00000000
           1   4.7981885031925962E-006
           2   1.3718983412723773     
           3   4.2748380917749509E-003
           4  -4.7788382378651328E-006
           5 -0.69173000704393339     
           6  0.77078514660928932     
           7   6.2202751668161155E-003
           8  -2.6768054617034212E-006
           9  0.69172605530475972     
          10  0.77080465145839738     
          11  -1.4166424452579538E-003
          12  -2.6635573063799762E-006
