      -----------------------------------------------------------      
     |                   =====================                   |     
     |                           x T B                           |     
     |                   =====================                   |     
     |                         S. Grimme                         |     
     |          Mulliken Center for Theoretical Chemistry        |     
     |                    University of Bonn                     |     
      -----------------------------------------------------------      

   * xtb version 6.2.2 (9d81278992624c895f80dd42a50cac0aa55982e2) compiled by '@Darwin' on 04/03/2020

   xtb is free software: you can redistribute it and/or modify it under
   the terms of the GNU Lesser General Public License as published by
   the Free Software Foundation, either version 3 of the License, or
   (at your option) any later version.
   
   xtb is distributed in the hope that it will be useful,
   but WITHOUT ANY WARRANTY; without even the implied warranty of
   MERCHANTABILITY or FITNESS FOR A PARTICULAR PURPOSE.  See the
   GNU Lesser General Public License for more details.
   
   Cite this work as:
   * S. Grimme, C. Bannwarth, P. Shushkov, J. Chem. Theory Comput., 2017,
     13, 1989-2009. DOI: 10.1021/acs.jctc.7b00118
   * C. Bannwarth, S. Ehlert and S. Grimme., J. Chem. Theory Comput., 2019,
     15, 1652-1671. DOI: 10.1021/acs.jctc.8b01176
   * P. Pracht, E. Caldeweyher, S. Ehlert, S. Grimme, ChemRxiv, 2019, preprint.
     DOI: 10.26434/chemrxiv.8326202.v1
   
   for DFT-D4:
   * E. Caldeweyher, C. Bannwarth and S. Grimme, J. Chem. Phys., 2017,
     147, 034112. DOI: 10.1063/1.4993215
   * E. Caldeweyher, S. Ehlert, A. Hansen, H. Neugebauer, S. Spicher,
     C. Bannwarth and S. Grimme, J. Chem. Phys., 2019, 150, 154122.
     DOI: 10.1063/1.5090222
   
   for sTDA-xTB:
   * S. Grimme and C. Bannwarth, J. Chem. Phys., 2016, 145, 054103.
     DOI: 10.1063/1.4959605
   
   in the mass-spec context:
   * V. Asgeirsson, C. Bauer and S. Grimme, Chem. Sci., 2017, 8, 4879.
     DOI: 10.1039/c7sc00601b
   
   for metadynamics refer to:
   * S. Grimme, J. Chem. Theory Comput., 2019, 155, 2847-2862
     DOI: 10.1021/acs.jctc.9b00143
   
   with help from (in alphabetical order)
   C. Bannwarth, F. Bohle, G. Brandenburg, E. Caldeweyher, M. Checinski,
   S. Dohm, S. Ehlert, S. Ehrlich, F. März, H. Neugebauer, J. Pisarek,
   P. Pracht, P. Shushkov, and S. Spicher.
   
 * started run on 2020/05/12 at 11:43:53.844     

           -------------------------------------------------
          |                Calculation Setup                |
           -------------------------------------------------

          program call               : xtb --input C2N1_1_S_1.input C2N1_1_S_1.xyz --ohess --molden --namespace C2N1_1_S_1 output.out
          calculation namespace      : C2N1_1_S_1
          coordinate file            : C2N1_1_S_1.xyz
          number of atoms            :                     3
          number of electrons        :                    13
          charge                     :                     0
          spin                       :                   0.5
          first test random number   :      0.01209482104234

   ID    Z sym.   atoms
    1    7 N      1
    2    6 C      2, 3

           -------------------------------------------------
          |                 G F N 2 - x T B                 |
           -------------------------------------------------

        Reference                      10.1021/acs.jctc.8b01176
      * Hamiltonian:
        H0-scaling (s, p, d)           1.850000    2.230000    2.230000
        zeta-weighting                 0.500000
      * Dispersion:
        s8                             2.700000
        a1                             0.520000
        a2                             5.000000
        s9                             5.000000
      * Repulsion:
        kExp                           1.500000    1.000000
        rExp                           1.000000
      * Coulomb:
        alpha                          2.000000
        third order                    shell-resolved
        anisotropic                    true
        a3                             3.000000
        a5                             4.000000
        cn-shift                       1.200000
        cn-exp                         4.000000
        max-rad                        5.000000


          ...................................................
          :                      SETUP                      :
          :.................................................:
          :  # basis functions                  12          :
          :  # atomic orbitals                  12          :
          :  # shells                            6          :
          :  # electrons                        13          :
          :  max. iterations                   250          :
          :  Hamiltonian                  GFN2-xTB          :
          :  restarted?                      false          :
          :  GBSA solvation                  false          :
          :  PC potential                    false          :
          :  electronic temp.          300.0000000     K    :
          :  accuracy                    1.0000000          :
          :  -> integral cutoff          0.2500000E+02      :
          :  -> integral neglect         0.1000000E-07      :
          :  -> SCF convergence          0.1000000E-05 Eh   :
          :  -> wf. convergence          0.1000000E-03 e    :
          :  Broyden damping             0.4000000          :
          ...................................................

 iter      E             dE          RMSdq      gap      omega  full diag
   1     -6.8230841 -0.682308E+01  0.119E+01    0.63       0.0  T
   2     -6.8003213  0.227628E-01  0.867E+00    0.20       1.0  T
   3     -6.7628196  0.375017E-01  0.604E+00    0.75       1.0  T
   4     -6.8519551 -0.891355E-01  0.884E-01    0.36       1.0  T
   5     -6.8521269 -0.171782E-03  0.659E-01    0.35       1.0  T
   6     -6.8521496 -0.227033E-04  0.780E-02    0.35       1.0  T
   7     -6.8521459  0.372191E-05  0.660E-02    0.35       1.0  T
   8     -6.8521565 -0.106253E-04  0.202E-02    0.35       2.9  T
   9     -6.8521585 -0.199736E-05  0.120E-02    0.35       4.8  T
  10     -6.8521589 -0.422507E-06  0.200E-03    0.35      28.8  T
  11     -6.8521589 -0.974667E-08  0.524E-04    0.35     110.1  T
  12     -6.8521589 -0.802242E-09  0.466E-05    0.35    1238.2  T

   *** convergence criteria satisfied after 12 iterations ***

         #    Occupation            Energy/Eh            Energy/eV
      -------------------------------------------------------------
         1        2.0000           -0.7186852             -19.5564
         2        2.0000           -0.6703343             -18.2407
         3        2.0000           -0.5874485             -15.9853
         4        2.0000           -0.5468201             -14.8797
         5        2.0000           -0.5212591             -14.1842
         6        2.0000           -0.5152466             -14.0206
         7        0.9988           -0.4171983             -11.3525 (HOMO)
         8        0.0012           -0.4043417             -11.0027 (LUMO)
         9                         -0.3904418             -10.6245
        10                         -0.3434871              -9.3468
        11                         -0.0033287              -0.0906
        12                          0.0361061               0.9825
      -------------------------------------------------------------
                  HL-Gap            0.0128566 Eh            0.3498 eV
             Fermi-level           -0.4384962 Eh          -11.9321 eV

 SCC (total)                   0 d,  0 h,  0 min,  0.002 sec
 SCC setup                      ...        0 min,  0.000 sec (  4.059%)
 Dispersion                     ...        0 min,  0.000 sec (  0.618%)
 integral evaluation            ...        0 min,  0.000 sec ( 28.151%)
 zeroth order Hamiltonian       ...        0 min,  0.000 sec (  0.618%)
 iterations                     ...        0 min,  0.001 sec ( 38.491%)
 molecular gradient             ...        0 min,  0.000 sec ( 25.004%)
 printout                       ...        0 min,  0.000 sec (  2.456%)

         :::::::::::::::::::::::::::::::::::::::::::::::::::::
         ::                     SUMMARY                     ::
         :::::::::::::::::::::::::::::::::::::::::::::::::::::
         :: total energy              -6.829649457259 Eh    ::
         :: gradient norm              0.302115345078 Eh/a0 ::
         :: HOMO-LUMO gap              0.349846663588 eV    ::
         ::.................................................::
         :: SCC energy                -6.852158906928 Eh    ::
         :: -> isotropic ES           -0.031508881208 Eh    ::
         :: -> anisotropic ES         -0.001232303801 Eh    ::
         :: -> anisotropic XC          0.010195027237 Eh    ::
         :: -> dispersion             -0.000978169995 Eh    ::
         :: repulsion energy           0.022509448130 Eh    ::
         :: add. restraining           0.000000000000 Eh    ::
         :::::::::::::::::::::::::::::::::::::::::::::::::::::

      ----------------------------------------------------------- 
     |                   =====================                   |
     |                        A N C O P T                        |
     |                   =====================                   |
     |               Approximate Normal Coordinate               |
     |                Rational Function Optimizer                |
      ----------------------------------------------------------- 

          ...................................................
          :                      SETUP                      :
          :.................................................:
          :   optimization level            normal          :
          :   max. optcycles                   200          :
          :   ANC micro-cycles                  20          :
          :   degrees of freedom                 3          :
          :.................................................:
          :   RF solver                   davidson          :
          :   write xtbopt.log                true          :
          :   linear?                        false          :
          :   energy convergence         0.5000000E-05 Eh   :
          :   grad. convergence          0.1000000E-02 Eh/α :
          :   maximium RF displ.         1.0000000          :
          :   Hlow (freq-cutoff)         0.1000000E-01      :
          :   Hmax (freq-cutoff)         5.0000000          :
          :   S6 in model hess.         20.0000000          :
          ...................................................

generating ANC from model Hessian ...
Using Lindh-Hessian (1995)
 Shifting diagonal of input Hessian by    0.0000000000000000     
 Lowest  eigenvalues of input Hessian
   -0.000000   -0.000000   -0.000000    0.000000    0.000000    0.000000
    0.115265    0.881831    1.119929
 Highest eigenvalues
    0.000000    0.000000    0.000000    0.115265    0.881831    1.119929


........................................................................
.............................. CYCLE    1 ..............................
........................................................................
   1     -6.8521589 -0.685216E+01  0.181E-06    0.35       0.0  T
   2     -6.8521589  0.266454E-14  0.121E-06    0.35   47636.4  T
   3     -6.8521589  0.239808E-13  0.195E-06    0.35   29536.5  T
     SCC iter.                  ...        0 min,  0.000 sec
     gradient                   ...        0 min,  0.000 sec
 * total energy  :    -6.8296495 Eh     change       -0.4849365E-10 Eh
   gradient norm :     0.3021150 Eh/α   predicted     0.0000000E+00 (-100.00%)
   displ. norm   :     0.3136448 α      lambda       -0.9397051E-01
   maximum displ.:     0.3094110 α      in ANC's #2, #1, #3, ...

........................................................................
.............................. CYCLE    2 ..............................
........................................................................
   1     -6.9579034 -0.695790E+01  0.272E+00    0.74       0.0  T
   2     -6.9641519 -0.624847E-02  0.225E+00    0.74       1.0  T
   3     -6.9706089 -0.645701E-02  0.101E+00    0.74       1.0  T
   4     -6.9706154 -0.651813E-05  0.218E-01    0.75       1.0  T
   5     -6.9706384 -0.229818E-04  0.107E-01    0.75       1.0  T
   6     -6.9706700 -0.315843E-04  0.150E-02    0.75       3.9  T
   7     -6.9706704 -0.365110E-06  0.382E-03    0.75      15.1  T
   8     -6.9706704 -0.490733E-07  0.226E-03    0.75      25.5  T
   9     -6.9706704 -0.239035E-07  0.333E-04    0.75     173.5  T
  10     -6.9706704 -0.513731E-10  0.141E-05    0.75    4095.3  T
     SCC iter.                  ...        0 min,  0.000 sec
     gradient                   ...        0 min,  0.000 sec
 * total energy  :    -6.9052276 Eh     change       -0.7557816E-01 Eh
   gradient norm :     0.1600862 Eh/α   predicted    -0.5160733E-01 ( -31.72%)
   displ. norm   :     0.3363686 α      lambda       -0.5172119E-01
   maximum displ.:     0.3150261 α      in ANC's #2, #1, #3, ...

........................................................................
.............................. CYCLE    3 ..............................
........................................................................
   1     -7.0706270 -0.707063E+01  0.262E+00    0.54       0.0  T
   2     -7.0765541 -0.592715E-02  0.156E+00    0.54       1.0  T
   3     -7.0772315 -0.677333E-03  0.857E-01    0.54       1.0  T
   4     -7.0772719 -0.404347E-04  0.123E-01    0.55       1.0  T
   5     -7.0772726 -0.709122E-06  0.358E-02    0.55       1.6  T
   6     -7.0772753 -0.265329E-05  0.437E-03    0.55      13.2  T
   7     -7.0772753  0.129611E-08  0.929E-04    0.55      62.2  T
   8     -7.0772753 -0.474868E-09  0.481E-04    0.55     119.9  T
     SCC iter.                  ...        0 min,  0.000 sec
     gradient                   ...        0 min,  0.000 sec
 * total energy  :    -6.9166366 Eh     change       -0.1140898E-01 Eh
   gradient norm :     0.1556393 Eh/α   predicted    -0.2878657E-01 ( 152.32%)
   displ. norm   :     0.3275455 α      lambda       -0.3093051E-01
   maximum displ.:     0.3236875 α      in ANC's #1, #2, #3, ...

........................................................................
.............................. CYCLE    4 ..............................
........................................................................
   1     -7.0209745 -0.702097E+01  0.266E+00    0.13       0.0  T
   2     -7.0260372 -0.506271E-02  0.128E+00    0.14       1.0  T
   3     -7.0271662 -0.112900E-02  0.766E-01    0.14       1.0  T
   4     -7.0273060 -0.139766E-03  0.564E-02    0.15       1.0  T
   5     -7.0273067 -0.684220E-06  0.246E-02    0.15       2.4  T
   6     -7.0273071 -0.439524E-06  0.926E-03    0.15       6.2  T
   7     -7.0273075 -0.407266E-06  0.378E-03    0.15      15.3  T
   8     -7.0273075 -0.292469E-07  0.226E-04    0.15     255.7  T
   9     -7.0273075 -0.147473E-10  0.127E-04    0.15     453.8  T
     SCC iter.                  ...        0 min,  0.000 sec
     gradient                   ...        0 min,  0.000 sec
 * total energy  :    -6.9286851 Eh     change       -0.1204848E-01 Eh
   gradient norm :     0.0488250 Eh/α   predicted    -0.1712446E-01 (  42.13%)
   displ. norm   :     0.0444870 α      lambda       -0.1767880E-02
   maximum displ.:     0.0414001 α      in ANC's #2, #1, #3, ...

........................................................................
.............................. CYCLE    5 ..............................
........................................................................
   1     -7.0373635 -0.703736E+01  0.367E-01    0.13       0.0  T
   2     -7.0374307 -0.671993E-04  0.221E-01    0.13       1.0  T
   3     -7.0374434 -0.126228E-04  0.113E-01    0.13       1.0  T
   4     -7.0374464 -0.305344E-05  0.176E-02    0.13       3.3  T
   5     -7.0374464 -0.526692E-08  0.214E-03    0.13      26.9  T
   6     -7.0374464  0.848299E-11  0.789E-04    0.13      73.2  T
   7     -7.0374464 -0.106372E-09  0.152E-04    0.13     378.6  T
     SCC iter.                  ...        0 min,  0.000 sec
     gradient                   ...        0 min,  0.000 sec
 * total energy  :    -6.9300355 Eh     change       -0.1350466E-02 Eh
   gradient norm :     0.0230178 Eh/α   predicted    -0.8856909E-03 ( -34.42%)
   displ. norm   :     0.1553283 α      lambda       -0.2057069E-02
   maximum displ.:     0.1236959 α      in ANC's #1, #2, #3, ...

........................................................................
.............................. CYCLE    6 ..............................
........................................................................
   1     -7.0441257 -0.704413E+01  0.242E+00    0.02       0.0  T
   2     -7.0443023 -0.176660E-03  0.768E-01    0.05       1.0  T
   3     -7.0443187 -0.163778E-04  0.260E-01    0.06       1.0  T
   4     -7.0443199 -0.114408E-05  0.430E-02    0.06       1.3  T
   5     -7.0443202 -0.374969E-06  0.140E-02    0.06       4.1  T
   6     -7.0443200  0.228325E-06  0.126E-02    0.06       4.6  T
   7     -7.0443203 -0.257557E-06  0.748E-03    0.06       7.7  T
   8     -7.0443203 -0.928692E-08  0.423E-04    0.06     136.5  T
   9     -7.0443203  0.160849E-11  0.548E-04    0.06     105.3  T
     SCC iter.                  ...        0 min,  0.001 sec
     gradient                   ...        0 min,  0.000 sec
 * total energy  :    -6.9317029 Eh     change       -0.1667359E-02 Eh
   gradient norm :     0.0104123 Eh/α   predicted    -0.1053350E-02 ( -36.83%)
   displ. norm   :     0.3890707 α      lambda       -0.3399883E-02
   maximum displ.:     0.3259704 α      in ANC's #1, #2, #3, ...

........................................................................
.............................. CYCLE    7 ..............................
........................................................................
   1     -7.0224248 -0.702242E+01  0.403E+00    0.05       0.0  T
   2     -7.0236950 -0.127012E-02  0.146E+00    0.01       1.0  T
   3     -7.0237880 -0.929954E-04  0.665E-01    0.00       1.0  T
   4     -7.0239571 -0.169129E-03  0.350E-01    0.00       1.0  T
   5     -7.0239878 -0.306856E-04  0.354E-02    0.00       1.6  T
   6     -7.0239878 -0.685097E-07  0.169E-02    0.00       3.4  T
   7     -7.0239878  0.428427E-07  0.396E-03    0.00      14.6  T
   8     -7.0239879 -0.781859E-07  0.143E-03    0.00      40.4  T
   9     -7.0239879 -0.131861E-08  0.444E-04    0.00     130.1  T
  10     -7.0239879 -0.690825E-11  0.601E-05    0.00     960.4  T
     SCC iter.                  ...        0 min,  0.000 sec
     gradient                   ...        0 min,  0.001 sec
 * total energy  :    -6.9310588 Eh     change        0.6440587E-03 Eh
   gradient norm :     0.0645609 Eh/α   predicted    -0.1957271E-02 (-403.90%)
   displ. norm   :     0.2189067 α      lambda       -0.6066557E-02
   maximum displ.:     0.1948850 α      in ANC's #1, #2, #3, ...

........................................................................
.............................. CYCLE    8 ..............................
........................................................................
   1     -7.0465538 -0.704655E+01  0.180E+00    0.03       0.0  T
   2     -7.0473744 -0.820531E-03  0.742E-01    0.02       1.0  T
   3     -7.0474706 -0.962702E-04  0.399E-01    0.02       1.0  T
   4     -7.0475244 -0.537297E-04  0.151E-01    0.02       1.0  T
   5     -7.0475259 -0.156340E-05  0.182E-02    0.02       3.2  T
   6     -7.0475259 -0.183505E-07  0.285E-03    0.02      20.2  T
   7     -7.0475259  0.137978E-08  0.804E-04    0.02      71.8  T
   8     -7.0475259 -0.194909E-08  0.485E-04    0.02     119.2  T
     SCC iter.                  ...        0 min,  0.001 sec
     gradient                   ...        0 min,  0.000 sec
 * total energy  :    -6.9330462 Eh     change       -0.1987384E-02 Eh
   gradient norm :     0.0061105 Eh/α   predicted    -0.3178637E-02 (  59.94%)
   displ. norm   :     0.0681273 α      lambda       -0.4108285E-03
   maximum displ.:     0.0506378 α      in ANC's #1, #2, #3, ...

........................................................................
.............................. CYCLE    9 ..............................
........................................................................
   1     -7.0468780 -0.704688E+01  0.724E-01    0.00       0.0  T
   2     -7.0468983 -0.202645E-04  0.240E-01    0.01       1.0  T
   3     -7.0469001 -0.181523E-05  0.106E-01    0.01       1.0  T
   4     -7.0468998  0.274890E-06  0.320E-02    0.01       1.8  T
   5     -7.0469008 -0.102510E-05  0.608E-03    0.01       9.5  T
   6     -7.0469008  0.830145E-09  0.809E-04    0.01      71.3  T
   7     -7.0469008 -0.194538E-08  0.528E-04    0.01     109.3  T
     SCC iter.                  ...        0 min,  0.001 sec
     gradient                   ...        0 min,  0.001 sec
 * total energy  :    -6.9333927 Eh     change       -0.3464611E-03 Eh
   gradient norm :     0.0059601 Eh/α   predicted    -0.2063680E-03 ( -40.44%)
   displ. norm   :     0.1485858 α      lambda       -0.6366915E-03
   maximum displ.:     0.1062560 α      in ANC's #2, #1, #3, ...

........................................................................
.............................. CYCLE   10 ..............................
........................................................................
   1     -7.0435711 -0.704357E+01  0.946E-01    0.01       0.0  T
   2     -7.0436180 -0.468460E-04  0.463E-01    0.00       1.0  T
   3     -7.0436227 -0.476014E-05  0.187E-01    0.00       1.0  T
   4     -7.0436259 -0.311612E-05  0.622E-02    0.00       1.0  T
   5     -7.0436288 -0.290865E-05  0.137E-02    0.00       4.2  T
   6     -7.0436288  0.905937E-08  0.210E-03    0.00      27.5  T
   7     -7.0436288 -0.234526E-07  0.558E-04    0.00     103.5  T
   8     -7.0436288 -0.108096E-08  0.204E-04    0.00     282.5  T
     SCC iter.                  ...        0 min,  0.000 sec
     gradient                   ...        0 min,  0.000 sec
 * total energy  :    -6.9336244 Eh     change       -0.2316878E-03 Eh
   gradient norm :     0.0146895 Eh/α   predicted    -0.3253764E-03 (  40.44%)
   displ. norm   :     0.0306199 α      lambda       -0.1906018E-03
   maximum displ.:     0.0270633 α      in ANC's #1, #2, #3, ...

........................................................................
.............................. CYCLE   11 ..............................
........................................................................
   1     -7.0476071 -0.704761E+01  0.188E-01    0.00       0.0  T
   2     -7.0476258 -0.187503E-04  0.102E-01    0.00       1.0  T
   3     -7.0476287 -0.286304E-05  0.588E-02    0.00       1.0  T
   4     -7.0476293 -0.637678E-06  0.712E-03    0.00       8.1  T
   5     -7.0476293  0.151293E-08  0.248E-03    0.00      23.3  T
   6     -7.0476293  0.312075E-07  0.248E-03    0.00      23.3  T
   7     -7.0476293 -0.348057E-07  0.143E-04    0.00     403.7  T
   8     -7.0476293 -0.405809E-11  0.592E-05    0.00     975.7  T
     SCC iter.                  ...        0 min,  0.000 sec
     gradient                   ...        0 min,  0.001 sec
 * total energy  :    -6.9337245 Eh     change       -0.1000802E-03 Eh
   gradient norm :     0.0034440 Eh/α   predicted    -0.9538898E-04 (  -4.69%)
   displ. norm   :     0.0198872 α      lambda       -0.3101392E-04
   maximum displ.:     0.0174740 α      in ANC's #2, #1, #3, ...

........................................................................
.............................. CYCLE   12 ..............................
........................................................................
   1     -7.0485230 -0.704852E+01  0.106E-01    0.00       0.0  T
   2     -7.0485240 -0.106203E-05  0.610E-02    0.00       1.0  T
   3     -7.0485240  0.446276E-07  0.216E-02    0.00       2.7  T
   4     -7.0485243 -0.289945E-06  0.503E-03    0.00      11.5  T
   5     -7.0485243 -0.298982E-08  0.169E-03    0.00      34.2  T
   6     -7.0485243  0.808544E-08  0.125E-03    0.00      46.3  T
   7     -7.0485243 -0.889508E-08  0.499E-05    0.00    1156.6  T
   8     -7.0485243 -0.238920E-12  0.176E-05    0.00    3289.6  T
     SCC iter.                  ...        0 min,  0.000 sec
     gradient                   ...        0 min,  0.000 sec
 * total energy  :    -6.9337458 Eh     change       -0.2135945E-04 Eh
   gradient norm :     0.0009003 Eh/α   predicted    -0.1551175E-04 ( -27.38%)
   displ. norm   :     0.0246480 α      lambda       -0.8989729E-05
   maximum displ.:     0.0205373 α      in ANC's #2, #1, #3, ...

........................................................................
.............................. CYCLE   13 ..............................
........................................................................
   1     -7.0488071 -0.704881E+01  0.125E-01    0.00       0.0  T
   2     -7.0488076 -0.502710E-06  0.744E-02    0.00       1.0  T
   3     -7.0488077 -0.112540E-06  0.104E-02    0.00       5.5  T
   4     -7.0488078 -0.728534E-07  0.500E-03    0.00      11.5  T
   5     -7.0488078 -0.231434E-08  0.742E-04    0.00      77.8  T
   6     -7.0488078  0.380667E-08  0.972E-04    0.00      59.4  T
     SCC iter.                  ...        0 min,  0.000 sec
     gradient                   ...        0 min,  0.001 sec
 * total energy  :    -6.9337500 Eh     change       -0.4219169E-05 Eh
   gradient norm :     0.0002075 Eh/α   predicted    -0.4497756E-05 (   6.60%)
   displ. norm   :     0.0067771 α      lambda       -0.8774191E-06
   maximum displ.:     0.0055086 α      in ANC's #2, #1, #3, ...

   *** GEOMETRY OPTIMIZATION CONVERGED AFTER 13 ITERATIONS ***

------------------------------------------------------------------------
 total energy gain   :        -0.1041006 Eh      -65.3241 kcal/mol
 total RMSD          :         0.7737445 a0        0.4094 Å
 total power (kW/mol):       -21.0243100 (step)********** (real)
------------------------------------------------------------------------

 ANCopt (total)                0 d,  0 h,  0 min,  0.019 sec
 optimizer setup                ...        0 min,  0.000 sec (  0.272%)
 model hessian                  ...        0 min,  0.000 sec (  0.164%)
 ANC generation                 ...        0 min,  0.000 sec (  0.143%)
 coordinate transformation      ...        0 min,  0.000 sec (  0.131%)
 single point calculation       ...        0 min,  0.018 sec ( 94.715%)
 optimization log               ...        0 min,  0.000 sec (  1.464%)
 hessian update                 ...        0 min,  0.000 sec (  0.107%)
 rational function              ...        0 min,  0.000 sec (  0.974%)

================
 final structure:
================
3
 xtb: 6.2.2 (9d81278992624c895f80dd42a50cac0aa55982e2)
N         0.00000990780837   -0.00292630109580    0.00000000000000
C         1.22670717140246    0.00529246895143   -0.00000000000000
C        -1.22671607921083   -0.00236516785563    0.00000000000000

 Bond Distances (Angstroems)
 ---------------------------
N1-C2=1.2267         N1-C3=1.2267         C2-N1=1.2267         C3-N1=1.2267         
 N  C  Rav=1.2267 sigma=0.0000  Rmin=1.2267  Rmax=1.2267     2

 selected bond angles (degree)
 --------------------
C3-N1-C2=179.59                

 selected dihedral angles (degree)
 ---------------------------------

           -------------------------------------------------
          |                Final Singlepoint                |
           -------------------------------------------------

          ...................................................
          :                      SETUP                      :
          :.................................................:
          :  # basis functions                  12          :
          :  # atomic orbitals                  12          :
          :  # shells                            6          :
          :  # electrons                        13          :
          :  max. iterations                   250          :
          :  Hamiltonian                  GFN2-xTB          :
          :  restarted?                      false          :
          :  GBSA solvation                  false          :
          :  PC potential                    false          :
          :  electronic temp.          300.0000000     K    :
          :  accuracy                    1.0000000          :
          :  -> integral cutoff          0.2500000E+02      :
          :  -> integral neglect         0.1000000E-07      :
          :  -> SCF convergence          0.1000000E-05 Eh   :
          :  -> wf. convergence          0.1000000E-03 e    :
          :  Broyden damping             0.4000000          :
          ...................................................

 iter      E             dE          RMSdq      gap      omega  full diag
   1     -7.0488078 -0.704881E+01  0.248E-04    0.00       0.0  T
   2     -7.0488078  0.407674E-12  0.149E-04    0.00     386.6  T
   3     -7.0488078  0.300826E-10  0.723E-05    0.00     798.2  T

   *** convergence criteria satisfied after 3 iterations ***

         #    Occupation            Energy/Eh            Energy/eV
      -------------------------------------------------------------
         1        2.0000           -0.7272668             -19.7899
         2        2.0000           -0.6932185             -18.8634
         3        2.0000           -0.5758360             -15.6693
         4        2.0000           -0.5758353             -15.6693
         5        2.0000           -0.5266274             -14.3303
         6        2.0000           -0.4720916             -12.8463
         7        0.5001           -0.3981302             -10.8337 (HOMO)
         8        0.4999           -0.3981297             -10.8337 (LUMO)
         9                         -0.2308429              -6.2816
        10                         -0.2308369              -6.2814
        11                          0.1994576               5.4275
        12                          0.9471691              25.7738
      -------------------------------------------------------------
                  HL-Gap            0.0000006 Eh            0.0000 eV
             Fermi-level           -0.4166204 Eh          -11.3368 eV

 SCC (total)                   0 d,  0 h,  0 min,  0.001 sec
 SCC setup                      ...        0 min,  0.000 sec (  4.864%)
 Dispersion                     ...        0 min,  0.000 sec (  0.477%)
 integral evaluation            ...        0 min,  0.000 sec ( 35.457%)
 zeroth order Hamiltonian       ...        0 min,  0.000 sec (  0.381%)
 iterations                     ...        0 min,  0.000 sec ( 21.858%)
 molecular gradient             ...        0 min,  0.000 sec ( 33.855%)
 printout                       ...        0 min,  0.000 sec (  2.804%)

         :::::::::::::::::::::::::::::::::::::::::::::::::::::
         ::                     SUMMARY                     ::
         :::::::::::::::::::::::::::::::::::::::::::::::::::::
         :: total energy              -6.933750040399 Eh    ::
         :: gradient norm              0.000207152166 Eh/a0 ::
         :: HOMO-LUMO gap              0.000015118883 eV    ::
         ::.................................................::
         :: SCC energy                -7.048807816377 Eh    ::
         :: -> isotropic ES           -0.022759028293 Eh    ::
         :: -> anisotropic ES         -0.000012379063 Eh    ::
         :: -> anisotropic XC          0.014685176543 Eh    ::
         :: -> dispersion             -0.000974507768 Eh    ::
         :: repulsion energy           0.115057779434 Eh    ::
         :: add. restraining           0.000000000000 Eh    ::
         :::::::::::::::::::::::::::::::::::::::::::::::::::::

           ------------------------------------------------- 
          |                Numerical Hessian                |
           ------------------------------------------------- 
step length          :   0.00500
SCC accuracy         :   0.30000
Hessian scale factor :   1.00000
frozen atoms in %    :   0.00000    0
RMS gradient         :   0.00021
estimated CPU  time      0.00 min
estimated wall time      0.00 min

writing file <hessian>.

 vibrational frequencies (cm-1)
eigval :        0.00     0.00     0.00     0.00     0.00   238.48
eigval :      238.55  1398.35  1763.53
           -------------------------------------------------
          |                Property Printout                |
           -------------------------------------------------

    * Orbital Energies and Occupations

         #    Occupation            Energy/Eh            Energy/eV
      -------------------------------------------------------------
         1        2.0000           -0.7272668             -19.7899
         2        2.0000           -0.6932185             -18.8634
         3        2.0000           -0.5758360             -15.6693
         4        2.0000           -0.5758353             -15.6693
         5        2.0000           -0.5266274             -14.3303
         6        2.0000           -0.4720916             -12.8463
         7        0.5001           -0.3981302             -10.8337 (HOMO)
         8        0.4999           -0.3981297             -10.8337 (LUMO)
         9                         -0.2308429              -6.2816
        10                         -0.2308369              -6.2814
        11                          0.1994576               5.4275
        12                          0.9471691              25.7738
      -------------------------------------------------------------
                  HL-Gap            0.0000006 Eh            0.0000 eV
             Fermi-level           -0.4166204 Eh          -11.3368 eV

     #   Z        covCN         q      C6AA      α(0)
     1   7 N      1.821     0.168    19.024     6.463
     2   6 C      0.918    -0.084    38.106    10.335
     3   6 C      0.918    -0.084    38.106    10.335

 Mol. C6AA /au·bohr⁶  :        278.402498
 Mol. C8AA /au·bohr⁸  :       7529.654191
 Mol. α(0) /au        :         27.132748


Wiberg/Mayer (AO) data.
largest (>0.10) Wiberg bond orders for each atom
          total WBO             WBO to atom ...
     1  N   3.784        C    2 1.892    C    3 1.892
     2  C   1.955        N    1 1.892
     3  C   1.955        N    1 1.892

MOs/occ written to file <molden.input>


molecular dipole:
                 x           y           z       tot (Debye)
 q only:        0.000      -0.001       0.000
   full:        0.000      -0.003       0.000       0.008
molecular quadrupole (traceless):
                xx          xy          yy          xz          yz          zz
 q only:       -0.901      -0.004       0.450       0.000       0.000       0.450
  q+dip:       -3.028      -0.014       1.514       0.000       0.000       1.514
   full:       -5.624      -0.026       2.812       0.000      -0.000       2.812

           -------------------------------------------------
          |                Geometry Summary                 |
           -------------------------------------------------

      molecular mass/u    :       38.0281750
   center of mass at/Å    :        0.0000008      -0.0001533       0.0000000
  moments of inertia/u·Å² :        0.1705117E-03   0.3614838E+02   0.3614855E+02
rotational constants/cm⁻¹ :        0.9886496E+05   0.4663455E+00   0.4663433E+00

 * 2 selected distances

     #   Z        #   Z                                     value/Å
     1   7 N      2   6 C                                 1.2267248 (min)
     1   7 N      3   6 C                                 1.2267261 (max)

 * 1 distinct bonds (by element types)

   Z      Z             #   av. dist./Å        max./Å        min./Å
   6 C    7 N           2     1.2267255     1.2267261     1.2267248

           -------------------------------------------------
          |               Frequency Printout                |
           -------------------------------------------------
 vibrational frequencies (cm-1)
eigval :        0.00     0.00     0.00     0.00     0.00   238.48
eigval :      238.55  1398.35  1763.53
 reduced masses (amu)
   1: 12.01   2: 12.01   3: 12.75   4: 12.75   5: 12.75   6: 13.27   7: 13.27   8: 12.01
   9: 13.27
 IR intensities (amu)
   1:  0.02   2:  0.00   3:  0.03   4:  0.02   5:  0.00   6:  0.48   7:  0.48   8:  0.00
   9:  0.12
 Raman intensities (amu)
   1:  0.00   2:  0.00   3:  0.00   4:  0.00   5:  0.00   6:  0.00   7:  0.00   8:  0.00
   9:  0.00
 output can be read by thermo (or use thermo option).
 writing <g98.out> molden fake output.
 recommended (thermochemical) frequency scaling factor: 1.0
Molecule has the following symmetry elements: (i) (Cinf) (C2) 2*(sigma) 
It seems to be the Dinfh point group
           -------------------------------------------------
          |             Thermodynamic Functions             |
           -------------------------------------------------

din symmetry found (for desy threshold:  0.10E+00) used in thermo

          ...................................................
          :                      SETUP                      :
          :.................................................:
          :  # frequencies                           4      :
          :  # imaginary freq.                       0      :
          :  linear?                              true      :
          :  only rotor calc.                    false      :
          :  symmetry                              din      :
          :  rotational number                       2      :
          :  scaling factor                  1.0000000      :
          :  rotor cutoff                   50.0000000 cm⁻¹ :
          :  imag. cutoff                  -20.0000000 cm⁻¹ :
          :.................................................:

    mode    ω/cm⁻¹     T·S(HO)/kcal·mol⁻¹    T·S(FR)/kcal·mol⁻¹   T·S(vib)
   ------------------------------------------------------------------------
       1    238.48    -0.00000 ( 99.81%)     0.01385 (  0.19%)     0.00003
       2    238.55    -0.00000 ( 99.81%)     0.01385 (  0.19%)     0.00003
   ------------------------------------------------------------------------

   temp. (K)  partition function   enthalpy   heat capacity  entropy
                                   cal/mol     cal/K/mol   cal/K/mol   J/K/mol
 298.15  VIB   2.14                  636.773      3.699      3.651
         ROT   222.                  592.502      1.987     12.725
         INT   476.                 1229.274      5.686     16.376
         TR   0.227E+27             1481.254      4.968     36.819
         TOT                        2710.5282    10.6542    53.1953   222.5690

   temp. (K)  partition function   enthalpy   heat capacity  entropy
                                   cal/mol     cal/K/mol   cal/K/mol   J/K/mol
 120.00  VIB   1.13                   82.879      2.095      0.928
         ROT   89.4                  238.471      1.987     10.917
         INT   101.                  321.350      4.082     11.844
         TR   0.579E+26              596.178      4.968     32.300
         TOT                         917.5282     9.0506    44.1443   184.6998

   temp. (K)  partition function   enthalpy   heat capacity  entropy
                                   cal/mol     cal/K/mol   cal/K/mol   J/K/mol
 100.00  VIB   1.07                   45.573      1.616      0.589
         ROT   74.5                  198.726      1.987     10.554
         INT   79.6                  244.299      3.603     11.143
         TR   0.441E+26              496.815      4.968     31.395
         TOT                         741.1137     8.5716    42.5378   177.9782

   temp. (K)  partition function   enthalpy   heat capacity  entropy
                                   cal/mol     cal/K/mol   cal/K/mol   J/K/mol
  80.00  VIB   1.03                   18.960      1.031      0.294
         ROT   59.6                  158.981      1.987     10.111
         INT   61.3                  177.941      3.018     10.405
         TR   0.315E+26              397.452      4.968     30.287
         TOT                         575.3927     7.9862    40.6915   170.2534

   temp. (K)  partition function   enthalpy   heat capacity  entropy
                                   cal/mol     cal/K/mol   cal/K/mol   J/K/mol
  60.00  VIB   1.01                    4.490      0.429      0.089
         ROT   44.7                  119.236      1.987      9.539
         INT   45.0                  123.726      2.417      9.629
         TR   0.205E+26              298.089      4.968     28.858
         TOT                         421.8150     7.3849    38.4866   161.0280

   temp. (K)  partition function   enthalpy   heat capacity  entropy
                                   cal/mol     cal/K/mol   cal/K/mol   J/K/mol
  40.00  VIB   1.00                    0.256      0.055      0.007
         ROT   29.8                   79.490      1.987      8.734
         INT   29.8                   79.747      2.042      8.741
         TR   0.111E+26              198.726      4.968     26.845
         TOT                         278.4728     7.0104    35.5853   148.8888

   temp. (K)  partition function   enthalpy   heat capacity  entropy
                                   cal/mol     cal/K/mol   cal/K/mol   J/K/mol
  20.00  VIB   1.00                    0.000      0.000     -0.003
         ROT   14.9                   39.745      1.987      7.356
         INT   14.9                   39.745      1.987      7.353
         TR   0.394E+25               99.363      4.968     23.403
         TOT                         139.1082     6.9555    30.7560   128.6832

   temp. (K)  partition function   enthalpy   heat capacity  entropy
                                   cal/mol     cal/K/mol   cal/K/mol   J/K/mol
  10.00  VIB   1.00                    0.000      0.000     -0.005
         ROT   7.45                   19.873      1.987      5.979
         INT   7.45                   19.873      1.987      5.973
         TR   0.139E+25               49.681      4.968     19.961
         TOT                          69.5541     6.9554    25.9339   108.5076

       T/K    H(0)-H(T)+PV         H(T)/Eh          T*S/Eh         G(T)/Eh
   ------------------------------------------------------------------------
    298.15    0.431950E-02    0.126095E-01    0.252748E-01   -0.126653E-01
    120.00    0.146217E-02    0.975221E-02    0.844181E-02    0.131040E-02
    100.00    0.118104E-02    0.947108E-02    0.677883E-02    0.269224E-02
     80.00    0.916947E-03    0.920698E-02    0.518769E-02    0.401930E-02
     60.00    0.672205E-03    0.896224E-02    0.367994E-02    0.528230E-02
     40.00    0.443775E-03    0.873381E-02    0.226835E-02    0.646546E-02
     20.00    0.221683E-03    0.851172E-02    0.980257E-03    0.753146E-02
     10.00    0.110842E-03    0.840088E-02    0.413284E-03    0.798760E-02 (used)
   ------------------------------------------------------------------------

         :::::::::::::::::::::::::::::::::::::::::::::::::::::
         ::                  THERMODYNAMIC                  ::
         :::::::::::::::::::::::::::::::::::::::::::::::::::::
         :: total free energy          -6.925762445284 Eh   ::
         ::.................................................::
         :: total energy               -6.933750040407 Eh   ::
         :: zero point energy           0.008290037135 Eh   ::
         :: G(RRHO) w/o ZPVE           -0.000302442012 Eh   ::
         :: G(RRHO) contrib.            0.007987595122 Eh   ::
         :::::::::::::::::::::::::::::::::::::::::::::::::::::

optimized geometry written to: xtbopt.xyz


           -------------------------------------------------
          | TOTAL ENERGY               -6.933750040407 Eh   |
          | TOTAL ENTHALPY             -6.925349161758 Eh   |
          | TOTAL FREE ENERGY          -6.925762445284 Eh   |
          | GRADIENT NORM               0.000207138659 Eh/α |
          | HOMO-LUMO GAP               0.000015225703 eV   |
           -------------------------------------------------

------------------------------------------------------------------------
 * finished run on 2020/05/12 at 11:43:53.903     
------------------------------------------------------------------------
 total:
 * wall-time:     0 d,  0 h,  0 min,  0.059 sec
 *  cpu-time:     0 d,  0 h,  0 min,  0.059 sec
 * ratio c/w:     0.998 speedup
 SCF:
 * wall-time:     0 d,  0 h,  0 min,  0.002 sec
 *  cpu-time:     0 d,  0 h,  0 min,  0.002 sec
 * ratio c/w:     1.000 speedup
 ANC optimizer:
 * wall-time:     0 d,  0 h,  0 min,  0.021 sec
 *  cpu-time:     0 d,  0 h,  0 min,  0.021 sec
 * ratio c/w:     0.997 speedup
 numerical hessian:
 * wall-time:     0 d,  0 h,  0 min,  0.022 sec
 *  cpu-time:     0 d,  0 h,  0 min,  0.022 sec
 * ratio c/w:     1.000 speedup

