5
 energy: -9.463961377389 gnorm: 0.000568917896 xtb: 6.2.2 (9d81278992624c895f80dd42a50cac0aa55982e2)
C         1.11241181605052   -0.32592591381100   -0.13236457636703
C         0.07464420613118   -1.08618172990427    0.30355877103745
C        -1.05737675503488   -0.47502722443100   -0.13232790738944
N        -0.03757512478540    0.54673069155632   -0.34145873502385
H        -0.09210314236141    1.34040417658471    0.30259244773939
