[Molden Format]
[Title]
[Atoms] AU
C      1     6 -0.45859106702093E-05  0.28091648545015E-05 -0.32743526881017E-02
H      2     1  0.19694624157123E+01 -0.43420097619181E+00 -0.20376430318735E-02
H      3     1 -0.13607590232515E+01 -0.14885055808882E+01  0.17164693056403E-02
H      4     1 -0.60869880655673E+00  0.19227037479118E+01  0.35936366883851E-02
[GTO]
           1 0
 s           4   1.0000000000000000     
   51.049363095579913      -0.16312063210127389     
   8.7911227406887544      -0.19911024581000730     
  0.70640422258929825       0.31882047753655751     
  0.26922813413411617       0.12706504184240380     
 p           4   1.0000000000000000     
   5.8263656140800002       0.73716451545209605     
   1.5106896018720002       0.68216371614850257     
  0.53256483288000001       0.35783053929253711     
  0.21202323690600003        5.3983030275847881E-002

           2 0
 s           3   1.0000000000000000     
   3.3702276975336001       0.27359110588908298     
  0.61389118221497996       0.26460540653860526     
  0.16614291148415999        8.2465947534082318E-002

           3 0
 s           3   1.0000000000000000     
   3.3702276975336001       0.27359110588908298     
  0.61389118221497996       0.26460540653860526     
  0.16614291148415999        8.2465947534082318E-002

           4 0
 s           3   1.0000000000000000     
   3.3702276975336001       0.27359110588908298     
  0.61389118221497996       0.26460540653860526     
  0.16614291148415999        8.2465947534082318E-002

[MO]
Sym=     1a
Ene=  -0.57071090611115249     
Spin= Alpha
Occup=     2.00000000
           1 -0.59904346964003485     
           2  -6.9405832519906055E-007
           3   4.2167733777253325E-007
           4  -4.9396144721941928E-004
           5 -0.25068975141500749     
           6 -0.25068974560665497     
           7 -0.25068975098745866     
Sym=     2a
Ene=  -0.47340279472312796     
Spin= Alpha
Occup=     2.00000000
           1  -7.1382445934498274E-009
           2  0.31416499302133050     
           3  0.47163681090904952     
           4  -3.4541724324840124E-005
           5  0.17668060957435430     
           6 -0.48210356353087547     
           7  0.30542294814294046     
Sym=     3a
Ene=  -0.47340279355722081     
Spin= Alpha
Occup=     2.00000000
           1  -2.2268265118716506E-009
           2  0.47163614809382209     
           3 -0.31416461990919453     
           4  -9.2968631429497686E-004
           5  0.45467864332697194     
           6  -7.4329424232683391E-002
           7 -0.38034921982951403     
Sym=     4a
Ene=  -0.33168156316544317     
Spin= Alpha
Occup=     1.00000000
           1  -2.6657688659567748E-003
           2   1.3991506196416570E-003
           3  -8.5875841475814248E-004
           4  0.99999451601150746     
           5   6.9889090505698723E-004
           6   6.9889142482398479E-004
           7   6.9889109133473121E-004
Sym=     5a
Ene=   0.12910526263818922     
Spin= Alpha
Occup=     0.00000000
           1   1.1907481019211339     
           2   4.8086364681191163E-006
           3  -3.0059487861456012E-006
           4   3.4604608887216135E-003
           5 -0.62350865929688160     
           6 -0.62350873109422078     
           7 -0.62350866391649795     
Sym=     6a
Ene=   0.29951462145740593     
Spin= Alpha
Occup=     0.00000000
           1   3.0935357630361598E-008
           2   1.0830141049101103     
           3 -0.29769545953853543     
           4  -1.7709585659148586E-003
           5  -1.0045457894974872     
           6  0.45764261256159944     
           7  0.54690312841339239     
Sym=     7a
Ene=   0.29951462528563388     
Spin= Alpha
Occup=     0.00000000
           1   5.5155359651918073E-008
           2  0.29769658272707655     
           3   1.0830151270470547     
           4   5.1352842354670397E-004
           5  -5.1534608673810101E-002
           6  0.89572942062274419     
           7 -0.84419489654794777     
