4
 energy: -3.551660789227 gnorm: 0.063420253901 xtb: 6.2.2 (9d81278992624c895f80dd42a50cac0aa55982e2)
C         0.00038700000000   -0.00023900000000    0.27736600000000
H         1.02128800000000   -0.22510300000000   -0.09407500000000
H        -0.70585200000000   -0.77190200000000   -0.09213500000000
H        -0.31582300000000    0.99724400000000   -0.09115700000000
4
 energy: -3.559541354487 gnorm: 0.039237998596 xtb: 6.2.2 (9d81278992624c895f80dd42a50cac0aa55982e2)
C         0.00019540810794   -0.00012049427543    0.13999187332772
H         1.06056501751658   -0.23378748451138   -0.04834578014634
H        -0.73288164953741   -0.80157930235387   -0.04633135039598
H        -0.32787877608710    1.03548728114068   -0.04531574278539
4
 energy: -3.562074986603 gnorm: 0.008942672257 xtb: 6.2.2 (9d81278992624c895f80dd42a50cac0aa55982e2)
C         0.00014702590220   -0.00009057647778    0.10531116241087
H         1.03637146065164   -0.22845995939725   -0.03674716167318
H        -0.71613869852271   -0.78329221222819   -0.03477872095300
H        -0.32037978803114    1.01184274810322   -0.03378627978469
4
 energy: -3.562647774470 gnorm: 0.004712639630 xtb: 6.2.2 (9d81278992624c895f80dd42a50cac0aa55982e2)
C         0.00009198518890   -0.00005662065055    0.06585257845573
H         1.03959813016784   -0.22917869855321   -0.02359938123965
H        -0.71833690132246   -0.78572800782934   -0.02162484685925
H        -0.32135321403428    1.01496332703310   -0.02062935035684
4
 energy: -3.562930027174 gnorm: 0.003292747072 xtb: 6.2.2 (9d81278992624c895f80dd42a50cac0aa55982e2)
C         0.00002805410055   -0.00001729741697    0.02010514119476
H         1.04451975160059   -0.23027210783321   -0.00835802272399
H        -0.72170138793444   -0.78944487039106   -0.00637412988735
H        -0.32284641776670    1.01973427564124   -0.00537398858343
4
 energy: -3.562968035006 gnorm: 0.000783466175 xtb: 6.2.2 (9d81278992624c895f80dd42a50cac0aa55982e2)
C         0.00000676700913   -0.00000417967459    0.00485324008465
H         1.04295725566596   -0.22993046102900   -0.00327156758310
H        -0.72060979800683   -0.78826289703678   -0.00129065028846
H        -0.32235422466826    1.01819753774037   -0.00029202221309
4
 energy: -3.562970061779 gnorm: 0.000291840087 xtb: 6.2.2 (9d81278992624c895f80dd42a50cac0aa55982e2)
C        -0.00000242071912    0.00000148955761   -0.00173271298963
H         1.04219593163201   -0.22976382407260   -0.00107503741990
H        -0.72007861030071   -0.78768707670241    0.00090442820222
H        -0.32211490061218    1.01744941121740    0.00190232220731
