$hessian                                                                        
        0.5701178132   0.0000010974  -0.0007666616  -0.3249282033   0.0625088711
       -0.0003054057  -0.1767269699  -0.1480637231   0.0006648508  -0.0684626399
        0.0855537547   0.0004072165
        0.0000010974   0.5701187898   0.0004708547   0.0625134253  -0.0551605329
        0.0000485267  -0.1480635910  -0.2033352338   0.0006459778   0.0855490683
       -0.3116230230  -0.0011653592
       -0.0007666616   0.0004708547   0.0219701203  -0.0000906845   0.0000012380
       -0.0073214773   0.0005164319   0.0004835518  -0.0073234432   0.0003409142
       -0.0009556445  -0.0073251997
       -0.3249282033   0.0625134253  -0.0000906845   0.3520119366  -0.0682859861
        0.0001257893  -0.0185455764   0.0048603438  -0.0000199890  -0.0085381570
        0.0009122169  -0.0000151159
        0.0625088711  -0.0551605329   0.0000012380  -0.0682859861   0.0573203220
       -0.0000058080  -0.0206668589   0.0039205024  -0.0000109601   0.0264439739
       -0.0060802915   0.0000155301
       -0.0003054057   0.0000485267  -0.0073214773   0.0001257893  -0.0000058080
        0.0024408968   0.0000791296  -0.0000082955   0.0024402886   0.0001004868
       -0.0000344233   0.0024402919
       -0.1767269699  -0.1480635910   0.0005164319  -0.0185455764  -0.0206668589
        0.0000791296   0.1901231912   0.1617407583  -0.0005889731   0.0051493550
        0.0069896916  -0.0000065884
       -0.1480637231  -0.2033352338   0.0004835518   0.0048603438   0.0039205024
       -0.0000082955   0.1617407583   0.2191890933  -0.0005491150  -0.0185373790
       -0.0197743619   0.0000738586
        0.0006648508   0.0006459778  -0.0073234432  -0.0000199890  -0.0000109601
        0.0024402886  -0.0005889731  -0.0005491150   0.0024427137  -0.0000558887
       -0.0000859027   0.0024404410
       -0.0684626399   0.0855490683   0.0003409142  -0.0085381570   0.0264439739
        0.0001004868   0.0051493550  -0.0185373790  -0.0000558887   0.0718514419
       -0.0934556632  -0.0003855123
        0.0855537547  -0.3116230230  -0.0009556445   0.0009122169  -0.0060802915
       -0.0000344233   0.0069896916  -0.0197743619  -0.0000859027  -0.0934556632
        0.3374776764   0.0010759705
        0.0004072165  -0.0011653592  -0.0073251997  -0.0000151159   0.0000155301
        0.0024402919  -0.0000065884   0.0000738586   0.0024404410  -0.0003855123
        0.0010759705   0.0024444667
