5
 energy: -9.478296213416 gnorm: 0.218314131637 xtb: 6.2.2 (9d81278992624c895f80dd42a50cac0aa55982e2)
C        -0.41521300000000   -1.00187900000000    0.10955900000000
C         0.65131400000000    0.00206100000000    0.47047600000000
C        -0.35719600000000    1.02964300000000    0.02033900000000
N        -1.35099000000000    0.02429300000000   -0.32539800000000
H         1.47208400000000   -0.05411800000000   -0.27497700000000
5
 energy: -9.538384776877 gnorm: 0.146333306574 xtb: 6.2.2 (9d81278992624c895f80dd42a50cac0aa55982e2)
C        -0.44708303332377   -0.87634207607252    0.11630203352715
C         0.69771749837899   -0.00127288123410    0.42476702096766
C        -0.39615115830296    0.90719962772954    0.03797194427015
N        -1.40559231551819    0.02552624025553   -0.33285462858468
H         1.55110800876593   -0.05511091067844   -0.24618737018027
5
 energy: -9.551308819074 gnorm: 0.222875374774 xtb: 6.2.2 (9d81278992624c895f80dd42a50cac0aa55982e2)
C        -0.43321021842941   -0.66443417799769    0.00120425362699
C         0.73857698130476   -0.00312639680007    0.40930749714344
C        -0.39469049389978    0.68558361257667   -0.05809145668599
N        -1.54260547992251    0.03508989675289   -0.20444632367398
H         1.63192821094694   -0.05311293453180   -0.14797497041046
5
 energy: -9.572360377801 gnorm: 0.078085094842 xtb: 6.2.2 (9d81278992624c895f80dd42a50cac0aa55982e2)
C        -0.44765465985486   -0.78542284499836   -0.00076001701744
C         0.70627934184654   -0.00383024501248    0.37219129125175
C        -0.40221476838340    0.80656116664977   -0.07067915092543
N        -1.53462231921103    0.03624840131502   -0.17276001815485
H         1.67821140560275   -0.05355647795395   -0.12799310515404
5
 energy: -9.575472581625 gnorm: 0.036208855325 xtb: 6.2.2 (9d81278992624c895f80dd42a50cac0aa55982e2)
C        -0.45715438202511   -0.76816650243539    0.04287265309204
C         0.70607642008847   -0.00489991128778    0.34775493684851
C        -0.41260737582611    0.79377128313983   -0.02572627584215
N        -1.49638048341696    0.03305289186386   -0.22083563624651
H         1.66006482117972   -0.05375776128053   -0.14406667785189
5
 energy: -9.577916047805 gnorm: 0.031630553430 xtb: 6.2.2 (9d81278992624c895f80dd42a50cac0aa55982e2)
C        -0.46306423697410   -0.74346998074732    0.01677754000543
C         0.70710171865667   -0.00707309756505    0.29904441229256
C        -0.42005468741315    0.76728197638289   -0.04957121812750
N        -1.54534943054167    0.03655349211526   -0.17333885473057
H         1.72136563627225   -0.05329239018578   -0.09291287943992
5
 energy: -9.578713772100 gnorm: 0.015219935710 xtb: 6.2.2 (9d81278992624c895f80dd42a50cac0aa55982e2)
C        -0.46001993815974   -0.74950341897480    0.01305410409534
C         0.70880735650377   -0.00766817565507    0.28669818152604
C        -0.41679686294645    0.77281646519580   -0.05379668342179
N        -1.54573058484123    0.03692181850790   -0.16573480921405
H         1.71373902944365   -0.05256668907382   -0.08022179298554
5
 energy: -9.579574675564 gnorm: 0.008944912638 xtb: 6.2.2 (9d81278992624c895f80dd42a50cac0aa55982e2)
C        -0.46438647353104   -0.75740827792523    0.00884145398275
C         0.70732000476307   -0.00969436902040    0.24002073018710
C        -0.42126881577659    0.78071467907583   -0.05867517412182
N        -1.55139119039274    0.03811531128953   -0.14483235826345
H         1.72972547493730   -0.05172734341973   -0.04535565178459
5
 energy: -9.580003295426 gnorm: 0.006687800123 xtb: 6.2.2 (9d81278992624c895f80dd42a50cac0aa55982e2)
C        -0.46827422741091   -0.75865487139364    0.00766540134255
C         0.70535782390693   -0.01174067526690    0.19169073068097
C        -0.42710143982192    0.78267778543090   -0.05981258020399
N        -1.55663968254751    0.03939032198271   -0.12769375813335
H         1.74665652587340   -0.05167256075306   -0.01185079368618
5
 energy: -9.580256244366 gnorm: 0.014630163649 xtb: 6.2.2 (9d81278992624c895f80dd42a50cac0aa55982e2)
C        -0.46758279066049   -0.75701254515370    0.00862272301518
C         0.70622989107618   -0.01324269957799    0.15093776427354
C        -0.43465061917811    0.78362432818580   -0.05789562950362
N        -1.55987642994951    0.04131850206964   -0.11732008449232
H         1.75587894871192   -0.05468758552375    0.01565422670721
5
 energy: -9.578866029466 gnorm: 0.089353513293 xtb: 6.2.2 (9d81278992624c895f80dd42a50cac0aa55982e2)
C        -0.44462139693840   -0.74294447963002    0.01231745193744
C         0.71122200484892   -0.02222467390977   -0.13088194569227
C        -0.50104249215512    0.79626232969507   -0.04391622578955
N        -1.58132891835134    0.06002845053224   -0.04479703810048
H         1.81576980259594   -0.09112162668751    0.20727675764486
5
 energy: -9.583349816683 gnorm: 0.072272206764 xtb: 6.2.2 (9d81278992624c895f80dd42a50cac0aa55982e2)
C        -0.43944143212628   -0.74566293518342    0.01753412758108
C         0.71139168037856   -0.01756940685259    0.00923871134444
C        -0.47120320190230    0.79220410186776   -0.04158866689037
N        -1.55415878522471    0.05264784504489   -0.09391741098155
H         1.75341073887474   -0.08161960487665    0.10873223894639
5
 energy: -9.586810929569 gnorm: 0.074660256824 xtb: 6.2.2 (9d81278992624c895f80dd42a50cac0aa55982e2)
C        -0.40727312605328   -0.74106635026222    0.02594035443101
C         0.71303420242521   -0.02058959654856   -0.07121518440251
C        -0.49960918207839    0.80610603681229   -0.02771406223261
N        -1.53995715510326    0.06272216430028   -0.08672699847681
H         1.73380426080971   -0.10717225430179    0.15971489068092
5
 energy: -9.587398486039 gnorm: 0.063137409471 xtb: 6.2.2 (9d81278992624c895f80dd42a50cac0aa55982e2)
C        -0.35492332320026   -0.75550669021773    0.02315768048218
C         0.71059507388616   -0.04392151558504   -0.19362868511865
C        -0.53899270167769    0.84446100506325   -0.03870836610925
N        -1.53209810446329    0.08683049054719   -0.04437903383363
H         1.71541805545508   -0.13186328980767    0.25355740457935
5
 energy: -9.592700151727 gnorm: 0.036905760931 xtb: 6.2.2 (9d81278992624c895f80dd42a50cac0aa55982e2)
C        -0.37664348989503   -0.76722707675982    0.01713714119096
C         0.71327813471340   -0.05186893678437   -0.10049221135502
C        -0.51818461285858    0.83916527816547   -0.05908024613759
N        -1.54260668114431    0.08536646829184   -0.05434615809437
H         1.72415564918452   -0.10543573291313    0.19678047439602
5
 energy: -9.594876782735 gnorm: 0.035574443716 xtb: 6.2.2 (9d81278992624c895f80dd42a50cac0aa55982e2)
C        -0.38340631779653   -0.78451334194919    0.02140708867593
C         0.71349791166846   -0.07411658267380   -0.05935838156788
C        -0.52041004988906    0.84351258398161   -0.07827903846143
N        -1.54100351158630    0.09910904872562   -0.05559492017321
H         1.73132096760343   -0.08399170808423    0.17182425152659
5
 energy: -9.596753640340 gnorm: 0.014418135450 xtb: 6.2.2 (9d81278992624c895f80dd42a50cac0aa55982e2)
C        -0.39123501697361   -0.81183827389287    0.02495848254315
C         0.69987569748593   -0.11658599077142    0.02651133305628
C        -0.52304328232987    0.84847577859192   -0.11866422384558
N        -1.54216957363679    0.12519394017889   -0.05184795144032
H         1.75657117545434   -0.04524545410651    0.11904135968647
5
 energy: -9.597054891850 gnorm: 0.013585831409 xtb: 6.2.2 (9d81278992624c895f80dd42a50cac0aa55982e2)
C        -0.38728112529373   -0.80621815220314    0.03397423049313
C         0.70326888237194   -0.10966787483924    0.02709947226117
C        -0.52972847754602    0.84654651132873   -0.10333068536947
N        -1.53926925630149    0.12442123810649   -0.06866538090570
H         1.75300897676931   -0.05508172239284    0.11092136352087
5
 energy: -9.597203405940 gnorm: 0.007821221584 xtb: 6.2.2 (9d81278992624c895f80dd42a50cac0aa55982e2)
C        -0.38790414993683   -0.80325308810937    0.03815847045868
C         0.70325068363007   -0.10530744364528    0.03462877560468
C        -0.52949163144366    0.84388730634736   -0.09594793963539
N        -1.54384611807780    0.12272177804155   -0.07845237608764
H         1.75799021582823   -0.05804855263426    0.10161206965967
5
 energy: -9.597256624505 gnorm: 0.004171638968 xtb: 6.2.2 (9d81278992624c895f80dd42a50cac0aa55982e2)
C        -0.38555745487827   -0.80304731591359    0.04257537978381
C         0.70097172575278   -0.10309025524644    0.04581029697786
C        -0.52858733634342    0.84260000241612   -0.09076436236699
N        -1.54634296664806    0.12332911622204   -0.08787195573724
H         1.75951503211697   -0.05979154747813    0.09024964134256
5
 energy: -9.597271877116 gnorm: 0.003221702434 xtb: 6.2.2 (9d81278992624c895f80dd42a50cac0aa55982e2)
C        -0.38622057460000   -0.80487157925662    0.04371849514092
C         0.70075121991645   -0.10261606087286    0.04577358413074
C        -0.52757922485700    0.84177425700272   -0.09028195361174
N        -1.54643176841358    0.12434310370438   -0.08889656396622
H         1.75947934795413   -0.05862972057762    0.08968543830630
5
 energy: -9.597285631008 gnorm: 0.003029907823 xtb: 6.2.2 (9d81278992624c895f80dd42a50cac0aa55982e2)
C        -0.38617743933401   -0.80640105865133    0.04282678925031
C         0.70049481611570   -0.10290802974426    0.04331790753942
C        -0.52633879338747    0.84079220109627   -0.09161471332904
N        -1.54609917820182    0.12575878167251   -0.08652666293907
H         1.75811959480760   -0.05724189437319    0.09199567947838
5
 energy: -9.597325686711 gnorm: 0.003826775676 xtb: 6.2.2 (9d81278992624c895f80dd42a50cac0aa55982e2)
C        -0.38631970752368   -0.81318984603257    0.04258764890444
C         0.69884349616200   -0.10358724635515    0.03769617976832
C        -0.52101971529346    0.83631345318656   -0.09264198343513
N        -1.54526468553836    0.13193201314215   -0.08354967259503
H         1.75375961219350   -0.05146837394100    0.09590682735739
5
 energy: -9.597367045337 gnorm: 0.004285853879 xtb: 6.2.2 (9d81278992624c895f80dd42a50cac0aa55982e2)
C        -0.38647908715134   -0.82240561366041    0.04296321632080
C         0.69615229418005   -0.10356204029579    0.03489760487083
C        -0.51402157989418    0.82960274063671   -0.09256105493300
N        -1.54549650997225    0.14058298224806   -0.08262269020047
H         1.74984388283773   -0.04421806892858    0.09732192394184
5
 energy: -9.597410084534 gnorm: 0.003318286726 xtb: 6.2.2 (9d81278992624c895f80dd42a50cac0aa55982e2)
C        -0.38619795477730   -0.83336204518432    0.04414970469980
C         0.69272113739693   -0.10211986260172    0.03604477177693
C        -0.50615460867440    0.82055575259716   -0.09098961388182
N        -1.54737191783108    0.15147011613622   -0.08456201187437
H         1.74700234388585   -0.03654396094734    0.09535614927947
5
 energy: -9.597436719762 gnorm: 0.001799334773 xtb: 6.2.2 (9d81278992624c895f80dd42a50cac0aa55982e2)
C        -0.38513856242422   -0.83882705083672    0.04543121348616
C         0.69109290053388   -0.09963310540724    0.04025200371550
C        -0.50316655637112    0.81477370716306   -0.08892824924942
N        -1.55013394828537    0.15777736497987   -0.08816065931351
H         1.74734516654683   -0.03409091589898    0.09140469136128
5
 energy: -9.597446402321 gnorm: 0.001027975859 xtb: 6.2.2 (9d81278992624c895f80dd42a50cac0aa55982e2)
C        -0.38302247613286   -0.84006916796287    0.04646213215759
C         0.69102841460351   -0.09603382049863    0.04436285535826
C        -0.50411972492883    0.81162591716683   -0.08721630708937
N        -1.55336222442950    0.16052363535919   -0.09152833646357
H         1.74947501088769   -0.03604656406452    0.08791865603709
5
 energy: -9.597448623374 gnorm: 0.000460016208 xtb: 6.2.2 (9d81278992624c895f80dd42a50cac0aa55982e2)
C        -0.38271950678481   -0.83990920695565    0.04611577453964
C         0.69110219722074   -0.09571786790103    0.04226078577870
C        -0.50418729013557    0.81199298980091   -0.08790964174587
N        -1.55295072438921    0.16012968152960   -0.09012694060467
H         1.74875432408885   -0.03649559647384    0.08965902203219
