5
 energy: -10.841587745080 gnorm: 0.209409997105 xtb: 6.2.2 (9d81278992624c895f80dd42a50cac0aa55982e2)
C        -1.27792100000000   -0.93275800000000    0.22073600000000
N        -0.77279500000000    0.23270100000000   -0.49858200000000
C         0.71007800000000    0.37497900000000   -0.46061600000000
C        -0.11954800000000    1.08685300000000    0.50438500000000
C         1.46018600000000   -0.76177500000000    0.23407700000000
5
 energy: -10.891294774974 gnorm: 0.149953104510 xtb: 6.2.2 (9d81278992624c895f80dd42a50cac0aa55982e2)
C        -1.33086105400843   -0.86582367575899    0.19436278949760
N        -0.74237280804538    0.17961729859323   -0.46604109087181
C         0.70973644750542    0.30333072223882   -0.39145563766709
C        -0.14233640407958    1.08192499012095    0.48867167908133
C         1.50583381862797   -0.69904933519402    0.17446225995996
5
 energy: -10.907758970481 gnorm: 0.268308576211 xtb: 6.2.2 (9d81278992624c895f80dd42a50cac0aa55982e2)
C        -1.33050195429695   -0.78341533907661    0.14535061410262
N        -0.71149679883975    0.09195604098152   -0.39504802391810
C         0.73653645408065    0.19970537205595   -0.25992095647668
C        -0.18819179627069    1.12718183742938    0.44477088778008
C         1.49365409532674   -0.63542791139023    0.06484747851208
5
 energy: -10.945373323505 gnorm: 0.106017429832 xtb: 6.2.2 (9d81278992624c895f80dd42a50cac0aa55982e2)
C        -1.45797806999062   -0.79516461922576    0.11910966748839
N        -0.72610478750564    0.07565066067732   -0.35864222261619
C         0.73296091078869    0.19764896695811   -0.21064010031630
C        -0.20567102310697    1.18999688305577    0.40896019388189
C         1.65679296981453   -0.66813189146544    0.04121246156220
5
 energy: -10.967079147561 gnorm: 0.124955989463 xtb: 6.2.2 (9d81278992624c895f80dd42a50cac0aa55982e2)
C        -1.57806530041576   -0.87441591879669    0.01965659330197
N        -0.75553462360744    0.05272478021378   -0.21027909469828
C         0.74227416792378    0.16904342052705   -0.16825439880979
C        -0.13251554853971    1.28656952924028    0.32841402950514
C         1.72384130463913   -0.63392181118443    0.03046287070095
5
 energy: -10.983577643649 gnorm: 0.094197059754 xtb: 6.2.2 (9d81278992624c895f80dd42a50cac0aa55982e2)
C        -1.58111440606509   -0.86879304528249   -0.01143322337751
N        -0.77839578253256    0.03731264980725   -0.14435267075943
C         0.75721741126786    0.18845574971820   -0.13480094864808
C        -0.11835637552688    1.27613062935734    0.26674833698084
C         1.72064915285666   -0.63310598360030    0.02383850580418
5
 energy: -11.003931109682 gnorm: 0.126909603410 xtb: 6.2.2 (9d81278992624c895f80dd42a50cac0aa55982e2)
C        -1.68852822210444   -0.81642807398888   -0.04227696494427
N        -0.81743768156707   -0.01108554310344   -0.02208898439869
C         0.83460188298764    0.26859528158161   -0.06821528073309
C        -0.08604385847268    1.13518121022554    0.12525695070714
C         1.75740787915654   -0.57626287471483    0.00732427936891
5
 energy: -11.011995616076 gnorm: 0.110362376003 xtb: 6.2.2 (9d81278992624c895f80dd42a50cac0aa55982e2)
C        -1.75593831753732   -0.75408282146932   -0.05129565722597
N        -0.83151239798306   -0.05659740437217    0.04968904946034
C         0.91406532583995    0.27341629280906    0.07061117555894
C        -0.17873296571471    1.14201220191080    0.01721745933358
C         1.85211835539514   -0.60474826887837   -0.08622202712689
5
 energy: -11.023294078562 gnorm: 0.085010502975 xtb: 6.2.2 (9d81278992624c895f80dd42a50cac0aa55982e2)
C        -1.82875343956833   -0.74974253271954   -0.06642535061337
N        -0.86495728188417   -0.03616368690126    0.07025175758542
C         0.93460684318324    0.25010182894457    0.02896182586395
C        -0.14765127592174    1.07869580832068    0.02174061980689
C         1.90675515419099   -0.54289141764444   -0.05452885264289
5
 energy: -11.040132585834 gnorm: 0.107947793247 xtb: 6.2.2 (9d81278992624c895f80dd42a50cac0aa55982e2)
C        -1.84909807133312   -0.72519605839751   -0.06902684536394
N        -0.98048022645238    0.03622056400165    0.07781950618441
C         0.98725747388550    0.23850683654963   -0.02557351185710
C        -0.11694507844617    0.93604206065979    0.00559706415154
C         1.95926590234616   -0.48557340281356    0.01118378688508
5
 energy: -11.056924717672 gnorm: 0.167855724089 xtb: 6.2.2 (9d81278992624c895f80dd42a50cac0aa55982e2)
C        -1.97203061401745   -0.70342835077263   -0.11580967315676
N        -1.19092097878899    0.11669506849880    0.16533453972722
C         1.10482650276901    0.22148881178761   -0.05000373469994
C        -0.05243043620233    0.75171562919950   -0.08339482309754
C         2.11055552623974   -0.38647115871328    0.08387369122702
5
 energy: -11.075433303734 gnorm: 0.069688282506 xtb: 6.2.2 (9d81278992624c895f80dd42a50cac0aa55982e2)
C        -2.09486763904205   -0.62280975305824   -0.09651197441840
N        -1.21551264480162    0.11686202272278    0.13312524405051
C         1.13463590217855    0.17932126647782   -0.04138048529242
C        -0.09311710819485    0.66011565502085   -0.06778114841529
C         2.26886148985995   -0.33348919116321    0.07254836407560
5
 energy: -11.080708865509 gnorm: 0.065442801164 xtb: 6.2.2 (9d81278992624c895f80dd42a50cac0aa55982e2)
C        -2.21142945751500   -0.57340434565254   -0.07561438157580
N        -1.23693201204132    0.09525277918069    0.11883570523339
C         1.19648934492062    0.18355913953881   -0.03248928156528
C        -0.10024101998224    0.56771095113298   -0.07052482486329
C         2.35211314461791   -0.27311852419994    0.05979278277099
5
 energy: -11.083942759138 gnorm: 0.089105100414 xtb: 6.2.2 (9d81278992624c895f80dd42a50cac0aa55982e2)
C        -2.31415314357127   -0.53036336878776   -0.06054925002990
N        -1.26019628813483    0.07430957954817    0.06986315928633
C         1.21359697667067    0.16275142768443   -0.04569166076478
C        -0.06987499993245    0.48827486532768   -0.03047429188883
C         2.43062745496787   -0.19497250377251    0.06685204339718
5
 energy: -11.085456274092 gnorm: 0.094401138146 xtb: 6.2.2 (9d81278992624c895f80dd42a50cac0aa55982e2)
C        -2.32832512435767   -0.52781989429417   -0.01404228440334
N        -1.21384241110679    0.02517046797514   -0.00464781892813
C         1.22584373644817    0.19748217889076   -0.04117004309773
C        -0.06225436333591    0.48838901207764    0.01755226509814
C         2.37857816235218   -0.18322176464937    0.04230788133106
5
 energy: -11.088811098665 gnorm: 0.035973193713 xtb: 6.2.2 (9d81278992624c895f80dd42a50cac0aa55982e2)
C        -2.30807872083432   -0.51658906961070   -0.02676512743337
N        -1.26221962696788    0.06116539891944    0.00468583620079
C         1.22587594464758    0.17176948381479   -0.04987900576779
C        -0.05475597587837    0.45410066405670    0.00701181900732
C         2.39917837903297   -0.17044647718022    0.06494647799307
5
 energy: -11.090402558500 gnorm: 0.035402230868 xtb: 6.2.2 (9d81278992624c895f80dd42a50cac0aa55982e2)
C        -2.34439629983529   -0.47556874968575   -0.02204470309941
N        -1.26226655409117    0.04670077910181   -0.01143718296768
C         1.22536639860071    0.15154720676249   -0.03866598634852
C        -0.05923045992808    0.41475097112468    0.01650899343376
C         2.44052691525381   -0.13743020730322    0.05563887898186
5
 energy: -11.091654855063 gnorm: 0.033373879083 xtb: 6.2.2 (9d81278992624c895f80dd42a50cac0aa55982e2)
C        -2.36868705814015   -0.44158283668885   -0.01151879630737
N        -1.25929526885248    0.02682180284717   -0.03149552399767
C         1.23217291856914    0.14575728972308   -0.02566239450056
C        -0.05867087232506    0.37664036920726    0.02451337499719
C         2.45448028074854   -0.10763662508866    0.04416333980841
5
 energy: -11.093398543022 gnorm: 0.019799458938 xtb: 6.2.2 (9d81278992624c895f80dd42a50cac0aa55982e2)
C        -2.39342378190230   -0.38090877461676    0.00017638372831
N        -1.25415903564103   -0.00655884249021   -0.05920546061726
C         1.23518190995800    0.13074149275018   -0.00130149652322
C        -0.05302983341915    0.31111266441506    0.03437478544217
C         2.46543074100445   -0.05438654005827    0.02595578797000
5
 energy: -11.094110898441 gnorm: 0.022737217830 xtb: 6.2.2 (9d81278992624c895f80dd42a50cac0aa55982e2)
C        -2.43830250002877   -0.31514267179740    0.00555096887194
N        -1.26855661075189   -0.03215830292325   -0.06738948196534
C         1.25717582049264    0.11703921859550    0.01816752030019
C        -0.04783513350281    0.22211444020652    0.02910954235884
C         2.49751842379081    0.00814731591864    0.01456145043437
5
 energy: -11.094961701478 gnorm: 0.019431610065 xtb: 6.2.2 (9d81278992624c895f80dd42a50cac0aa55982e2)
C        -2.43509318504991   -0.27554448290583   -0.00313063907179
N        -1.26528583154567   -0.04962766515459   -0.05228496439322
C         1.25514182392355    0.10484325574699    0.03480804436307
C        -0.04584278019392    0.18138481455948    0.01521385459262
C         2.49107997286594    0.03894407775396    0.00539370450933
5
 energy: -11.094684908045 gnorm: 0.035770305203 xtb: 6.2.2 (9d81278992624c895f80dd42a50cac0aa55982e2)
C        -2.45535812834344   -0.21434464379478    0.00170539217889
N        -1.26692476176177   -0.05701744648129   -0.04851802264392
C         1.25533400666445   -0.00705953682413    0.01608002508516
C        -0.03670732215722    0.12491895088753    0.00922663792856
C         2.50365620559796    0.15350267621268    0.02150596745133
5
 energy: -11.095351621473 gnorm: 0.022380134961 xtb: 6.2.2 (9d81278992624c895f80dd42a50cac0aa55982e2)
C        -2.45985112609896   -0.19103155924253   -0.00786027267403
N        -1.25410673545275   -0.11346419178953   -0.04694746007018
C         1.25677039942148    0.06427661765624    0.02519525165144
C        -0.03551319730292    0.12826190927005    0.02128995653486
C         2.49270065943313    0.11195722410578    0.00832252455792
5
 energy: -11.095172904349 gnorm: 0.021896350860 xtb: 6.2.2 (9d81278992624c895f80dd42a50cac0aa55982e2)
C        -2.43086483565021   -0.27795042103195   -0.00388910286132
N        -1.26519579125142   -0.03149439646984   -0.04411252963410
C         1.25249845379919    0.07583370902506    0.02317643374196
C        -0.04034111991644    0.17362705403051    0.01027818360051
C         2.48390329301885    0.05998405444623    0.01454701515296
5
 energy: -11.095675067260 gnorm: 0.006682069425 xtb: 6.2.2 (9d81278992624c895f80dd42a50cac0aa55982e2)
C        -2.44623519815127   -0.23352001878284   -0.00633870496591
N        -1.26227083014433   -0.06729955777519   -0.04231116879491
C         1.25469982024795    0.05868267752103    0.01967679086173
C        -0.03875009492993    0.14677429058640    0.01405569151894
C         2.49255630297756    0.09536260845062    0.01491739138016
5
 energy: -11.095727080621 gnorm: 0.012903220592 xtb: 6.2.2 (9d81278992624c895f80dd42a50cac0aa55982e2)
C        -2.45785677574134   -0.19584341972616   -0.00932568931469
N        -1.25938741558257   -0.09525616506478   -0.03815911769681
C         1.25674438992244    0.04148114525028    0.01408285654567
C        -0.03591691266263    0.12183701668602    0.01642502634665
C         2.49641671406408    0.12778142285465    0.01697692411919
5
 energy: -11.095797645516 gnorm: 0.004358793186 xtb: 6.2.2 (9d81278992624c895f80dd42a50cac0aa55982e2)
C        -2.45303706666610   -0.20982576418731   -0.00963368693274
N        -1.26083813534030   -0.08432793420609   -0.03683124354542
C         1.25625102466456    0.04885466229945    0.01382749976778
C        -0.03687244204934    0.12982767209673    0.01517397463765
C         2.49449661939116    0.11547136399723    0.01746345607274
5
 energy: -11.095838678576 gnorm: 0.003099814432 xtb: 6.2.2 (9d81278992624c895f80dd42a50cac0aa55982e2)
C        -2.45269698660205   -0.20916505777441   -0.01162805195224
N        -1.26142598844453   -0.08386643992619   -0.03278349095593
C         1.25670634119022    0.04994740150475    0.01058273462869
C        -0.03682784559310    0.12733633616130    0.01461630634899
C         2.49424447944945    0.11574776003457    0.01921250193050
5
 energy: -11.095913890159 gnorm: 0.004285705702 xtb: 6.2.2 (9d81278992624c895f80dd42a50cac0aa55982e2)
C        -2.45426382893276   -0.20157520134256   -0.01871891475766
N        -1.26286082452767   -0.08594236794147   -0.01860703355390
C         1.25844682713262    0.05154035350672   -0.00071121054728
C        -0.03599906117547    0.11456007748113    0.01283541890819
C         2.49467688750326    0.12141713829620    0.02520173995067
5
 energy: -11.095925206236 gnorm: 0.002774627663 xtb: 6.2.2 (9d81278992624c895f80dd42a50cac0aa55982e2)
C        -2.45543507946693   -0.19823089367714   -0.02068679170196
N        -1.26294432349502   -0.08720164429053   -0.01475324246508
C         1.25877062178187    0.05233177244418   -0.00327234250049
C        -0.03560810813199    0.10936668053494    0.01218703122293
C         2.49521688931205    0.12373408498856    0.02652534544462
5
 energy: -11.095935364989 gnorm: 0.001687882065 xtb: 6.2.2 (9d81278992624c895f80dd42a50cac0aa55982e2)
C        -2.45657513648017   -0.19599415085848   -0.02203919620116
N        -1.26305281623022   -0.08736429148765   -0.01206535616461
C         1.25891921794535    0.05426785422763   -0.00412656694546
C        -0.03525374846424    0.10415213102543    0.01123999271423
C         2.49596248322926    0.12493845709309    0.02699112659701
5
 energy: -11.095953225529 gnorm: 0.004463794716 xtb: 6.2.2 (9d81278992624c895f80dd42a50cac0aa55982e2)
C        -2.45853062703139   -0.19364452002370   -0.02359590434345
N        -1.26372969114202   -0.08524598636835   -0.00875102277216
C         1.25922838822649    0.05993519221960   -0.00274194170228
C        -0.03458942885530    0.09338072377683    0.00865265568083
C         2.49762135880220    0.12557459039563    0.02643621313707
5
 energy: -11.095969537240 gnorm: 0.004727253566 xtb: 6.2.2 (9d81278992624c895f80dd42a50cac0aa55982e2)
C        -2.45923053371976   -0.19266142283144   -0.02352268230358
N        -1.26444929495473   -0.08306934227951   -0.00858773644729
C         1.25955746146080    0.06317955021810    0.00017804958811
C        -0.03419459744368    0.08652565530233    0.00682208159260
C         2.49831696465735    0.12602555959053    0.02511028757018
5
 energy: -11.096009688648 gnorm: 0.003719486899 xtb: 6.2.2 (9d81278992624c895f80dd42a50cac0aa55982e2)
C        -2.46205177539141   -0.18411775367805   -0.02329173063574
N        -1.26716877583375   -0.07759509488192   -0.00786793722390
C         1.26128363760831    0.07264578905758    0.01095273110252
C        -0.03244998408285    0.05663080336189   -0.00003945527072
C         2.50038689769969    0.13243625614051    0.02024639202785
5
 energy: -11.096023647517 gnorm: 0.002189291587 xtb: 6.2.2 (9d81278992624c895f80dd42a50cac0aa55982e2)
C        -2.46290421925217   -0.17611502949113   -0.02330582197097
N        -1.26778452879786   -0.07715113052793   -0.00724368936013
C         1.26180333140782    0.07492467322428    0.01560287374464
C        -0.03130018354396    0.03911836416414   -0.00322919987401
C         2.50018560018615    0.13922312263065    0.01817583746048
5
 energy: -11.096032125639 gnorm: 0.000688687673 xtb: 6.2.2 (9d81278992624c895f80dd42a50cac0aa55982e2)
C        -2.46316571574787   -0.16664834487510   -0.02356807677030
N        -1.26770450821300   -0.07887103701531   -0.00628456538603
C         1.26193416850559    0.07476858946981    0.01813926703790
C        -0.03030311173279    0.02326970830207   -0.00538022581978
C         2.49923916718806    0.14748108411854    0.01709360093822
5
 energy: -11.096033827049 gnorm: 0.000569599209 xtb: 6.2.2 (9d81278992624c895f80dd42a50cac0aa55982e2)
C        -2.46333415435652   -0.16016619295168   -0.02398813986468
N        -1.26757201795587   -0.08099218641012   -0.00528496289867
C         1.26201426796553    0.07376325861616    0.01807088316510
C        -0.02981762286509    0.01426764784152   -0.00601168707946
C         2.49870952721193    0.15312747290414    0.01721390667772
