$hessian                                                                        
        0.8353372836   0.0553791148   0.0119943125  -0.6773679475  -0.0429855894
       -0.0113982730   0.0731316863   0.0035024358   0.0006364347  -0.1898426571
       -0.0137124356  -0.0010571034  -0.0412583654  -0.0021835255  -0.0001753708
        0.0553791148   0.0127917098   0.0016682619  -0.0442244341  -0.0190776594
       -0.0004168891   0.0044266257   0.0082078880   0.0012984123  -0.0129644202
        0.0014929355  -0.0028997382  -0.0026168863  -0.0034148739   0.0003499531
        0.0119943125   0.0016682619   0.0110093678  -0.0100103053  -0.0016210092
       -0.0181141701   0.0009589799  -0.0007765841   0.0057583279  -0.0024413929
       -0.0000242322   0.0026435103  -0.0005015941   0.0007535636  -0.0012970359
       -0.6773679475  -0.0442244341  -0.0100103053   1.2000123874   0.0821288479
        0.0101651121  -0.1744314043  -0.0091792353  -0.0009521121  -0.4213315078
       -0.0324862936   0.0007983284   0.0731184723   0.0037611151  -0.0000010230
       -0.0429855894  -0.0190776594  -0.0016210092   0.0821288479   0.0380371971
        0.0001877012  -0.0102063976  -0.0208357349  -0.0017720040  -0.0336684395
       -0.0089188296   0.0034927475   0.0047315786   0.0107950268  -0.0002874355
       -0.0113982730  -0.0004168891  -0.0181141701   0.0101651121   0.0001877012
        0.0347954922  -0.0014034227  -0.0005876692  -0.0176949990   0.0024076883
        0.0004430731  -0.0076988498   0.0002288953   0.0003737839   0.0087125266
        0.0731316863   0.0044266257   0.0009589799  -0.1744314043  -0.0102063976
       -0.0014034227   1.1238285285   0.0631848806   0.0077565519  -0.3546106595
       -0.0156778964  -0.0075840628  -0.6679181510  -0.0417272123   0.0002719537
        0.0035024358   0.0082078880  -0.0007765841  -0.0091792353  -0.0208357349
       -0.0005876692   0.0631848806   0.0265168199  -0.0015144101  -0.0145412561
        0.0027271471   0.0029604017  -0.0429668249  -0.0166161200  -0.0000817383
        0.0006364347   0.0012984123   0.0057583279  -0.0009521121  -0.0017720040
       -0.0176949990   0.0077565519  -0.0015144101   0.0251322307  -0.0088896420
        0.0005780765   0.0026822324   0.0014487676   0.0014099253  -0.0158777920
       -0.1898426571  -0.0129644202  -0.0024413929  -0.4213315078  -0.0336684395
        0.0024076883  -0.3546106595  -0.0145412561  -0.0088896420   1.1500783654
        0.0721985841   0.0093944227  -0.1842935409  -0.0110244683  -0.0004710760
       -0.0137124356   0.0014929355  -0.0000242322  -0.0324862936  -0.0089188296
        0.0004430731  -0.0156778964   0.0027271471   0.0005780765   0.0721985841
        0.0077870734  -0.0007391242  -0.0103219584  -0.0030883264  -0.0002577932
       -0.0010571034  -0.0028997382   0.0026435103   0.0007983284   0.0034927475
       -0.0076988498  -0.0075840628   0.0029604017   0.0026822324   0.0093944227
       -0.0007391242   0.0050467213  -0.0015515850  -0.0028142868  -0.0026736143
       -0.0412583654  -0.0026168863  -0.0005015941   0.0731184723   0.0047315786
        0.0002288953  -0.6679181510  -0.0429668249   0.0014487676  -0.1842935409
       -0.0103219584  -0.0015515850   0.8203515849   0.0511740911   0.0003755162
       -0.0021835255  -0.0034148739   0.0007535636   0.0037611151   0.0107950268
        0.0003737839  -0.0417272123  -0.0166161200   0.0014099253  -0.0110244683
       -0.0030883264  -0.0028142868   0.0511740911   0.0123242935   0.0002770140
       -0.0001753708   0.0003499531  -0.0012970359  -0.0000010230  -0.0002874355
        0.0087125266   0.0002719537  -0.0000817383  -0.0158777920  -0.0004710760
       -0.0002577932  -0.0026736143   0.0003755162   0.0002770140   0.0111359156
