 Entering Gaussian System, Link 0=g16
 Input=C5O_1X_open.com
 Output=C5O_1X_open.log
 Initial command:
 /home/spantaleone/g16/l1.exe "/scratch/cnt0027/pag0797/spantaleone/GAUSSIAN/gauss_scratch/Gau-39072.inp" -scrdir="/scratch/cnt0027/pag0797/spantaleone/GAUSSIAN/gauss_scratch/"
 Entering Link 1 = /home/spantaleone/g16/l1.exe PID=     39073.
  
 Copyright (c) 1988-2017, Gaussian, Inc.  All Rights Reserved.
  
 This is part of the Gaussian(R) 16 program.  It is based on
 the Gaussian(R) 09 system (copyright 2009, Gaussian, Inc.),
 the Gaussian(R) 03 system (copyright 2003, Gaussian, Inc.),
 the Gaussian(R) 98 system (copyright 1998, Gaussian, Inc.),
 the Gaussian(R) 94 system (copyright 1995, Gaussian, Inc.),
 the Gaussian 92(TM) system (copyright 1992, Gaussian, Inc.),
 the Gaussian 90(TM) system (copyright 1990, Gaussian, Inc.),
 the Gaussian 88(TM) system (copyright 1988, Gaussian, Inc.),
 the Gaussian 86(TM) system (copyright 1986, Carnegie Mellon
 University), and the Gaussian 82(TM) system (copyright 1983,
 Carnegie Mellon University). Gaussian is a federally registered
 trademark of Gaussian, Inc.
  
 This software contains proprietary and confidential information,
 including trade secrets, belonging to Gaussian, Inc.
  
 This software is provided under written license and may be
 used, copied, transmitted, or stored only in accord with that
 written license.
  
 The following legend is applicable only to US Government
 contracts under FAR:
  
                    RESTRICTED RIGHTS LEGEND
  
 Use, reproduction and disclosure by the US Government is
 subject to restrictions as set forth in subparagraphs (a)
 and (c) of the Commercial Computer Software - Restricted
 Rights clause in FAR 52.227-19.
  
 Gaussian, Inc.
 340 Quinnipiac St., Bldg. 40, Wallingford CT 06492
  
  
 ---------------------------------------------------------------
 Warning -- This program may not be used in any manner that
 competes with the business of Gaussian, Inc. or will provide
 assistance to any competitor of Gaussian, Inc.  The licensee
 of this program is prohibited from giving any competitor of
 Gaussian, Inc. access to this program.  By using this program,
 the user acknowledges that Gaussian, Inc. is engaged in the
 business of creating and licensing software in the field of
 computational chemistry and represents and warrants to the
 licensee that it is not a competitor of Gaussian, Inc. and that
 it will not use this program in any manner prohibited above.
 ---------------------------------------------------------------
  

 Cite this work as:
 Gaussian 16, Revision B.01,
 M. J. Frisch, G. W. Trucks, H. B. Schlegel, G. E. Scuseria, 
 M. A. Robb, J. R. Cheeseman, G. Scalmani, V. Barone, 
 G. A. Petersson, H. Nakatsuji, X. Li, M. Caricato, A. V. Marenich, 
 J. Bloino, B. G. Janesko, R. Gomperts, B. Mennucci, H. P. Hratchian, 
 J. V. Ortiz, A. F. Izmaylov, J. L. Sonnenberg, D. Williams-Young, 
 F. Ding, F. Lipparini, F. Egidi, J. Goings, B. Peng, A. Petrone, 
 T. Henderson, D. Ranasinghe, V. G. Zakrzewski, J. Gao, N. Rega, 
 G. Zheng, W. Liang, M. Hada, M. Ehara, K. Toyota, R. Fukuda, 
 J. Hasegawa, M. Ishida, T. Nakajima, Y. Honda, O. Kitao, H. Nakai, 
 T. Vreven, K. Throssell, J. A. Montgomery, Jr., J. E. Peralta, 
 F. Ogliaro, M. J. Bearpark, J. J. Heyd, E. N. Brothers, K. N. Kudin, 
 V. N. Staroverov, T. A. Keith, R. Kobayashi, J. Normand, 
 K. Raghavachari, A. P. Rendell, J. C. Burant, S. S. Iyengar, 
 J. Tomasi, M. Cossi, J. M. Millam, M. Klene, C. Adamo, R. Cammi, 
 J. W. Ochterski, R. L. Martin, K. Morokuma, O. Farkas, 
 J. B. Foresman, and D. J. Fox, Gaussian, Inc., Wallingford CT, 2016.
 
 ******************************************
 Gaussian 16:  ES64L-G16RevB.01 20-Dec-2017
                12-Oct-2020 
 ******************************************
 %nosave
 %nproc=24
 Will use up to   24 processors via shared memory.
 %mem=8gb
 %chk=input
 -----------------------------------------------------------------
 #P UM062X/cc-pvtz nosymm opt(noeigentest) optcyc=120 freq scf=xqc
 -----------------------------------------------------------------
 1/6=120,11=1,18=20,19=15,26=3,38=1/1,3;
 2/9=110,12=2,15=1,17=6,18=5,40=1/2;
 3/5=16,6=1,11=2,25=1,30=1,71=1,74=-55,116=2/1,2,3;
 4//1;
 5/5=2,8=3,13=1,38=5/2,8;
 6/7=2,8=2,9=2,10=2,28=1/1;
 7/30=1/1,2,3,16;
 1/6=120,11=1,18=20,19=15,26=3/3(2);
 2/9=110,15=1/2;
 99//99;
 2/9=110,15=1/2;
 3/5=16,6=1,11=2,25=1,30=1,71=1,74=-55,116=2/1,2,3;
 4/5=5,16=3,69=1/1;
 5/5=2,8=3,13=1,38=5/2,8;
 7/30=1/1,2,3,16;
 1/6=120,11=1,18=20,19=15,26=3/3(-5);
 2/9=110,15=1/2;
 6/7=2,8=2,9=2,10=2,19=2,28=1/1;
 99/9=1/99;
 Leave Link    1 at Mon Oct 12 17:20:21 2020, MaxMem=  1073741824 cpu:               1.7 elap:               0.1
 (Enter /home/spantaleone/g16/l101.exe)
 -----
 Title
 -----
 Symbolic Z-matrix:
 Charge =  0 Multiplicity = 1
 C
 C                    1    B1
 C                    2    B2       1    A2
 C                    3    B3       2    A3       1    D3       0
 C                    4    B4       3    A4       2    D4       0
 O                    5    B5       4    A5       3    D5       0
       Variables:
  B1                    1.30519                  
  B2                    1.28158                  
  A2                  179.97438                  
  B3                    1.28154                  
  A3                  179.97438                  
  D3                    0.                       
  B4                    1.28156                  
  A4                  179.97438                  
  D4                  360.                       
  B5                    1.19625                  
  A5                  179.97438                  
  D5                    0.                       
 
 ITRead=  0  0  0  0  0  0
 MicOpt= -1 -1 -1 -1 -1 -1
 NAtoms=      6 NQM=        6 NQMF=       0 NMMI=      0 NMMIF=      0
                NMic=       0 NMicF=      0.
                    Isotopes and Nuclear Properties:
 (Nuclear quadrupole moments (NQMom) in fm**2, nuclear magnetic moments (NMagM)
  in nuclear magnetons)

  Atom         1           2           3           4           5           6
 IAtWgt=          12          12          12          12          12          16
 AtmWgt=  12.0000000  12.0000000  12.0000000  12.0000000  12.0000000  15.9949146
 NucSpn=           0           0           0           0           0           0
 AtZEff=  -0.0000000  -0.0000000  -0.0000000  -0.0000000  -0.0000000  -0.0000000
 NQMom=    0.0000000   0.0000000   0.0000000   0.0000000   0.0000000   0.0000000
 NMagM=    0.0000000   0.0000000   0.0000000   0.0000000   0.0000000   0.0000000
 AtZNuc=   6.0000000   6.0000000   6.0000000   6.0000000   6.0000000   8.0000000
 Leave Link  101 at Mon Oct 12 17:20:22 2020, MaxMem=  1073741824 cpu:               9.9 elap:               0.4
 (Enter /home/spantaleone/g16/l103.exe)

 GradGradGradGradGradGradGradGradGradGradGradGradGradGradGradGradGradGrad
 Berny optimization.
 Initialization pass.
                           ----------------------------
                           !    Initial Parameters    !
                           ! (Angstroms and Degrees)  !
 --------------------------                            --------------------------
 ! Name  Definition              Value          Derivative Info.                !
 --------------------------------------------------------------------------------
 ! R1    R(1,2)                  1.3052         estimate D2E/DX2                !
 ! R2    R(2,3)                  1.2816         estimate D2E/DX2                !
 ! R3    R(3,4)                  1.2815         estimate D2E/DX2                !
 ! R4    R(4,5)                  1.2816         estimate D2E/DX2                !
 ! R5    R(5,6)                  1.1962         estimate D2E/DX2                !
 ! A1    L(1,2,3,-2,-1)        179.9744         estimate D2E/DX2                !
 ! A2    L(2,3,4,-2,-1)        179.9744         estimate D2E/DX2                !
 ! A3    L(3,4,5,-2,-1)        179.9744         estimate D2E/DX2                !
 ! A4    L(4,5,6,-2,-1)        179.9744         estimate D2E/DX2                !
 ! A5    L(1,2,3,-1,-2)        180.0            estimate D2E/DX2                !
 ! A6    L(2,3,4,-1,-2)        180.0            estimate D2E/DX2                !
 ! A7    L(3,4,5,-1,-2)        180.0            estimate D2E/DX2                !
 ! A8    L(4,5,6,-1,-2)        180.0            estimate D2E/DX2                !
 --------------------------------------------------------------------------------
 Trust Radius=3.00D-01 FncErr=1.00D-07 GrdErr=1.00D-06 EigMax=2.50D+02 EigMin=1.00D-04
 Number of steps in this run=    100 maximum allowed number of steps=    100.
 GradGradGradGradGradGradGradGradGradGradGradGradGradGradGradGradGradGrad

 Leave Link  103 at Mon Oct 12 17:20:22 2020, MaxMem=  1073741824 cpu:               0.3 elap:               0.0
 (Enter /home/spantaleone/g16/l202.exe)
                          Input orientation:                          
 ---------------------------------------------------------------------
 Center     Atomic      Atomic             Coordinates (Angstroms)
 Number     Number       Type             X           Y           Z
 ---------------------------------------------------------------------
      1          6           0        0.000000    0.000000    0.000000
      2          6           0        0.000000    0.000000    1.305190
      3          6           0        0.000573    0.000000    2.586770
      4          6           0        0.001719    0.000000    3.868309
      5          6           0        0.003438    0.000000    5.149868
      6          8           0        0.005578    0.000000    6.346116
 ---------------------------------------------------------------------
                    Distance matrix (angstroms):
                    1          2          3          4          5
     1  C    0.000000
     2  C    1.305190   0.000000
     3  C    2.586770   1.281580   0.000000
     4  C    3.868310   2.563120   1.281540   0.000000
     5  C    5.149869   3.844680   2.563100   1.281560   0.000000
     6  O    6.346119   5.040929   3.759350   2.477810   1.196250
                    6
     6  O    0.000000
 Symmetry turned off by external request.
 This structure is nearly, but not quite of a higher symmetry.
 Consider Symm=Loose if the higher symmetry is desired.
 Stoichiometry    C5O
 Framework group  CS[SG(C5O)]
 Deg. of freedom     9
 Full point group                 CS      NOp   2
 Rotational constants (GHZ):    13131564.6116710           1.3388567           1.3388566
 Leave Link  202 at Mon Oct 12 17:20:22 2020, MaxMem=  1073741824 cpu:               0.3 elap:               0.0
 (Enter /home/spantaleone/g16/l301.exe)
 Standard basis: CC-pVTZ (5D, 7F)
 Ernie: Thresh=  0.10000D-02 Tol=  0.10000D-05 Strict=F.
 Ernie:  18 primitive shells out of 156 were deleted.
   180 basis functions,   312 primitive gaussians,   210 cartesian basis functions
    19 alpha electrons       19 beta electrons
       nuclear repulsion energy       142.2819996526 Hartrees.
 IExCor= 4336 DFT=T Ex+Corr=M062X ExCW=0 ScaHFX=  0.540000
 ScaDFX=  1.000000  1.000000  1.000000  1.000000 ScalE2=  1.000000  1.000000
 IRadAn=      5 IRanWt=     -1 IRanGd=            0 ICorTp=0 IEmpDi=  4
 NAtoms=    6 NActive=    6 NUniq=    6 SFac= 1.00D+00 NAtFMM=   60 NAOKFM=F Big=F
 Integral buffers will be    131072 words long.
 Raffenetti 2 integral format.
 Two-electron integral symmetry is turned off.
 Leave Link  301 at Mon Oct 12 17:20:22 2020, MaxMem=  1073741824 cpu:               1.4 elap:               0.1
 (Enter /home/spantaleone/g16/l302.exe)
 NPDir=0 NMtPBC=     1 NCelOv=     1 NCel=       1 NClECP=     1 NCelD=      1
         NCelK=      1 NCelE2=     1 NClLst=     1 CellRange=     0.0.
 One-electron integrals computed using PRISM.
 NBasis=   180 RedAO= T EigKep=  1.81D-05  NBF=   180
 NBsUse=   180 1.00D-06 EigRej= -1.00D+00 NBFU=   180
 Precomputing XC quadrature grid using
 IXCGrd= 4 IRadAn=           5 IRanWt=          -1 IRanGd=           0 AccXCQ= 0.00D+00.
 Generated NRdTot=       0 NPtTot=           0 NUsed=           0 NTot=          32
 NSgBfM=   209   209   209   209   209 MxSgAt=     6 MxSgA2=     6.
 Leave Link  302 at Mon Oct 12 17:20:22 2020, MaxMem=  1073741824 cpu:               6.0 elap:               0.3
 (Enter /home/spantaleone/g16/l303.exe)
 DipDrv:  MaxL=1.
 Leave Link  303 at Mon Oct 12 17:20:22 2020, MaxMem=  1073741824 cpu:               1.4 elap:               0.1
 (Enter /home/spantaleone/g16/l401.exe)
 ExpMin= 1.21D-01 ExpMax= 1.53D+04 ExpMxC= 5.22D+02 IAcc=3 IRadAn=         5 AccDes= 0.00D+00
 Harris functional with IExCor= 1009 and IRadAn=       5 diagonalized for initial guess.
 HarFok:  IExCor= 1009 AccDes= 0.00D+00 IRadAn=         5 IDoV= 1 UseB2=F ITyADJ=14
 ICtDFT=  3500011 ScaDFX=  1.000000  1.000000  1.000000  1.000000
 FoFCou: FMM=F IPFlag=           0 FMFlag=      100000 FMFlg1=           0
         NFxFlg=           0 DoJE=T BraDBF=F KetDBF=T FulRan=T
         wScrn=  0.000000 ICntrl=       500 IOpCl=  0 I1Cent=   200000004 NGrid=           0
         NMat0=    1 NMatS0=      1 NMatT0=    0 NMatD0=    1 NMtDS0=    0 NMtDT0=    0
 Symmetry not used in FoFCou.
 Harris En= -265.391695007811    
 JPrj=0 DoOrth=F DoCkMO=F.
 Initial guess <Sx>= 0.0000 <Sy>= 0.0000 <Sz>= 0.0000 <S**2>=-0.0000 S=-0.0000
 Leave Link  401 at Mon Oct 12 17:20:23 2020, MaxMem=  1073741824 cpu:              12.6 elap:               0.5
 (Enter /home/spantaleone/g16/l502.exe)
 Keep R1 and R2 ints in memory in canonical form, NReq=290322694.
 FoFCou: FMM=F IPFlag=           0 FMFlag=           0 FMFlg1=           0
         NFxFlg=           0 DoJE=F BraDBF=F KetDBF=F FulRan=T
         wScrn=  0.000000 ICntrl=       600 IOpCl=  0 I1Cent=           0 NGrid=           0
         NMat0=    1 NMatS0=  16290 NMatT0=    0 NMatD0=    1 NMtDS0=    0 NMtDT0=    0
 Symmetry not used in FoFCou.
 Two-electron integral symmetry not used.
 UHF open shell SCF:
 Using DIIS extrapolation, IDIIS=  1040.
 NGot=  1073741824 LenX=   808266816 LenY=   808222275
 Requested convergence on RMS density matrix=1.00D-08 within  32 cycles.
 Requested convergence on MAX density matrix=1.00D-06.
 Requested convergence on             energy=1.00D-06.
 No special actions if energy rises.
 Integral accuracy reduced to 1.0D-05 until final iterations.

 Cycle   1  Pass 0  IDiag  1:
 E= -265.403361811990    
 DIIS: error= 2.66D-02 at cycle   1 NSaved=   1.
 NSaved= 1 IEnMin= 1 EnMin= -265.403361811990     IErMin= 1 ErrMin= 2.66D-02
 ErrMax= 2.66D-02  0.00D+00 EMaxC= 1.00D-01 BMatC= 5.77D-01 BMatP= 5.77D-01
 IDIUse=3 WtCom= 7.34D-01 WtEn= 2.66D-01
 Coeff-Com:  0.100D+01
 Coeff-En:   0.100D+01
 Coeff:      0.100D+01
 Gap=     0.208 Goal=   None    Shift=    0.000
 Gap=     0.208 Goal=   None    Shift=    0.000
 GapD=    0.208 DampG=1.000 DampE=0.500 DampFc=0.5000 IDamp=-1.
 Damping current iteration by 5.00D-01
 RMSDP=1.50D-02 MaxDP=7.33D-01              OVMax= 2.71D-01

 Cycle   2  Pass 0  IDiag  1:
 E= -265.441705517818     Delta-E=       -0.038343705828 Rises=F Damp=T
 DIIS: error= 1.05D-02 at cycle   2 NSaved=   2.
 NSaved= 2 IEnMin= 2 EnMin= -265.441705517818     IErMin= 2 ErrMin= 1.05D-02
 ErrMax= 1.05D-02  0.00D+00 EMaxC= 1.00D-01 BMatC= 9.30D-02 BMatP= 5.77D-01
 IDIUse=3 WtCom= 8.95D-01 WtEn= 1.05D-01
 Coeff-Com: -0.473D-02 0.100D+01
 Coeff-En:   0.228D+00 0.772D+00
 Coeff:      0.198D-01 0.980D+00
 Gap=     0.314 Goal=   None    Shift=    0.000
 Gap=     0.314 Goal=   None    Shift=    0.000
 RMSDP=5.26D-03 MaxDP=2.40D-01 DE=-3.83D-02 OVMax= 2.79D-01

 Cycle   3  Pass 0  IDiag  1:
 E= -265.466436147170     Delta-E=       -0.024730629353 Rises=F Damp=F
 DIIS: error= 2.37D-02 at cycle   3 NSaved=   3.
 NSaved= 3 IEnMin= 3 EnMin= -265.466436147170     IErMin= 2 ErrMin= 1.05D-02
 ErrMax= 2.37D-02  0.00D+00 EMaxC= 1.00D-01 BMatC= 1.49D-01 BMatP= 9.30D-02
 IDIUse=2 WtCom= 0.00D+00 WtEn= 1.00D+00
 Coeff-En:   0.000D+00 0.339D+00 0.661D+00
 Coeff:      0.000D+00 0.339D+00 0.661D+00
 Gap=     0.239 Goal=   None    Shift=    0.000
 Gap=     0.239 Goal=   None    Shift=    0.000
 RMSDP=7.24D-03 MaxDP=3.49D-01 DE=-2.47D-02 OVMax= 2.28D-01

 Cycle   4  Pass 0  IDiag  1:
 E= -265.455007371787     Delta-E=        0.011428775383 Rises=F Damp=F
 DIIS: error= 2.77D-02 at cycle   4 NSaved=   4.
 NSaved= 4 IEnMin= 3 EnMin= -265.466436147170     IErMin= 2 ErrMin= 1.05D-02
 ErrMax= 2.77D-02  0.00D+00 EMaxC= 1.00D-01 BMatC= 1.76D-01 BMatP= 9.30D-02
 IDIUse=2 WtCom= 0.00D+00 WtEn= 1.00D+00
 Coeff-En:   0.000D+00 0.000D+00 0.537D+00 0.463D+00
 Coeff:      0.000D+00 0.000D+00 0.537D+00 0.463D+00
 Gap=     0.266 Goal=   None    Shift=    0.000
 Gap=     0.266 Goal=   None    Shift=    0.000
 RMSDP=5.70D-03 MaxDP=2.81D-01 DE= 1.14D-02 OVMax= 1.23D-01

 Cycle   5  Pass 0  IDiag  1:
 E= -265.516789146462     Delta-E=       -0.061781774674 Rises=F Damp=F
 DIIS: error= 2.87D-03 at cycle   5 NSaved=   5.
 NSaved= 5 IEnMin= 5 EnMin= -265.516789146462     IErMin= 5 ErrMin= 2.87D-03
 ErrMax= 2.87D-03  0.00D+00 EMaxC= 1.00D-01 BMatC= 2.65D-03 BMatP= 9.30D-02
 IDIUse=3 WtCom= 9.71D-01 WtEn= 2.87D-02
 Coeff-Com:  0.529D-02-0.556D-02 0.210D+00 0.167D+00 0.623D+00
 Coeff-En:   0.000D+00 0.000D+00 0.000D+00 0.000D+00 0.100D+01
 Coeff:      0.514D-02-0.540D-02 0.204D+00 0.163D+00 0.634D+00
 Gap=     0.225 Goal=   None    Shift=    0.000
 Gap=     0.225 Goal=   None    Shift=    0.000
 RMSDP=2.20D-04 MaxDP=1.01D-02 DE=-6.18D-02 OVMax= 1.05D-02

 Cycle   6  Pass 0  IDiag  1:
 E= -265.517181408101     Delta-E=       -0.000392261639 Rises=F Damp=F
 DIIS: error= 2.22D-03 at cycle   6 NSaved=   6.
 NSaved= 6 IEnMin= 6 EnMin= -265.517181408101     IErMin= 6 ErrMin= 2.22D-03
 ErrMax= 2.22D-03  0.00D+00 EMaxC= 1.00D-01 BMatC= 9.76D-04 BMatP= 2.65D-03
 IDIUse=3 WtCom= 9.78D-01 WtEn= 2.22D-02
 Coeff-Com: -0.798D-02 0.776D-02 0.447D-03-0.265D-01 0.388D+00 0.638D+00
 Coeff-En:   0.000D+00 0.000D+00 0.000D+00 0.000D+00 0.293D+00 0.707D+00
 Coeff:     -0.780D-02 0.759D-02 0.437D-03-0.259D-01 0.386D+00 0.639D+00
 Gap=     0.227 Goal=   None    Shift=    0.000
 Gap=     0.227 Goal=   None    Shift=    0.000
 RMSDP=3.63D-04 MaxDP=1.70D-02 DE=-3.92D-04 OVMax= 7.46D-03

 Cycle   7  Pass 0  IDiag  1:
 E= -265.517430101390     Delta-E=       -0.000248693289 Rises=F Damp=F
 DIIS: error= 3.45D-04 at cycle   7 NSaved=   7.
 NSaved= 7 IEnMin= 7 EnMin= -265.517430101390     IErMin= 7 ErrMin= 3.45D-04
 ErrMax= 3.45D-04  0.00D+00 EMaxC= 1.00D-01 BMatC= 7.37D-05 BMatP= 9.76D-04
 IDIUse=3 WtCom= 9.97D-01 WtEn= 3.45D-03
 Coeff-Com: -0.709D-02 0.122D-01-0.967D-02-0.267D-01 0.179D+00 0.374D+00
 Coeff-Com:  0.478D+00
 Coeff-En:   0.000D+00 0.000D+00 0.000D+00 0.000D+00 0.000D+00 0.000D+00
 Coeff-En:   0.100D+01
 Coeff:     -0.707D-02 0.121D-01-0.963D-02-0.266D-01 0.179D+00 0.373D+00
 Coeff:      0.479D+00
 Gap=     0.227 Goal=   None    Shift=    0.000
 Gap=     0.227 Goal=   None    Shift=    0.000
 RMSDP=2.00D-05 MaxDP=6.06D-04 DE=-2.49D-04 OVMax= 1.29D-03

 Cycle   8  Pass 0  IDiag  1:
 E= -265.517444819300     Delta-E=       -0.000014717910 Rises=F Damp=F
 DIIS: error= 1.31D-04 at cycle   8 NSaved=   8.
 NSaved= 8 IEnMin= 8 EnMin= -265.517444819300     IErMin= 8 ErrMin= 1.31D-04
 ErrMax= 1.31D-04  0.00D+00 EMaxC= 1.00D-01 BMatC= 8.98D-06 BMatP= 7.37D-05
 IDIUse=3 WtCom= 9.99D-01 WtEn= 1.31D-03
 Coeff-Com: -0.384D-02 0.817D-02-0.827D-02-0.150D-01 0.407D-01 0.137D+00
 Coeff-Com:  0.287D+00 0.555D+00
 Coeff-En:   0.000D+00 0.000D+00 0.000D+00 0.000D+00 0.000D+00 0.000D+00
 Coeff-En:   0.000D+00 0.100D+01
 Coeff:     -0.384D-02 0.816D-02-0.826D-02-0.150D-01 0.406D-01 0.137D+00
 Coeff:      0.286D+00 0.555D+00
 Gap=     0.227 Goal=   None    Shift=    0.000
 Gap=     0.227 Goal=   None    Shift=    0.000
 RMSDP=3.30D-05 MaxDP=1.54D-03 DE=-1.47D-05 OVMax= 3.60D-04

 Cycle   9  Pass 0  IDiag  1:
 E= -265.517446639189     Delta-E=       -0.000001819889 Rises=F Damp=F
 DIIS: error= 3.18D-05 at cycle   9 NSaved=   9.
 NSaved= 9 IEnMin= 9 EnMin= -265.517446639189     IErMin= 9 ErrMin= 3.18D-05
 ErrMax= 3.18D-05  0.00D+00 EMaxC= 1.00D-01 BMatC= 6.06D-07 BMatP= 8.98D-06
 IDIUse=1 WtCom= 1.00D+00 WtEn= 0.00D+00
 Coeff-Com: -0.841D-03 0.214D-02-0.258D-02-0.255D-02-0.141D-01 0.235D-02
 Coeff-Com:  0.299D-01 0.128D+00 0.858D+00
 Coeff:     -0.841D-03 0.214D-02-0.258D-02-0.255D-02-0.141D-01 0.235D-02
 Coeff:      0.299D-01 0.128D+00 0.858D+00
 Gap=     0.227 Goal=   None    Shift=    0.000
 Gap=     0.227 Goal=   None    Shift=    0.000
 RMSDP=1.49D-05 MaxDP=7.07D-04 DE=-1.82D-06 OVMax= 1.67D-04

 Failed to achieve initial convergence to 1.0D-08 in 10 cycles.
 Switch to full accuracy anyway.
 Cycle  10  Pass 1  IDiag  1:
 E= -265.517422826009     Delta-E=        0.000023813180 Rises=F Damp=F
 DIIS: error= 1.53D-05 at cycle   1 NSaved=   1.
 NSaved= 1 IEnMin= 1 EnMin= -265.517422826009     IErMin= 1 ErrMin= 1.53D-05
 ErrMax= 1.53D-05  0.00D+00 EMaxC= 1.00D-01 BMatC= 2.65D-07 BMatP= 2.65D-07
 IDIUse=1 WtCom= 1.00D+00 WtEn= 0.00D+00
 Coeff-Com:  0.100D+01
 Coeff:      0.100D+01
 Gap=     0.227 Goal=   None    Shift=    0.000
 Gap=     0.227 Goal=   None    Shift=    0.000
 RMSDP=1.49D-05 MaxDP=7.07D-04 DE= 2.38D-05 OVMax= 1.43D-04

 Cycle  11  Pass 1  IDiag  1:
 E= -265.517422798551     Delta-E=        0.000000027458 Rises=F Damp=F
 DIIS: error= 2.68D-05 at cycle   2 NSaved=   2.
 NSaved= 2 IEnMin= 1 EnMin= -265.517422826009     IErMin= 1 ErrMin= 1.53D-05
 ErrMax= 2.68D-05  0.00D+00 EMaxC= 1.00D-01 BMatC= 3.61D-07 BMatP= 2.65D-07
 IDIUse=1 WtCom= 1.00D+00 WtEn= 0.00D+00
 Coeff-Com:  0.545D+00 0.455D+00
 Coeff:      0.545D+00 0.455D+00
 Gap=     0.227 Goal=   None    Shift=    0.000
 Gap=     0.227 Goal=   None    Shift=    0.000
 RMSDP=4.90D-06 MaxDP=2.29D-04 DE= 2.75D-08 OVMax= 1.18D-04

 Cycle  12  Pass 1  IDiag  1:
 E= -265.517422874424     Delta-E=       -0.000000075873 Rises=F Damp=F
 DIIS: error= 8.21D-06 at cycle   3 NSaved=   3.
 NSaved= 3 IEnMin= 3 EnMin= -265.517422874424     IErMin= 3 ErrMin= 8.21D-06
 ErrMax= 8.21D-06  0.00D+00 EMaxC= 1.00D-01 BMatC= 2.79D-08 BMatP= 2.65D-07
 IDIUse=1 WtCom= 1.00D+00 WtEn= 0.00D+00
 Coeff-Com:  0.108D+00 0.224D+00 0.668D+00
 Coeff:      0.108D+00 0.224D+00 0.668D+00
 Gap=     0.227 Goal=   None    Shift=    0.000
 Gap=     0.227 Goal=   None    Shift=    0.000
 RMSDP=8.29D-07 MaxDP=2.98D-05 DE=-7.59D-08 OVMax= 4.27D-05

 Cycle  13  Pass 1  IDiag  1:
 E= -265.517422878554     Delta-E=       -0.000000004129 Rises=F Damp=F
 DIIS: error= 3.30D-06 at cycle   4 NSaved=   4.
 NSaved= 4 IEnMin= 4 EnMin= -265.517422878554     IErMin= 4 ErrMin= 3.30D-06
 ErrMax= 3.30D-06  0.00D+00 EMaxC= 1.00D-01 BMatC= 8.18D-09 BMatP= 2.79D-08
 IDIUse=1 WtCom= 1.00D+00 WtEn= 0.00D+00
 Coeff-Com: -0.275D-01 0.692D-01 0.422D+00 0.536D+00
 Coeff:     -0.275D-01 0.692D-01 0.422D+00 0.536D+00
 Gap=     0.227 Goal=   None    Shift=    0.000
 Gap=     0.227 Goal=   None    Shift=    0.000
 RMSDP=7.08D-07 MaxDP=3.19D-05 DE=-4.13D-09 OVMax= 2.11D-05

 Cycle  14  Pass 1  IDiag  1:
 E= -265.517422880407     Delta-E=       -0.000000001853 Rises=F Damp=F
 DIIS: error= 1.05D-06 at cycle   5 NSaved=   5.
 NSaved= 5 IEnMin= 5 EnMin= -265.517422880407     IErMin= 5 ErrMin= 1.05D-06
 ErrMax= 1.05D-06  0.00D+00 EMaxC= 1.00D-01 BMatC= 3.17D-10 BMatP= 8.18D-09
 IDIUse=1 WtCom= 1.00D+00 WtEn= 0.00D+00
 Coeff-Com: -0.192D-01 0.279D-01 0.193D+00 0.279D+00 0.519D+00
 Coeff:     -0.192D-01 0.279D-01 0.193D+00 0.279D+00 0.519D+00
 Gap=     0.227 Goal=   None    Shift=    0.000
 Gap=     0.227 Goal=   None    Shift=    0.000
 RMSDP=1.62D-07 MaxDP=7.21D-06 DE=-1.85D-09 OVMax= 6.90D-06

 Cycle  15  Pass 1  IDiag  1:
 E= -265.517422880488     Delta-E=       -0.000000000082 Rises=F Damp=F
 DIIS: error= 5.65D-07 at cycle   6 NSaved=   6.
 NSaved= 6 IEnMin= 6 EnMin= -265.517422880488     IErMin= 6 ErrMin= 5.65D-07
 ErrMax= 5.65D-07  0.00D+00 EMaxC= 1.00D-01 BMatC= 7.33D-11 BMatP= 3.17D-10
 IDIUse=1 WtCom= 1.00D+00 WtEn= 0.00D+00
 Coeff-Com: -0.415D-03-0.885D-02-0.430D-01-0.405D-01 0.330D+00 0.762D+00
 Coeff:     -0.415D-03-0.885D-02-0.430D-01-0.405D-01 0.330D+00 0.762D+00
 Gap=     0.227 Goal=   None    Shift=    0.000
 Gap=     0.227 Goal=   None    Shift=    0.000
 RMSDP=1.34D-07 MaxDP=6.51D-06 DE=-8.16D-11 OVMax= 2.11D-06

 Cycle  16  Pass 1  IDiag  1:
 E= -265.517422880512     Delta-E=       -0.000000000023 Rises=F Damp=F
 DIIS: error= 1.14D-07 at cycle   7 NSaved=   7.
 NSaved= 7 IEnMin= 7 EnMin= -265.517422880512     IErMin= 7 ErrMin= 1.14D-07
 ErrMax= 1.14D-07  0.00D+00 EMaxC= 1.00D-01 BMatC= 8.33D-12 BMatP= 7.33D-11
 IDIUse=1 WtCom= 1.00D+00 WtEn= 0.00D+00
 Coeff-Com:  0.677D-03-0.633D-02-0.318D-01-0.382D-01 0.162D+00 0.428D+00
 Coeff-Com:  0.485D+00
 Coeff:      0.677D-03-0.633D-02-0.318D-01-0.382D-01 0.162D+00 0.428D+00
 Coeff:      0.485D+00
 Gap=     0.227 Goal=   None    Shift=    0.000
 Gap=     0.227 Goal=   None    Shift=    0.000
 RMSDP=1.29D-08 MaxDP=4.87D-07 DE=-2.34D-11 OVMax= 6.20D-07

 Cycle  17  Pass 1  IDiag  1:
 E= -265.517422880514     Delta-E=       -0.000000000002 Rises=F Damp=F
 DIIS: error= 6.09D-08 at cycle   8 NSaved=   8.
 NSaved= 8 IEnMin= 8 EnMin= -265.517422880514     IErMin= 8 ErrMin= 6.09D-08
 ErrMax= 6.09D-08  0.00D+00 EMaxC= 1.00D-01 BMatC= 1.10D-12 BMatP= 8.33D-12
 IDIUse=1 WtCom= 1.00D+00 WtEn= 0.00D+00
 Coeff-Com:  0.432D-03-0.230D-02-0.109D-01-0.164D-01 0.479D-01 0.136D+00
 Coeff-Com:  0.289D+00 0.556D+00
 Coeff:      0.432D-03-0.230D-02-0.109D-01-0.164D-01 0.479D-01 0.136D+00
 Coeff:      0.289D+00 0.556D+00
 Gap=     0.227 Goal=   None    Shift=    0.000
 Gap=     0.227 Goal=   None    Shift=    0.000
 RMSDP=1.36D-08 MaxDP=6.47D-07 DE=-2.05D-12 OVMax= 2.11D-07

 Cycle  18  Pass 1  IDiag  1:
 E= -265.517422880513     Delta-E=        0.000000000000 Rises=F Damp=F
 DIIS: error= 1.11D-08 at cycle   9 NSaved=   9.
 NSaved= 9 IEnMin= 8 EnMin= -265.517422880514     IErMin= 9 ErrMin= 1.11D-08
 ErrMax= 1.11D-08  0.00D+00 EMaxC= 1.00D-01 BMatC= 6.28D-14 BMatP= 1.10D-12
 IDIUse=1 WtCom= 1.00D+00 WtEn= 0.00D+00
 Coeff-Com:  0.991D-04-0.439D-03-0.175D-02-0.398D-02-0.146D-02 0.409D-02
 Coeff-Com:  0.683D-01 0.241D+00 0.694D+00
 Coeff:      0.991D-04-0.439D-03-0.175D-02-0.398D-02-0.146D-02 0.409D-02
 Coeff:      0.683D-01 0.241D+00 0.694D+00
 Gap=     0.227 Goal=   None    Shift=    0.000
 Gap=     0.227 Goal=   None    Shift=    0.000
 RMSDP=2.24D-09 MaxDP=9.85D-08 DE= 4.55D-13 OVMax= 2.84D-08

 SCF Done:  E(UM062X) =  -265.517422881     A.U. after   18 cycles
            NFock= 18  Conv=0.22D-08     -V/T= 2.0067
 <Sx>= 0.0000 <Sy>= 0.0000 <Sz>= 0.0000 <S**2>=-0.0000 S=-0.0000
 <L.S>= 0.000000000000E+00
 KE= 2.637605784212D+02 PE=-9.022994213241D+02 EE= 2.307394203698D+02
 Annihilation of the first spin contaminant:
 S**2 before annihilation    -0.0000,   after    -0.0000
 Leave Link  502 at Mon Oct 12 17:20:36 2020, MaxMem=  1073741824 cpu:             226.4 elap:              12.8
 (Enter /home/spantaleone/g16/l508.exe)
 QCSCF skips out because SCF is already converged.
 Leave Link  508 at Mon Oct 12 17:20:36 2020, MaxMem=  1073741824 cpu:               0.0 elap:               0.0
 (Enter /home/spantaleone/g16/l601.exe)
 Copying SCF densities to generalized density rwf, IOpCl= 1 IROHF=0.

 **********************************************************************

            Population analysis using the SCF Density.

 **********************************************************************

 Alpha  occ. eigenvalues --  -19.74574 -10.73824 -10.68523 -10.62991 -10.61173
 Alpha  occ. eigenvalues --  -10.57072  -1.27084  -0.97481  -0.90544  -0.81742
 Alpha  occ. eigenvalues --   -0.72204  -0.64268  -0.57586  -0.57586  -0.47192
 Alpha  occ. eigenvalues --   -0.47192  -0.38385  -0.34727  -0.34727
 Alpha virt. eigenvalues --   -0.11995  -0.11995   0.05811   0.05811   0.10140
 Alpha virt. eigenvalues --    0.17613   0.18593   0.21917   0.21919   0.22066
 Alpha virt. eigenvalues --    0.26744   0.26744   0.27657   0.31413   0.31413
 Alpha virt. eigenvalues --    0.33056   0.38501   0.38501   0.39897   0.48407
 Alpha virt. eigenvalues --    0.48407   0.49334   0.50083   0.50083   0.57758
 Alpha virt. eigenvalues --    0.57758   0.60231   0.60232   0.61171   0.66496
 Alpha virt. eigenvalues --    0.69475   0.69475   0.75998   0.75998   0.77527
 Alpha virt. eigenvalues --    0.78220   0.83194   0.83194   0.85958   0.87171
 Alpha virt. eigenvalues --    0.87171   0.92500   0.99471   1.08370   1.08371
 Alpha virt. eigenvalues --    1.11297   1.11297   1.18603   1.21944   1.26749
 Alpha virt. eigenvalues --    1.26749   1.32141   1.46420   1.46420   1.57714
 Alpha virt. eigenvalues --    1.57714   1.60189   1.60190   1.73081   1.83724
 Alpha virt. eigenvalues --    1.90762   1.90762   1.94800   2.06947   2.06947
 Alpha virt. eigenvalues --    2.11022   2.18827   2.22320   2.22320   2.32187
 Alpha virt. eigenvalues --    2.34657   2.34657   2.35691   2.35691   2.37962
 Alpha virt. eigenvalues --    2.37962   2.39655   2.40410   2.40410   2.46802
 Alpha virt. eigenvalues --    2.46802   2.48725   2.48725   2.52783   2.59107
 Alpha virt. eigenvalues --    2.59107   2.63290   2.63290   2.69494   2.69494
 Alpha virt. eigenvalues --    2.73042   2.73042   2.77009   2.77009   2.81993
 Alpha virt. eigenvalues --    2.82741   2.82741   2.83068   2.83068   2.90734
 Alpha virt. eigenvalues --    2.90796   2.90796   2.96509   2.99326   2.99326
 Alpha virt. eigenvalues --    3.02706   3.02706   3.05310   3.05310   3.08943
 Alpha virt. eigenvalues --    3.12644   3.12645   3.17823   3.17824   3.20005
 Alpha virt. eigenvalues --    3.20006   3.45913   3.45913   3.46013   3.49245
 Alpha virt. eigenvalues --    3.49245   3.60898   3.60898   3.77493   3.93834
 Alpha virt. eigenvalues --    3.93834   4.12479   4.19104   4.19105   4.24063
 Alpha virt. eigenvalues --    4.26418   4.26418   4.48755   4.70127   4.70127
 Alpha virt. eigenvalues --    4.73483   5.03224   5.09264   5.09264   5.28924
 Alpha virt. eigenvalues --    5.28924   5.50504   5.50504   5.55540   5.66464
 Alpha virt. eigenvalues --    5.70632   5.70633   5.97257   6.23575   6.23575
 Alpha virt. eigenvalues --    6.40981   6.73811   6.73811   6.87761   6.87761
 Alpha virt. eigenvalues --    7.03265  11.52574  12.84346  13.82405  14.67921
 Alpha virt. eigenvalues --   15.04063
  Beta  occ. eigenvalues --  -19.74574 -10.73824 -10.68523 -10.62991 -10.61173
  Beta  occ. eigenvalues --  -10.57072  -1.27084  -0.97481  -0.90544  -0.81742
  Beta  occ. eigenvalues --   -0.72204  -0.64268  -0.57586  -0.57586  -0.47192
  Beta  occ. eigenvalues --   -0.47192  -0.38385  -0.34727  -0.34727
  Beta virt. eigenvalues --   -0.11995  -0.11995   0.05811   0.05811   0.10140
  Beta virt. eigenvalues --    0.17613   0.18593   0.21917   0.21919   0.22066
  Beta virt. eigenvalues --    0.26744   0.26744   0.27657   0.31413   0.31413
  Beta virt. eigenvalues --    0.33056   0.38501   0.38501   0.39897   0.48407
  Beta virt. eigenvalues --    0.48407   0.49334   0.50083   0.50083   0.57758
  Beta virt. eigenvalues --    0.57758   0.60231   0.60232   0.61171   0.66496
  Beta virt. eigenvalues --    0.69475   0.69475   0.75998   0.75998   0.77527
  Beta virt. eigenvalues --    0.78220   0.83194   0.83194   0.85958   0.87171
  Beta virt. eigenvalues --    0.87171   0.92500   0.99471   1.08370   1.08371
  Beta virt. eigenvalues --    1.11297   1.11297   1.18603   1.21944   1.26749
  Beta virt. eigenvalues --    1.26749   1.32141   1.46420   1.46420   1.57714
  Beta virt. eigenvalues --    1.57714   1.60189   1.60190   1.73081   1.83724
  Beta virt. eigenvalues --    1.90762   1.90762   1.94800   2.06947   2.06947
  Beta virt. eigenvalues --    2.11022   2.18827   2.22320   2.22320   2.32187
  Beta virt. eigenvalues --    2.34657   2.34657   2.35691   2.35691   2.37962
  Beta virt. eigenvalues --    2.37962   2.39655   2.40410   2.40410   2.46802
  Beta virt. eigenvalues --    2.46802   2.48725   2.48725   2.52783   2.59107
  Beta virt. eigenvalues --    2.59107   2.63290   2.63290   2.69494   2.69494
  Beta virt. eigenvalues --    2.73042   2.73042   2.77009   2.77009   2.81993
  Beta virt. eigenvalues --    2.82741   2.82741   2.83068   2.83068   2.90734
  Beta virt. eigenvalues --    2.90796   2.90796   2.96509   2.99326   2.99326
  Beta virt. eigenvalues --    3.02706   3.02706   3.05310   3.05310   3.08943
  Beta virt. eigenvalues --    3.12644   3.12645   3.17823   3.17824   3.20005
  Beta virt. eigenvalues --    3.20006   3.45913   3.45913   3.46013   3.49245
  Beta virt. eigenvalues --    3.49245   3.60898   3.60898   3.77493   3.93834
  Beta virt. eigenvalues --    3.93834   4.12479   4.19104   4.19105   4.24063
  Beta virt. eigenvalues --    4.26418   4.26418   4.48755   4.70127   4.70127
  Beta virt. eigenvalues --    4.73483   5.03224   5.09264   5.09264   5.28924
  Beta virt. eigenvalues --    5.28924   5.50504   5.50504   5.55540   5.66464
  Beta virt. eigenvalues --    5.70632   5.70633   5.97257   6.23575   6.23575
  Beta virt. eigenvalues --    6.40981   6.73811   6.73811   6.87761   6.87761
  Beta virt. eigenvalues --    7.03265  11.52574  12.84346  13.82405  14.67921
  Beta virt. eigenvalues --   15.04063
          Condensed to atoms (all electrons):
               1          2          3          4          5          6
     1  C    5.335822   0.904060  -0.106442  -0.004139   0.000229   0.000003
     2  C    0.904060   6.021447  -0.192558  -0.373506   0.004753   0.000506
     3  C   -0.106442  -0.192558   5.638347   0.130328  -0.332083   0.012268
     4  C   -0.004139  -0.373506   0.130328   6.021287   0.526229  -0.060796
     5  C    0.000229   0.004753  -0.332083   0.526229   5.044053   0.678887
     6  O    0.000003   0.000506   0.012268  -0.060796   0.678887   7.563569
          Atomic-Atomic Spin Densities.
               1          2          3          4          5          6
     1  C    0.000000   0.000000   0.000000   0.000000   0.000000   0.000000
     2  C    0.000000   0.000000   0.000000   0.000000   0.000000   0.000000
     3  C    0.000000   0.000000   0.000000   0.000000   0.000000   0.000000
     4  C    0.000000   0.000000   0.000000   0.000000   0.000000   0.000000
     5  C    0.000000   0.000000   0.000000   0.000000   0.000000   0.000000
     6  O    0.000000   0.000000   0.000000   0.000000   0.000000   0.000000
 Mulliken charges and spin densities:
               1          2
     1  C   -0.129533   0.000000
     2  C   -0.364701   0.000000
     3  C    0.850140   0.000000
     4  C   -0.239403   0.000000
     5  C    0.077933   0.000000
     6  O   -0.194436   0.000000
 Sum of Mulliken charges =  -0.00000   0.00000
 Mulliken charges and spin densities with hydrogens summed into heavy atoms:
               1          2
     1  C   -0.129533   0.000000
     2  C   -0.364701   0.000000
     3  C    0.850140   0.000000
     4  C   -0.239403   0.000000
     5  C    0.077933   0.000000
     6  O   -0.194436   0.000000
 Electronic spatial extent (au):  <R**2>=           2291.2468
 Charge=             -0.0000 electrons
 Dipole moment (field-independent basis, Debye):
    X=             -0.0004    Y=             -0.0000    Z=              2.4402  Tot=              2.4402
 Quadrupole moment (field-independent basis, Debye-Ang):
   XX=            -32.5424   YY=            -32.5423   ZZ=            -31.6971
   XY=              0.0000   XZ=             -0.0075   YZ=             -0.0000
 Traceless Quadrupole moment (field-independent basis, Debye-Ang):
   XX=             -0.2818   YY=             -0.2818   ZZ=              0.5635
   XY=              0.0000   XZ=             -0.0075   YZ=             -0.0000
 Octapole moment (field-independent basis, Debye-Ang**2):
  XXX=             -0.1731  YYY=             -0.0000  ZZZ=           -337.6744  XYY=             -0.0577
  XXY=             -0.0000  XXZ=           -100.1828  XZZ=             -0.1371  YZZ=             -0.0000
  YYZ=           -100.1827  XYZ=              0.0000
 Hexadecapole moment (field-independent basis, Debye-Ang**3):
 XXXX=            -34.2652 YYYY=            -34.2638 ZZZZ=          -3321.2951 XXXY=              0.0000
 XXXZ=             -0.9354 YYYX=              0.0000 YYYZ=             -0.0000 ZZZX=             -1.6169
 ZZZY=             -0.0000 XXYY=            -11.4215 XXZZ=           -475.9888 YYZZ=           -475.9878
 XXYZ=             -0.0000 YYXZ=             -0.3118 ZZXY=              0.0000
 N-N= 1.422819996526D+02 E-N=-9.022994212388D+02  KE= 2.637605784212D+02
                          Isotropic Fermi Contact Couplings
        Atom                 a.u.       MegaHertz       Gauss      10(-4) cm-1
     1  C(13)              0.00000       0.00000       0.00000       0.00000
     2  C(13)              0.00000       0.00000       0.00000       0.00000
     3  C(13)              0.00000       0.00000       0.00000       0.00000
     4  C(13)              0.00000       0.00000       0.00000       0.00000
     5  C(13)              0.00000       0.00000       0.00000       0.00000
     6  O(17)              0.00000      -0.00000      -0.00000      -0.00000
 --------------------------------------------------------
       Center         ----  Spin Dipole Couplings  ----
                      3XX-RR        3YY-RR        3ZZ-RR
 --------------------------------------------------------
     1   Atom        0.000000      0.000000      0.000000
     2   Atom        0.000000      0.000000      0.000000
     3   Atom        0.000000      0.000000      0.000000
     4   Atom        0.000000      0.000000      0.000000
     5   Atom        0.000000      0.000000      0.000000
     6   Atom        0.000000      0.000000      0.000000
 --------------------------------------------------------
                        XY            XZ            YZ
 --------------------------------------------------------
     1   Atom        0.000000      0.000000      0.000000
     2   Atom        0.000000      0.000000      0.000000
     3   Atom        0.000000      0.000000      0.000000
     4   Atom        0.000000      0.000000      0.000000
     5   Atom        0.000000      0.000000      0.000000
     6   Atom        0.000000      0.000000      0.000000
 --------------------------------------------------------


 ---------------------------------------------------------------------------------
              Anisotropic Spin Dipole Couplings in Principal Axis System
 ---------------------------------------------------------------------------------

       Atom             a.u.   MegaHertz   Gauss  10(-4) cm-1        Axes

              Baa     0.0000     0.000     0.000     0.000  1.0000  0.0000  0.0000
     1 C(13)  Bbb     0.0000     0.000     0.000     0.000 -0.0000  1.0000  0.0000
              Bcc     0.0000     0.000     0.000     0.000  0.0000  0.0000  1.0000
 
              Baa     0.0000     0.000     0.000     0.000  1.0000  0.0000  0.0000
     2 C(13)  Bbb     0.0000     0.000     0.000     0.000 -0.0000  1.0000  0.0000
              Bcc     0.0000     0.000     0.000     0.000  0.0000  0.0000  1.0000
 
              Baa     0.0000     0.000     0.000     0.000  1.0000  0.0000  0.0000
     3 C(13)  Bbb     0.0000     0.000     0.000     0.000 -0.0000  1.0000  0.0000
              Bcc     0.0000     0.000     0.000     0.000  0.0000  0.0000  1.0000
 
              Baa     0.0000     0.000     0.000     0.000  1.0000  0.0000  0.0000
     4 C(13)  Bbb     0.0000     0.000     0.000     0.000 -0.0000  1.0000  0.0000
              Bcc     0.0000     0.000     0.000     0.000  0.0000  0.0000  1.0000
 
              Baa     0.0000     0.000     0.000     0.000  1.0000  0.0000  0.0000
     5 C(13)  Bbb     0.0000     0.000     0.000     0.000 -0.0000  1.0000  0.0000
              Bcc     0.0000     0.000     0.000     0.000  0.0000  0.0000  1.0000
 
              Baa     0.0000    -0.000    -0.000    -0.000  1.0000  0.0000  0.0000
     6 O(17)  Bbb     0.0000    -0.000    -0.000    -0.000 -0.0000  1.0000  0.0000
              Bcc     0.0000    -0.000    -0.000    -0.000  0.0000  0.0000  1.0000
 

 ---------------------------------------------------------------------------------

 No NMR shielding tensors so no spin-rotation constants.
 Leave Link  601 at Mon Oct 12 17:20:36 2020, MaxMem=  1073741824 cpu:               5.5 elap:               0.3
 (Enter /home/spantaleone/g16/l701.exe)
 ... and contract with generalized density number  0.
 Compute integral first derivatives.
 Leave Link  701 at Mon Oct 12 17:20:36 2020, MaxMem=  1073741824 cpu:               5.7 elap:               0.3
 (Enter /home/spantaleone/g16/l702.exe)
 L702 exits ... SP integral derivatives will be done elsewhere.
 Leave Link  702 at Mon Oct 12 17:20:36 2020, MaxMem=  1073741824 cpu:               0.7 elap:               0.0
 (Enter /home/spantaleone/g16/l703.exe)
 Integral derivatives from FoFJK, PRISM(SPDF).
 Compute integral first derivatives, UseDBF=F ICtDFT=           0.
 Calling FoFJK, ICntrl=      2127 FMM=F ISym2X=0 I1Cent= 0 IOpClX= 1 NMat=1 NMatS=1 NMatT=0.
 FoFJK:  IHMeth= 1 ICntrl=    2127 DoSepK=F KAlg= 0 I1Cent=           0 FoldK=F
 IRaf=         0 NMat=       1 IRICut=       1 DoRegI=T DoRafI=F ISym2E= 0 IDoP0=0 IntGTp=1.
 FoFCou: FMM=F IPFlag=           0 FMFlag=      100000 FMFlg1=         800
         NFxFlg=           0 DoJE=F BraDBF=F KetDBF=F FulRan=T
         wScrn=  0.000000 ICntrl=      2127 IOpCl=  1 I1Cent=           0 NGrid=           0
         NMat0=    1 NMatS0=      1 NMatT0=    0 NMatD0=    1 NMtDS0=    0 NMtDT0=    0
 Symmetry not used in FoFCou.
 Leave Link  703 at Mon Oct 12 17:20:39 2020, MaxMem=  1073741824 cpu:              49.7 elap:               2.1
 (Enter /home/spantaleone/g16/l716.exe)
 Dipole        =-1.41279148D-04-1.05186725D-14 9.60060421D-01
 -------------------------------------------------------------------
 Center     Atomic                   Forces (Hartrees/Bohr)
 Number     Number              X              Y              Z
 -------------------------------------------------------------------
      1        6          -0.000004256    0.000000000    0.040585420
      2        6          -0.000020062   -0.000000000   -0.048033646
      3        6           0.000069041   -0.000000000    0.038876281
      4        6          -0.000062327    0.000000000   -0.028597809
      5        6           0.000205887    0.000000000    0.085280020
      6        8          -0.000188283   -0.000000000   -0.088110267
 -------------------------------------------------------------------
 Cartesian Forces:  Max     0.088110267 RMS     0.034415593
 Leave Link  716 at Mon Oct 12 17:20:39 2020, MaxMem=  1073741824 cpu:               0.9 elap:               0.1
 (Enter /home/spantaleone/g16/l103.exe)

 GradGradGradGradGradGradGradGradGradGradGradGradGradGradGradGradGradGrad
 Berny optimization.
 FormGI is forming the generalized inverse of G from B-inverse, IUseBI=4.
 Internal  Forces:  Max     0.088110468 RMS     0.028368247
 Search for a local minimum.
 Step number   1 out of a maximum of  100
 All quantities printed in internal units (Hartrees-Bohrs-Radians)
 RMS Force = .28368D-01 SwitMx=.10000D-02 MixMth= 1
 Mixed Optimization -- RFO/linear search
 Second derivative matrix not updated -- first step.
 The second derivative matrix:
                          R1        R2        R3        R4        R5
           R1           0.65772
           R2           0.00000   0.72580
           R3           0.00000   0.00000   0.72592
           R4           0.00000   0.00000   0.00000   0.72586
           R5           0.00000   0.00000   0.00000   0.00000   1.06730
           A1           0.00000   0.00000   0.00000   0.00000   0.00000
           A2           0.00000   0.00000   0.00000   0.00000   0.00000
           A3           0.00000   0.00000   0.00000   0.00000   0.00000
           A4           0.00000   0.00000   0.00000   0.00000   0.00000
           A5           0.00000   0.00000   0.00000   0.00000   0.00000
           A6           0.00000   0.00000   0.00000   0.00000   0.00000
           A7           0.00000   0.00000   0.00000   0.00000   0.00000
           A8           0.00000   0.00000   0.00000   0.00000   0.00000
                          A1        A2        A3        A4        A5
           A1           0.03655
           A2           0.00000   0.03656
           A3           0.00000   0.00000   0.03655
           A4           0.00000   0.00000   0.00000   0.04387
           A5           0.00000   0.00000   0.00000   0.00000   0.03655
           A6           0.00000   0.00000   0.00000   0.00000   0.00000
           A7           0.00000   0.00000   0.00000   0.00000   0.00000
           A8           0.00000   0.00000   0.00000   0.00000   0.00000
                          A6        A7        A8
           A6           0.03656
           A7           0.00000   0.03655
           A8           0.00000   0.00000   0.04387
 ITU=  0
     Eigenvalues ---    0.03655   0.03655   0.03655   0.03656   0.03656
     Eigenvalues ---    0.04316   0.04387   0.65772   0.72580   0.72586
     Eigenvalues ---    0.72592   1.06730
 RFO step:  Lambda=-1.10883636D-02 EMin= 3.65522539D-02
 Linear search not attempted -- first point.
 Iteration  1 RMS(Cart)=  0.03706519 RMS(Int)=  0.00000532
 Iteration  2 RMS(Cart)=  0.00000651 RMS(Int)=  0.00000000
 Iteration  3 RMS(Cart)=  0.00000000 RMS(Int)=  0.00000001
 ITry= 1 IFail=0 DXMaxC= 9.87D-02 DCOld= 1.00D+10 DXMaxT= 3.00D-01 DXLimC= 3.00D+00 Rises=F
 Variable       Old X    -DE/DX   Delta X   Delta X   Delta X     New X
                                 (Linear)    (Quad)   (Total)
    R1        2.46645  -0.04059   0.00000  -0.06068  -0.06068   2.40577
    R2        2.42184   0.00745   0.00000   0.01011   0.01011   2.43194
    R3        2.42176  -0.03143   0.00000  -0.04264  -0.04264   2.37912
    R4        2.42180  -0.00283   0.00000  -0.00384  -0.00384   2.41796
    R5        2.26058  -0.08811   0.00000  -0.08171  -0.08171   2.17888
    A1        3.14115  -0.00001   0.00000  -0.00031  -0.00031   3.14083
    A2        3.14115   0.00003   0.00000   0.00031   0.00031   3.14145
    A3        3.14115  -0.00001   0.00000  -0.00053  -0.00053   3.14061
    A4        3.14115   0.00005   0.00000   0.00086   0.00086   3.14201
    A5        3.14159   0.00000   0.00000   0.00000   0.00000   3.14159
    A6        3.14159   0.00000   0.00000   0.00000   0.00000   3.14159
    A7        3.14159   0.00000   0.00000   0.00000   0.00000   3.14159
    A8        3.14159  -0.00000   0.00000  -0.00000  -0.00000   3.14159
         Item               Value     Threshold  Converged?
 Maximum Force            0.088110     0.000450     NO 
 RMS     Force            0.028368     0.000300     NO 
 Maximum Displacement     0.098714     0.001800     NO 
 RMS     Displacement     0.037065     0.001200     NO 
 Predicted change in Energy=-5.612346D-03
 Lowest energy point so far.  Saving SCF results.
 GradGradGradGradGradGradGradGradGradGradGradGradGradGradGradGradGradGrad

 Leave Link  103 at Mon Oct 12 17:20:39 2020, MaxMem=  1073741824 cpu:               0.8 elap:               0.0
 (Enter /home/spantaleone/g16/l202.exe)
                          Input orientation:                          
 ---------------------------------------------------------------------
 Center     Atomic      Atomic             Coordinates (Angstroms)
 Number     Number       Type             X           Y           Z
 ---------------------------------------------------------------------
      1          6           0        0.000080    0.000000    0.042361
      2          6           0       -0.000120   -0.000000    1.315439
      3          6           0        0.000655    0.000000    2.602367
      4          6           0        0.001591   -0.000000    3.861341
      5          6           0        0.003797    0.000000    5.140867
      6          8           0        0.005305   -0.000000    6.293879
 ---------------------------------------------------------------------
                    Distance matrix (angstroms):
                    1          2          3          4          5
     1  C    0.000000
     2  C    1.273078   0.000000
     3  C    2.560006   1.286929   0.000000
     4  C    3.818981   2.545903   1.258974   0.000000
     5  C    5.098508   3.825430   2.538502   1.279528   0.000000
     6  O    6.251521   4.978444   3.691515   2.432541   1.153013
                    6
     6  O    0.000000
 Symmetry turned off by external request.
 Stoichiometry    C5O
 Framework group  CS[SG(C5O)]
 Deg. of freedom     9
 Full point group                 CS      NOp   2
 Rotational constants (GHZ):    14026169.8487850           1.3737814           1.3737813
 Leave Link  202 at Mon Oct 12 17:20:39 2020, MaxMem=  1073741824 cpu:               0.1 elap:               0.0
 (Enter /home/spantaleone/g16/l301.exe)
 Standard basis: CC-pVTZ (5D, 7F)
 Ernie: Thresh=  0.10000D-02 Tol=  0.10000D-05 Strict=F.
 Ernie:  18 primitive shells out of 156 were deleted.
   180 basis functions,   312 primitive gaussians,   210 cartesian basis functions
    19 alpha electrons       19 beta electrons
       nuclear repulsion energy       144.4384939485 Hartrees.
 IExCor= 4336 DFT=T Ex+Corr=M062X ExCW=0 ScaHFX=  0.540000
 ScaDFX=  1.000000  1.000000  1.000000  1.000000 ScalE2=  1.000000  1.000000
 IRadAn=      5 IRanWt=     -1 IRanGd=            0 ICorTp=0 IEmpDi=  4
 NAtoms=    6 NActive=    6 NUniq=    6 SFac= 1.00D+00 NAtFMM=   60 NAOKFM=F Big=F
 Integral buffers will be    131072 words long.
 Raffenetti 2 integral format.
 Two-electron integral symmetry is turned off.
 Leave Link  301 at Mon Oct 12 17:20:39 2020, MaxMem=  1073741824 cpu:               1.0 elap:               0.0
 (Enter /home/spantaleone/g16/l302.exe)
 NPDir=0 NMtPBC=     1 NCelOv=     1 NCel=       1 NClECP=     1 NCelD=      1
         NCelK=      1 NCelE2=     1 NClLst=     1 CellRange=     0.0.
 One-electron integrals computed using PRISM.
 NBasis=   180 RedAO= T EigKep=  1.70D-05  NBF=   180
 NBsUse=   180 1.00D-06 EigRej= -1.00D+00 NBFU=   180
 Precomputing XC quadrature grid using
 IXCGrd= 4 IRadAn=           5 IRanWt=          -1 IRanGd=           0 AccXCQ= 0.00D+00.
 Generated NRdTot=       0 NPtTot=           0 NUsed=           0 NTot=          32
 NSgBfM=   210   210   210   210   210 MxSgAt=     6 MxSgA2=     6.
 Leave Link  302 at Mon Oct 12 17:20:39 2020, MaxMem=  1073741824 cpu:               5.6 elap:               0.2
 (Enter /home/spantaleone/g16/l303.exe)
 DipDrv:  MaxL=1.
 Leave Link  303 at Mon Oct 12 17:20:39 2020, MaxMem=  1073741824 cpu:               1.1 elap:               0.1
 (Enter /home/spantaleone/g16/l401.exe)
 Initial guess from the checkpoint file:  "input.chk"
 B after Tr=     0.000016   -0.000000   -0.005195
         Rot=    1.000000    0.000000    0.000003    0.000000 Ang=   0.00 deg.
 Guess basis will be translated and rotated to current coordinates.
 JPrj=2 DoOrth=T DoCkMO=T.
 Initial guess <Sx>= 0.0000 <Sy>= 0.0000 <Sz>= 0.0000 <S**2>=-0.0000 S=-0.0000
 Generating alternative initial guess.
 ExpMin= 1.21D-01 ExpMax= 1.53D+04 ExpMxC= 5.22D+02 IAcc=3 IRadAn=         5 AccDes= 0.00D+00
 Harris functional with IExCor= 1009 and IRadAn=       5 diagonalized for initial guess.
 HarFok:  IExCor= 1009 AccDes= 0.00D+00 IRadAn=         5 IDoV= 1 UseB2=F ITyADJ=14
 ICtDFT=  3500011 ScaDFX=  1.000000  1.000000  1.000000  1.000000
 FoFCou: FMM=F IPFlag=           0 FMFlag=      100000 FMFlg1=           0
         NFxFlg=           0 DoJE=T BraDBF=F KetDBF=T FulRan=T
         wScrn=  0.000000 ICntrl=       500 IOpCl=  0 I1Cent=   200000004 NGrid=           0
         NMat0=    1 NMatS0=      1 NMatT0=    0 NMatD0=    1 NMtDS0=    0 NMtDT0=    0
 Symmetry not used in FoFCou.
 Harris En= -265.408656830968    
 Leave Link  401 at Mon Oct 12 17:20:40 2020, MaxMem=  1073741824 cpu:              13.6 elap:               0.6
 (Enter /home/spantaleone/g16/l502.exe)
 Keep R1 and R2 ints in memory in canonical form, NReq=290322694.
 FoFCou: FMM=F IPFlag=           0 FMFlag=           0 FMFlg1=           0
         NFxFlg=           0 DoJE=F BraDBF=F KetDBF=F FulRan=T
         wScrn=  0.000000 ICntrl=       600 IOpCl=  0 I1Cent=           0 NGrid=           0
         NMat0=    1 NMatS0=  16290 NMatT0=    0 NMatD0=    1 NMtDS0=    0 NMtDT0=    0
 Symmetry not used in FoFCou.
 Two-electron integral symmetry not used.
 UHF open shell SCF:
 Using DIIS extrapolation, IDIIS=  1040.
 NGot=  1073741824 LenX=   808266816 LenY=   808222275
 Requested convergence on RMS density matrix=1.00D-08 within  32 cycles.
 Requested convergence on MAX density matrix=1.00D-06.
 Requested convergence on             energy=1.00D-06.
 No special actions if energy rises.
 Integral accuracy reduced to 1.0D-05 until final iterations.

 Cycle   1  Pass 0  IDiag  1:
 E= -265.521323724559    
 DIIS: error= 4.12D-03 at cycle   1 NSaved=   1.
 NSaved= 1 IEnMin= 1 EnMin= -265.521323724559     IErMin= 1 ErrMin= 4.12D-03
 ErrMax= 4.12D-03  0.00D+00 EMaxC= 1.00D-01 BMatC= 1.17D-02 BMatP= 1.17D-02
 IDIUse=3 WtCom= 9.59D-01 WtEn= 4.12D-02
 Coeff-Com:  0.100D+01
 Coeff-En:   0.100D+01
 Coeff:      0.100D+01
 Gap=     1.302 Goal=   None    Shift=    0.000
 Gap=     1.302 Goal=   None    Shift=    0.000
 GapD=    1.302 DampG=2.000 DampE=1.000 DampFc=2.0000 IDamp=-1.
 RMSDP=2.03D-03 MaxDP=1.06D-01              OVMax= 1.86D-02

 Cycle   2  Pass 0  IDiag  1:
 E= -265.523278446291     Delta-E=       -0.001954721732 Rises=F Damp=F
 DIIS: error= 3.01D-03 at cycle   2 NSaved=   2.
 NSaved= 2 IEnMin= 2 EnMin= -265.523278446291     IErMin= 2 ErrMin= 3.01D-03
 ErrMax= 3.01D-03  0.00D+00 EMaxC= 1.00D-01 BMatC= 2.98D-03 BMatP= 1.17D-02
 IDIUse=3 WtCom= 9.70D-01 WtEn= 3.01D-02
 Coeff-Com:  0.274D+00 0.726D+00
 Coeff-En:   0.000D+00 0.100D+01
 Coeff:      0.266D+00 0.734D+00
 Gap=     0.234 Goal=   None    Shift=    0.000
 Gap=     0.234 Goal=   None    Shift=    0.000
 RMSDP=1.58D-03 MaxDP=7.79D-02 DE=-1.95D-03 OVMax= 1.71D-02

 Cycle   3  Pass 0  IDiag  1:
 E= -265.523260139015     Delta-E=        0.000018307277 Rises=F Damp=F
 DIIS: error= 3.58D-03 at cycle   3 NSaved=   3.
 NSaved= 3 IEnMin= 2 EnMin= -265.523278446291     IErMin= 2 ErrMin= 3.01D-03
 ErrMax= 3.58D-03  0.00D+00 EMaxC= 1.00D-01 BMatC= 2.49D-03 BMatP= 2.98D-03
 IDIUse=3 WtCom= 9.64D-01 WtEn= 3.58D-02
 Coeff-Com:  0.598D-01 0.468D+00 0.472D+00
 Coeff-En:   0.000D+00 0.506D+00 0.494D+00
 Coeff:      0.577D-01 0.470D+00 0.473D+00
 Gap=     0.235 Goal=   None    Shift=    0.000
 Gap=     0.235 Goal=   None    Shift=    0.000
 RMSDP=4.30D-04 MaxDP=2.07D-02 DE= 1.83D-05 OVMax= 1.25D-02

 Cycle   4  Pass 0  IDiag  1:
 E= -265.523869725730     Delta-E=       -0.000609586715 Rises=F Damp=F
 DIIS: error= 8.83D-04 at cycle   4 NSaved=   4.
 NSaved= 4 IEnMin= 4 EnMin= -265.523869725730     IErMin= 4 ErrMin= 8.83D-04
 ErrMax= 8.83D-04  0.00D+00 EMaxC= 1.00D-01 BMatC= 1.60D-04 BMatP= 2.49D-03
 IDIUse=3 WtCom= 9.91D-01 WtEn= 8.83D-03
 Coeff-Com: -0.168D-01 0.808D-01 0.228D+00 0.708D+00
 Coeff-En:   0.000D+00 0.000D+00 0.462D-01 0.954D+00
 Coeff:     -0.166D-01 0.801D-01 0.227D+00 0.710D+00
 Gap=     0.235 Goal=   None    Shift=    0.000
 Gap=     0.235 Goal=   None    Shift=    0.000
 RMSDP=3.06D-04 MaxDP=1.54D-02 DE=-6.10D-04 OVMax= 3.70D-03

 Cycle   5  Pass 0  IDiag  1:
 E= -265.523911892574     Delta-E=       -0.000042166844 Rises=F Damp=F
 DIIS: error= 2.36D-04 at cycle   5 NSaved=   5.
 NSaved= 5 IEnMin= 5 EnMin= -265.523911892574     IErMin= 5 ErrMin= 2.36D-04
 ErrMax= 2.36D-04  0.00D+00 EMaxC= 1.00D-01 BMatC= 2.74D-05 BMatP= 1.60D-04
 IDIUse=3 WtCom= 9.98D-01 WtEn= 2.36D-03
 Coeff-Com: -0.114D-01 0.188D-02 0.806D-01 0.396D+00 0.533D+00
 Coeff-En:   0.000D+00 0.000D+00 0.000D+00 0.802D-01 0.920D+00
 Coeff:     -0.114D-01 0.188D-02 0.804D-01 0.396D+00 0.533D+00
 Gap=     0.235 Goal=   None    Shift=    0.000
 Gap=     0.235 Goal=   None    Shift=    0.000
 RMSDP=3.51D-05 MaxDP=1.64D-03 DE=-4.22D-05 OVMax= 1.36D-03

 Cycle   6  Pass 0  IDiag  1:
 E= -265.523918281686     Delta-E=       -0.000006389112 Rises=F Damp=F
 DIIS: error= 7.13D-05 at cycle   6 NSaved=   6.
 NSaved= 6 IEnMin= 6 EnMin= -265.523918281686     IErMin= 6 ErrMin= 7.13D-05
 ErrMax= 7.13D-05  0.00D+00 EMaxC= 1.00D-01 BMatC= 3.24D-06 BMatP= 2.74D-05
 IDIUse=1 WtCom= 1.00D+00 WtEn= 0.00D+00
 Coeff-Com: -0.271D-02-0.134D-01-0.703D-02 0.505D-01 0.281D+00 0.692D+00
 Coeff:     -0.271D-02-0.134D-01-0.703D-02 0.505D-01 0.281D+00 0.692D+00
 Gap=     0.235 Goal=   None    Shift=    0.000
 Gap=     0.235 Goal=   None    Shift=    0.000
 RMSDP=4.89D-05 MaxDP=2.45D-03 DE=-6.39D-06 OVMax= 3.80D-04

 Cycle   7  Pass 0  IDiag  1:
 E= -265.523918967830     Delta-E=       -0.000000686144 Rises=F Damp=F
 DIIS: error= 2.19D-05 at cycle   7 NSaved=   7.
 NSaved= 7 IEnMin= 7 EnMin= -265.523918967830     IErMin= 7 ErrMin= 2.19D-05
 ErrMax= 2.19D-05  0.00D+00 EMaxC= 1.00D-01 BMatC= 3.02D-07 BMatP= 3.24D-06
 IDIUse=1 WtCom= 1.00D+00 WtEn= 0.00D+00
 Coeff-Com:  0.259D-03-0.760D-02-0.134D-01-0.153D-01 0.961D-01 0.344D+00
 Coeff-Com:  0.596D+00
 Coeff:      0.259D-03-0.760D-02-0.134D-01-0.153D-01 0.961D-01 0.344D+00
 Coeff:      0.596D+00
 Gap=     0.235 Goal=   None    Shift=    0.000
 Gap=     0.235 Goal=   None    Shift=    0.000
 RMSDP=2.28D-06 MaxDP=8.10D-05 DE=-6.86D-07 OVMax= 1.55D-04

 Initial convergence to 1.0D-05 achieved.  Increase integral accuracy.
 Cycle   8  Pass 1  IDiag  1:
 E= -265.523889060748     Delta-E=        0.000029907082 Rises=F Damp=F
 DIIS: error= 1.49D-05 at cycle   1 NSaved=   1.
 NSaved= 1 IEnMin= 1 EnMin= -265.523889060748     IErMin= 1 ErrMin= 1.49D-05
 ErrMax= 1.49D-05  0.00D+00 EMaxC= 1.00D-01 BMatC= 1.50D-07 BMatP= 1.50D-07
 IDIUse=1 WtCom= 1.00D+00 WtEn= 0.00D+00
 Coeff-Com:  0.100D+01
 Coeff:      0.100D+01
 Gap=     0.235 Goal=   None    Shift=    0.000
 Gap=     0.235 Goal=   None    Shift=    0.000
 RMSDP=2.28D-06 MaxDP=8.10D-05 DE= 2.99D-05 OVMax= 1.02D-04

 Cycle   9  Pass 1  IDiag  1:
 E= -265.523889048711     Delta-E=        0.000000012037 Rises=F Damp=F
 DIIS: error= 1.84D-05 at cycle   2 NSaved=   2.
 NSaved= 2 IEnMin= 1 EnMin= -265.523889060748     IErMin= 1 ErrMin= 1.49D-05
 ErrMax= 1.84D-05  0.00D+00 EMaxC= 1.00D-01 BMatC= 1.35D-07 BMatP= 1.50D-07
 IDIUse=1 WtCom= 1.00D+00 WtEn= 0.00D+00
 Coeff-Com:  0.482D+00 0.518D+00
 Coeff:      0.482D+00 0.518D+00
 Gap=     0.235 Goal=   None    Shift=    0.000
 Gap=     0.235 Goal=   None    Shift=    0.000
 RMSDP=2.04D-06 MaxDP=8.74D-05 DE= 1.20D-08 OVMax= 1.12D-04

 Cycle  10  Pass 1  IDiag  1:
 E= -265.523889076140     Delta-E=       -0.000000027428 Rises=F Damp=F
 DIIS: error= 1.02D-05 at cycle   3 NSaved=   3.
 NSaved= 3 IEnMin= 3 EnMin= -265.523889076140     IErMin= 3 ErrMin= 1.02D-05
 ErrMax= 1.02D-05  0.00D+00 EMaxC= 1.00D-01 BMatC= 3.77D-08 BMatP= 1.35D-07
 IDIUse=1 WtCom= 1.00D+00 WtEn= 0.00D+00
 Coeff-Com: -0.233D-01 0.344D+00 0.680D+00
 Coeff:     -0.233D-01 0.344D+00 0.680D+00
 Gap=     0.235 Goal=   None    Shift=    0.000
 Gap=     0.235 Goal=   None    Shift=    0.000
 RMSDP=1.08D-06 MaxDP=4.96D-05 DE=-2.74D-08 OVMax= 3.86D-05

 Cycle  11  Pass 1  IDiag  1:
 E= -265.523889086027     Delta-E=       -0.000000009888 Rises=F Damp=F
 DIIS: error= 1.43D-06 at cycle   4 NSaved=   4.
 NSaved= 4 IEnMin= 4 EnMin= -265.523889086027     IErMin= 4 ErrMin= 1.43D-06
 ErrMax= 1.43D-06  0.00D+00 EMaxC= 1.00D-01 BMatC= 8.56D-10 BMatP= 3.77D-08
 IDIUse=1 WtCom= 1.00D+00 WtEn= 0.00D+00
 Coeff-Com: -0.218D-01 0.159D+00 0.322D+00 0.541D+00
 Coeff:     -0.218D-01 0.159D+00 0.322D+00 0.541D+00
 Gap=     0.235 Goal=   None    Shift=    0.000
 Gap=     0.235 Goal=   None    Shift=    0.000
 RMSDP=3.31D-07 MaxDP=1.58D-05 DE=-9.89D-09 OVMax= 6.42D-06

 Cycle  12  Pass 1  IDiag  1:
 E= -265.523889086188     Delta-E=       -0.000000000160 Rises=F Damp=F
 DIIS: error= 6.93D-07 at cycle   5 NSaved=   5.
 NSaved= 5 IEnMin= 5 EnMin= -265.523889086188     IErMin= 5 ErrMin= 6.93D-07
 ErrMax= 6.93D-07  0.00D+00 EMaxC= 1.00D-01 BMatC= 1.48D-10 BMatP= 8.56D-10
 IDIUse=1 WtCom= 1.00D+00 WtEn= 0.00D+00
 Coeff-Com: -0.695D-02 0.253D-01 0.466D-01 0.292D+00 0.643D+00
 Coeff:     -0.695D-02 0.253D-01 0.466D-01 0.292D+00 0.643D+00
 Gap=     0.235 Goal=   None    Shift=    0.000
 Gap=     0.235 Goal=   None    Shift=    0.000
 RMSDP=2.21D-07 MaxDP=1.09D-05 DE=-1.60D-10 OVMax= 3.82D-06

 Cycle  13  Pass 1  IDiag  1:
 E= -265.523889086220     Delta-E=       -0.000000000033 Rises=F Damp=F
 DIIS: error= 3.87D-07 at cycle   6 NSaved=   6.
 NSaved= 6 IEnMin= 6 EnMin= -265.523889086220     IErMin= 6 ErrMin= 3.87D-07
 ErrMax= 3.87D-07  0.00D+00 EMaxC= 1.00D-01 BMatC= 3.71D-11 BMatP= 1.48D-10
 IDIUse=1 WtCom= 1.00D+00 WtEn= 0.00D+00
 Coeff-Com: -0.990D-03-0.854D-02-0.227D-01 0.102D+00 0.404D+00 0.526D+00
 Coeff:     -0.990D-03-0.854D-02-0.227D-01 0.102D+00 0.404D+00 0.526D+00
 Gap=     0.235 Goal=   None    Shift=    0.000
 Gap=     0.235 Goal=   None    Shift=    0.000
 RMSDP=8.88D-08 MaxDP=4.44D-06 DE=-3.26D-11 OVMax= 1.63D-06

 Cycle  14  Pass 1  IDiag  1:
 E= -265.523889086231     Delta-E=       -0.000000000011 Rises=F Damp=F
 DIIS: error= 8.97D-08 at cycle   7 NSaved=   7.
 NSaved= 7 IEnMin= 7 EnMin= -265.523889086231     IErMin= 7 ErrMin= 8.97D-08
 ErrMax= 8.97D-08  0.00D+00 EMaxC= 1.00D-01 BMatC= 2.34D-12 BMatP= 3.71D-11
 IDIUse=1 WtCom= 1.00D+00 WtEn= 0.00D+00
 Coeff-Com:  0.441D-03-0.638D-02-0.161D-01 0.103D-01 0.927D-01 0.240D+00
 Coeff-Com:  0.679D+00
 Coeff:      0.441D-03-0.638D-02-0.161D-01 0.103D-01 0.927D-01 0.240D+00
 Coeff:      0.679D+00
 Gap=     0.235 Goal=   None    Shift=    0.000
 Gap=     0.235 Goal=   None    Shift=    0.000
 RMSDP=2.29D-08 MaxDP=1.11D-06 DE=-1.09D-11 OVMax= 3.78D-07

 Cycle  15  Pass 1  IDiag  1:
 E= -265.523889086231     Delta-E=        0.000000000000 Rises=F Damp=F
 DIIS: error= 3.61D-08 at cycle   8 NSaved=   8.
 NSaved= 8 IEnMin= 7 EnMin= -265.523889086231     IErMin= 8 ErrMin= 3.61D-08
 ErrMax= 3.61D-08  0.00D+00 EMaxC= 1.00D-01 BMatC= 6.19D-13 BMatP= 2.34D-12
 IDIUse=1 WtCom= 1.00D+00 WtEn= 0.00D+00
 Coeff-Com:  0.310D-03-0.269D-02-0.670D-02-0.952D-02-0.667D-02 0.712D-01
 Coeff-Com:  0.423D+00 0.531D+00
 Coeff:      0.310D-03-0.269D-02-0.670D-02-0.952D-02-0.667D-02 0.712D-01
 Coeff:      0.423D+00 0.531D+00
 Gap=     0.235 Goal=   None    Shift=    0.000
 Gap=     0.235 Goal=   None    Shift=    0.000
 RMSDP=2.58D-09 MaxDP=7.80D-08 DE= 4.55D-13 OVMax= 9.54D-08

 SCF Done:  E(UM062X) =  -265.523889086     A.U. after   15 cycles
            NFock= 15  Conv=0.26D-08     -V/T= 2.0053
 <Sx>= 0.0000 <Sy>= 0.0000 <Sz>= 0.0000 <S**2>=-0.0000 S=-0.0000
 <L.S>= 0.000000000000E+00
 KE= 2.641355982313D+02 PE=-9.068575682207D+02 EE= 2.327595869546D+02
 Annihilation of the first spin contaminant:
 S**2 before annihilation    -0.0000,   after     0.0000
 Leave Link  502 at Mon Oct 12 17:20:51 2020, MaxMem=  1073741824 cpu:             194.4 elap:              11.0
 (Enter /home/spantaleone/g16/l508.exe)
 QCSCF skips out because SCF is already converged.
 Leave Link  508 at Mon Oct 12 17:20:51 2020, MaxMem=  1073741824 cpu:               0.2 elap:               0.0
 (Enter /home/spantaleone/g16/l701.exe)
 ... and contract with generalized density number  0.
 Compute integral first derivatives.
 Leave Link  701 at Mon Oct 12 17:20:51 2020, MaxMem=  1073741824 cpu:               5.7 elap:               0.2
 (Enter /home/spantaleone/g16/l702.exe)
 L702 exits ... SP integral derivatives will be done elsewhere.
 Leave Link  702 at Mon Oct 12 17:20:51 2020, MaxMem=  1073741824 cpu:               0.7 elap:               0.0
 (Enter /home/spantaleone/g16/l703.exe)
 Integral derivatives from FoFJK, PRISM(SPDF).
 Compute integral first derivatives, UseDBF=F ICtDFT=           0.
 Calling FoFJK, ICntrl=      2127 FMM=F ISym2X=0 I1Cent= 0 IOpClX= 1 NMat=1 NMatS=1 NMatT=0.
 FoFJK:  IHMeth= 1 ICntrl=    2127 DoSepK=F KAlg= 0 I1Cent=           0 FoldK=F
 IRaf=         0 NMat=       1 IRICut=       1 DoRegI=T DoRafI=F ISym2E= 0 IDoP0=0 IntGTp=1.
 FoFCou: FMM=F IPFlag=           0 FMFlag=      100000 FMFlg1=         800
         NFxFlg=           0 DoJE=F BraDBF=F KetDBF=F FulRan=T
         wScrn=  0.000000 ICntrl=      2127 IOpCl=  1 I1Cent=           0 NGrid=           0
         NMat0=    1 NMatS0=      1 NMatT0=    0 NMatD0=    1 NMtDS0=    0 NMtDT0=    0
 Symmetry not used in FoFCou.
 Leave Link  703 at Mon Oct 12 17:20:54 2020, MaxMem=  1073741824 cpu:              50.9 elap:               2.1
 (Enter /home/spantaleone/g16/l716.exe)
 Dipole        = 7.42633655D-04 2.87594134D-10 1.39593646D+00
 -------------------------------------------------------------------
 Center     Atomic                   Forces (Hartrees/Bohr)
 Number     Number              X              Y              Z
 -------------------------------------------------------------------
      1        6          -0.000007630   -0.000000000    0.002167829
      2        6          -0.000002952    0.000000000   -0.008368832
      3        6           0.000021837   -0.000000000    0.009924779
      4        6          -0.000000026    0.000000000   -0.012540261
      5        6          -0.000017701   -0.000000000    0.022284515
      6        8           0.000006472    0.000000000   -0.013468030
 -------------------------------------------------------------------
 Cartesian Forces:  Max     0.022284515 RMS     0.007485113
 Leave Link  716 at Mon Oct 12 17:20:54 2020, MaxMem=  1073741824 cpu:               0.7 elap:               0.0
 (Enter /home/spantaleone/g16/l103.exe)

 GradGradGradGradGradGradGradGradGradGradGradGradGradGradGradGradGradGrad
 Berny optimization.
 Using GEDIIS/GDIIS optimizer.
 FormGI is forming the generalized inverse of G from B-inverse, IUseBI=4.
 Internal  Forces:  Max     0.013468013 RMS     0.004931372
 Search for a local minimum.
 Step number   2 out of a maximum of  100
 All quantities printed in internal units (Hartrees-Bohrs-Radians)
 RMS Force = .49314D-02 SwitMx=.10000D-02 MixMth= 1
 Mixed Optimization -- RFO/linear search
 Update second derivatives using D2CorX and points    1    2
 DE= -6.47D-03 DEPred=-5.61D-03 R= 1.15D+00
 TightC=F SS=  1.41D+00  RLast= 1.11D-01 DXNew= 5.0454D-01 3.3265D-01
 Trust test= 1.15D+00 RLast= 1.11D-01 DXMaxT set to 3.33D-01
 The second derivative matrix:
                          R1        R2        R3        R4        R5
           R1           0.66491
           R2           0.02178   0.72104
           R3          -0.00273   0.01716   0.71781
           R4           0.03612   0.00036   0.02549   0.73918
           R5          -0.02122   0.04878  -0.03260   0.06771   0.94918
           A1           0.00004   0.00001   0.00002   0.00002   0.00006
           A2           0.00002  -0.00001   0.00002  -0.00000   0.00005
           A3          -0.00001   0.00001  -0.00001   0.00001  -0.00004
           A4          -0.00030  -0.00001  -0.00021  -0.00012  -0.00055
           A5          -0.00000   0.00000  -0.00000  -0.00000  -0.00000
           A6           0.00000  -0.00000   0.00000   0.00000   0.00000
           A7           0.00000  -0.00000   0.00000   0.00000   0.00000
           A8          -0.00000   0.00000  -0.00000  -0.00000  -0.00000
                          A1        A2        A3        A4        A5
           A1           0.03655
           A2           0.00000   0.03656
           A3           0.00000   0.00000   0.03655
           A4          -0.00000   0.00000  -0.00000   0.04387
           A5          -0.00000   0.00000  -0.00000   0.00000   0.03655
           A6           0.00000  -0.00000   0.00000  -0.00000  -0.00000
           A7           0.00000  -0.00000   0.00000  -0.00000  -0.00000
           A8          -0.00000   0.00000  -0.00000   0.00000  -0.00000
                          A6        A7        A8
           A6           0.03656
           A7           0.00000   0.03655
           A8           0.00000   0.00000   0.04387
 ITU=  1  0
 Use linear search instead of GDIIS.
     Eigenvalues ---    0.03655   0.03655   0.03655   0.03656   0.03656
     Eigenvalues ---    0.04319   0.04387   0.62666   0.69821   0.72582
     Eigenvalues ---    0.76186   0.97957
 RFO step:  Lambda=-2.23170426D-04 EMin= 3.65522539D-02
 Quartic linear search produced a step of  0.12738.
 Iteration  1 RMS(Cart)=  0.00400673 RMS(Int)=  0.00000191
 Iteration  2 RMS(Cart)=  0.00000416 RMS(Int)=  0.00000000
 Iteration  3 RMS(Cart)=  0.00000000 RMS(Int)=  0.00000001
 ITry= 1 IFail=0 DXMaxC= 1.14D-02 DCOld= 1.00D+10 DXMaxT= 3.33D-01 DXLimC= 3.00D+00 Rises=F
 Variable       Old X    -DE/DX   Delta X   Delta X   Delta X     New X
                                 (Linear)    (Quad)   (Total)
    R1        2.40577  -0.00217  -0.00773   0.00431  -0.00342   2.40235
    R2        2.43194   0.00620   0.00129   0.00832   0.00960   2.44155
    R3        2.37912  -0.00372  -0.00543  -0.00024  -0.00567   2.37344
    R4        2.41796   0.00882  -0.00049   0.01419   0.01370   2.43166
    R5        2.17888  -0.01347  -0.01041  -0.00421  -0.01462   2.16426
    A1        3.14083   0.00001  -0.00004   0.00047   0.00043   3.14126
    A2        3.14145   0.00002   0.00004   0.00041   0.00045   3.14190
    A3        3.14061   0.00000  -0.00007   0.00026   0.00019   3.14080
    A4        3.14201  -0.00006   0.00011  -0.00193  -0.00182   3.14019
    A5        3.14159  -0.00000   0.00000  -0.00000   0.00000   3.14159
    A6        3.14159   0.00000   0.00000   0.00000   0.00000   3.14159
    A7        3.14159   0.00000   0.00000   0.00000   0.00000   3.14159
    A8        3.14159   0.00000  -0.00000   0.00000  -0.00000   3.14159
         Item               Value     Threshold  Converged?
 Maximum Force            0.013468     0.000450     NO 
 RMS     Force            0.004931     0.000300     NO 
 Maximum Displacement     0.011366     0.001800     NO 
 RMS     Displacement     0.004006     0.001200     NO 
 Predicted change in Energy=-2.158328D-04
 Lowest energy point so far.  Saving SCF results.
 GradGradGradGradGradGradGradGradGradGradGradGradGradGradGradGradGradGrad

 Leave Link  103 at Mon Oct 12 17:20:54 2020, MaxMem=  1073741824 cpu:               0.3 elap:               0.0
 (Enter /home/spantaleone/g16/l202.exe)
                          Input orientation:                          
 ---------------------------------------------------------------------
 Center     Atomic      Atomic             Coordinates (Angstroms)
 Number     Number       Type             X           Y           Z
 ---------------------------------------------------------------------
      1          6           0       -0.000209    0.000000    0.040853
      2          6           0        0.000202   -0.000000    1.312123
      3          6           0        0.001048   -0.000000    2.604133
      4          6           0        0.001479   -0.000000    3.860106
      5          6           0        0.002942    0.000000    5.146882
      6          8           0        0.005846   -0.000000    6.292157
 ---------------------------------------------------------------------
                    Distance matrix (angstroms):
                    1          2          3          4          5
     1  C    0.000000
     2  C    1.271270   0.000000
     3  C    2.563281   1.292011   0.000000
     4  C    3.819253   2.547983   1.255972   0.000000
     5  C    5.106030   3.834760   2.542749   1.286777   0.000000
     6  O    6.251307   4.980037   3.688027   2.432055   1.145279
                    6
     6  O    0.000000
 Symmetry turned off by external request.
 Stoichiometry    C5O
 Framework group  C1[X(C5O)]
 Deg. of freedom    12
 Full point group                 C1      NOp   1
 Rotational constants (GHZ):    10644745.9357060           1.3725425           1.3725423
 Leave Link  202 at Mon Oct 12 17:20:54 2020, MaxMem=  1073741824 cpu:               0.1 elap:               0.0
 (Enter /home/spantaleone/g16/l301.exe)
 Standard basis: CC-pVTZ (5D, 7F)
 Ernie: Thresh=  0.10000D-02 Tol=  0.10000D-05 Strict=F.
 Ernie:  18 primitive shells out of 156 were deleted.
   180 basis functions,   312 primitive gaussians,   210 cartesian basis functions
    19 alpha electrons       19 beta electrons
       nuclear repulsion energy       144.4635851589 Hartrees.
 IExCor= 4336 DFT=T Ex+Corr=M062X ExCW=0 ScaHFX=  0.540000
 ScaDFX=  1.000000  1.000000  1.000000  1.000000 ScalE2=  1.000000  1.000000
 IRadAn=      5 IRanWt=     -1 IRanGd=            0 ICorTp=0 IEmpDi=  4
 NAtoms=    6 NActive=    6 NUniq=    6 SFac= 1.00D+00 NAtFMM=   60 NAOKFM=F Big=F
 Integral buffers will be    131072 words long.
 Raffenetti 2 integral format.
 Two-electron integral symmetry is turned off.
 Leave Link  301 at Mon Oct 12 17:20:54 2020, MaxMem=  1073741824 cpu:               1.1 elap:               0.0
 (Enter /home/spantaleone/g16/l302.exe)
 NPDir=0 NMtPBC=     1 NCelOv=     1 NCel=       1 NClECP=     1 NCelD=      1
         NCelK=      1 NCelE2=     1 NClLst=     1 CellRange=     0.0.
 One-electron integrals computed using PRISM.
 NBasis=   180 RedAO= T EigKep=  1.70D-05  NBF=   180
 NBsUse=   180 1.00D-06 EigRej= -1.00D+00 NBFU=   180
 Precomputing XC quadrature grid using
 IXCGrd= 4 IRadAn=           5 IRanWt=          -1 IRanGd=           0 AccXCQ= 0.00D+00.
 Generated NRdTot=       0 NPtTot=           0 NUsed=           0 NTot=          32
 NSgBfM=   210   210   210   210   210 MxSgAt=     6 MxSgA2=     6.
 Leave Link  302 at Mon Oct 12 17:20:54 2020, MaxMem=  1073741824 cpu:               6.0 elap:               0.3
 (Enter /home/spantaleone/g16/l303.exe)
 DipDrv:  MaxL=1.
 Leave Link  303 at Mon Oct 12 17:20:54 2020, MaxMem=  1073741824 cpu:               0.9 elap:               0.0
 (Enter /home/spantaleone/g16/l401.exe)
 Initial guess from the checkpoint file:  "input.chk"
 B after Tr=    -0.000056    0.000000   -0.000171
         Rot=    1.000000   -0.000000   -0.000009   -0.000003 Ang=  -0.00 deg.
 Guess basis will be translated and rotated to current coordinates.
 JPrj=2 DoOrth=T DoCkMO=T.
 Initial guess <Sx>= 0.0000 <Sy>= 0.0000 <Sz>= 0.0000 <S**2>=-0.0000 S=-0.0000
 Leave Link  401 at Mon Oct 12 17:20:54 2020, MaxMem=  1073741824 cpu:               4.1 elap:               0.2
 (Enter /home/spantaleone/g16/l502.exe)
 Keep R1 and R2 ints in memory in canonical form, NReq=290322694.
 FoFCou: FMM=F IPFlag=           0 FMFlag=           0 FMFlg1=           0
         NFxFlg=           0 DoJE=F BraDBF=F KetDBF=F FulRan=T
         wScrn=  0.000000 ICntrl=       600 IOpCl=  0 I1Cent=           0 NGrid=           0
         NMat0=    1 NMatS0=  16290 NMatT0=    0 NMatD0=    1 NMtDS0=    0 NMtDT0=    0
 Symmetry not used in FoFCou.
 Two-electron integral symmetry not used.
 UHF open shell SCF:
 Using DIIS extrapolation, IDIIS=  1040.
 NGot=  1073741824 LenX=   808266816 LenY=   808222275
 Requested convergence on RMS density matrix=1.00D-08 within  32 cycles.
 Requested convergence on MAX density matrix=1.00D-06.
 Requested convergence on             energy=1.00D-06.
 No special actions if energy rises.

 Cycle   1  Pass 1  IDiag  1:
 E= -265.523934385115    
 DIIS: error= 1.43D-03 at cycle   1 NSaved=   1.
 NSaved= 1 IEnMin= 1 EnMin= -265.523934385115     IErMin= 1 ErrMin= 1.43D-03
 ErrMax= 1.43D-03  0.00D+00 EMaxC= 1.00D-01 BMatC= 7.18D-04 BMatP= 7.18D-04
 IDIUse=3 WtCom= 9.86D-01 WtEn= 1.43D-02
 Coeff-Com:  0.100D+01
 Coeff-En:   0.100D+01
 Coeff:      0.100D+01
 Gap=     1.291 Goal=   None    Shift=    0.000
 Gap=     1.291 Goal=   None    Shift=    0.000
 GapD=    1.291 DampG=2.000 DampE=1.000 DampFc=2.0000 IDamp=-1.
 RMSDP=2.96D-04 MaxDP=1.11D-02              OVMax= 5.08D-03

 Cycle   2  Pass 1  IDiag  1:
 E= -265.524032861426     Delta-E=       -0.000098476311 Rises=F Damp=F
 DIIS: error= 9.44D-04 at cycle   2 NSaved=   2.
 NSaved= 2 IEnMin= 2 EnMin= -265.524032861426     IErMin= 2 ErrMin= 9.44D-04
 ErrMax= 9.44D-04  0.00D+00 EMaxC= 1.00D-01 BMatC= 2.69D-04 BMatP= 7.18D-04
 IDIUse=3 WtCom= 9.91D-01 WtEn= 9.44D-03
 Coeff-Com:  0.329D+00 0.671D+00
 Coeff-En:   0.000D+00 0.100D+01
 Coeff:      0.326D+00 0.674D+00
 Gap=     0.235 Goal=   None    Shift=    0.000
 Gap=     0.235 Goal=   None    Shift=    0.000
 RMSDP=3.09D-04 MaxDP=1.56D-02 DE=-9.85D-05 OVMax= 4.75D-03

 Cycle   3  Pass 1  IDiag  1:
 E= -265.524039995425     Delta-E=       -0.000007133999 Rises=F Damp=F
 DIIS: error= 9.50D-04 at cycle   3 NSaved=   3.
 NSaved= 3 IEnMin= 3 EnMin= -265.524039995425     IErMin= 2 ErrMin= 9.44D-04
 ErrMax= 9.50D-04  0.00D+00 EMaxC= 1.00D-01 BMatC= 1.98D-04 BMatP= 2.69D-04
 IDIUse=3 WtCom= 9.90D-01 WtEn= 9.50D-03
 Coeff-Com:  0.387D-01 0.454D+00 0.507D+00
 Coeff-En:   0.000D+00 0.473D+00 0.527D+00
 Coeff:      0.383D-01 0.454D+00 0.507D+00
 Gap=     0.235 Goal=   None    Shift=    0.000
 Gap=     0.235 Goal=   None    Shift=    0.000
 RMSDP=1.31D-04 MaxDP=6.31D-03 DE=-7.13D-06 OVMax= 3.15D-03

 Cycle   4  Pass 1  IDiag  1:
 E= -265.524087203134     Delta-E=       -0.000047207709 Rises=F Damp=F
 DIIS: error= 1.84D-04 at cycle   4 NSaved=   4.
 NSaved= 4 IEnMin= 4 EnMin= -265.524087203134     IErMin= 4 ErrMin= 1.84D-04
 ErrMax= 1.84D-04  0.00D+00 EMaxC= 1.00D-01 BMatC= 7.86D-06 BMatP= 1.98D-04
 IDIUse=3 WtCom= 9.98D-01 WtEn= 1.84D-03
 Coeff-Com: -0.880D-02 0.123D+00 0.222D+00 0.663D+00
 Coeff-En:   0.000D+00 0.000D+00 0.000D+00 0.100D+01
 Coeff:     -0.878D-02 0.123D+00 0.222D+00 0.664D+00
 Gap=     0.235 Goal=   None    Shift=    0.000
 Gap=     0.235 Goal=   None    Shift=    0.000
 RMSDP=6.41D-05 MaxDP=3.23D-03 DE=-4.72D-05 OVMax= 9.01D-04

 Cycle   5  Pass 1  IDiag  1:
 E= -265.524088892610     Delta-E=       -0.000001689476 Rises=F Damp=F
 DIIS: error= 8.04D-05 at cycle   5 NSaved=   5.
 NSaved= 5 IEnMin= 5 EnMin= -265.524088892610     IErMin= 5 ErrMin= 8.04D-05
 ErrMax= 8.04D-05  0.00D+00 EMaxC= 1.00D-01 BMatC= 2.73D-06 BMatP= 7.86D-06
 IDIUse=1 WtCom= 1.00D+00 WtEn= 0.00D+00
 Coeff-Com: -0.847D-02-0.516D-02 0.470D-01 0.417D+00 0.550D+00
 Coeff:     -0.847D-02-0.516D-02 0.470D-01 0.417D+00 0.550D+00
 Gap=     0.235 Goal=   None    Shift=    0.000
 Gap=     0.235 Goal=   None    Shift=    0.000
 RMSDP=1.37D-05 MaxDP=6.46D-04 DE=-1.69D-06 OVMax= 4.04D-04

 Cycle   6  Pass 1  IDiag  1:
 E= -265.524089587442     Delta-E=       -0.000000694832 Rises=F Damp=F
 DIIS: error= 1.49D-05 at cycle   6 NSaved=   6.
 NSaved= 6 IEnMin= 6 EnMin= -265.524089587442     IErMin= 6 ErrMin= 1.49D-05
 ErrMax= 1.49D-05  0.00D+00 EMaxC= 1.00D-01 BMatC= 1.46D-07 BMatP= 2.73D-06
 IDIUse=1 WtCom= 1.00D+00 WtEn= 0.00D+00
 Coeff-Com: -0.372D-02-0.127D-01 0.207D-02 0.133D+00 0.271D+00 0.610D+00
 Coeff:     -0.372D-02-0.127D-01 0.207D-02 0.133D+00 0.271D+00 0.610D+00
 Gap=     0.235 Goal=   None    Shift=    0.000
 Gap=     0.235 Goal=   None    Shift=    0.000
 RMSDP=8.53D-06 MaxDP=4.35D-04 DE=-6.95D-07 OVMax= 8.51D-05

 Cycle   7  Pass 1  IDiag  1:
 E= -265.524089619171     Delta-E=       -0.000000031729 Rises=F Damp=F
 DIIS: error= 5.52D-06 at cycle   7 NSaved=   7.
 NSaved= 7 IEnMin= 7 EnMin= -265.524089619171     IErMin= 7 ErrMin= 5.52D-06
 ErrMax= 5.52D-06  0.00D+00 EMaxC= 1.00D-01 BMatC= 1.77D-08 BMatP= 1.46D-07
 IDIUse=1 WtCom= 1.00D+00 WtEn= 0.00D+00
 Coeff-Com:  0.449D-03-0.631D-02-0.116D-01-0.257D-01 0.297D-01 0.291D+00
 Coeff-Com:  0.723D+00
 Coeff:      0.449D-03-0.631D-02-0.116D-01-0.257D-01 0.297D-01 0.291D+00
 Coeff:      0.723D+00
 Gap=     0.235 Goal=   None    Shift=    0.000
 Gap=     0.235 Goal=   None    Shift=    0.000
 RMSDP=1.27D-06 MaxDP=5.94D-05 DE=-3.17D-08 OVMax= 3.15D-05

 Cycle   8  Pass 1  IDiag  1:
 E= -265.524089623339     Delta-E=       -0.000000004168 Rises=F Damp=F
 DIIS: error= 2.46D-06 at cycle   8 NSaved=   8.
 NSaved= 8 IEnMin= 8 EnMin= -265.524089623339     IErMin= 8 ErrMin= 2.46D-06
 ErrMax= 2.46D-06  0.00D+00 EMaxC= 1.00D-01 BMatC= 2.59D-09 BMatP= 1.77D-08
 IDIUse=1 WtCom= 1.00D+00 WtEn= 0.00D+00
 Coeff-Com:  0.381D-03-0.274D-02-0.702D-02-0.238D-01 0.862D-03 0.127D+00
 Coeff-Com:  0.416D+00 0.489D+00
 Coeff:      0.381D-03-0.274D-02-0.702D-02-0.238D-01 0.862D-03 0.127D+00
 Coeff:      0.416D+00 0.489D+00
 Gap=     0.235 Goal=   None    Shift=    0.000
[...]
 DD1Dir:  Pass   6 NRAB=    14 NRAA=    34 NRBB=     0 NR=    62.
 DD1Dir:  Pass   7 NRAB=     0 NRAA=    44 NRBB=    18 NR=    62.
 DD1Dir:  Pass   8 NRAB=     0 NRAA=     0 NRBB=    60 NR=    60.
 A-vector RMS=  3.3787825D-07 Max=  4.3341424D-06 conv= 1.00D-05.
 RLE energy=       -0.9488092951
 DE(Corr)= -0.94880931     E(CORR)=     -265.01904404     Delta=-6.31D-07
 NORM(A)=   0.11718905D+01
 Iteration Nr.  13
 **********************
 DD1Dir will call FoFJK   8 times, MxPair=        62
 NAB=   169 NAA=    78 NBB=    78 NumPrc= 24.
 DD1Dir:  Pass   1 NRAB=    31 NRAA=     0 NRBB=     0 NR=    62.
 DD1Dir:  Pass   2 NRAB=    31 NRAA=     0 NRBB=     0 NR=    62.
 DD1Dir:  Pass   3 NRAB=    31 NRAA=     0 NRBB=     0 NR=    62.
 DD1Dir:  Pass   4 NRAB=    31 NRAA=     0 NRBB=     0 NR=    62.
 DD1Dir:  Pass   5 NRAB=    31 NRAA=     0 NRBB=     0 NR=    62.
 DD1Dir:  Pass   6 NRAB=    14 NRAA=    34 NRBB=     0 NR=    62.
 DD1Dir:  Pass   7 NRAB=     0 NRAA=    44 NRBB=    18 NR=    62.
 DD1Dir:  Pass   8 NRAB=     0 NRAA=     0 NRBB=    60 NR=    60.
 A-vector RMS=  1.1038377D-07 Max=  9.2110561D-07 conv= 1.00D-05.
 RLE energy=       -0.9488089558
 DE(Corr)= -0.94880912     E(CORR)=     -265.01904385     Delta= 1.94D-07
 NORM(A)=   0.11718900D+01
 Iteration Nr.  14
 **********************
 DD1Dir will call FoFJK   8 times, MxPair=        62
 NAB=   169 NAA=    78 NBB=    78 NumPrc= 24.
 DD1Dir:  Pass   1 NRAB=    31 NRAA=     0 NRBB=     0 NR=    62.
 DD1Dir:  Pass   2 NRAB=    31 NRAA=     0 NRBB=     0 NR=    62.
 DD1Dir:  Pass   3 NRAB=    31 NRAA=     0 NRBB=     0 NR=    62.
 DD1Dir:  Pass   4 NRAB=    31 NRAA=     0 NRBB=     0 NR=    62.
 DD1Dir:  Pass   5 NRAB=    31 NRAA=     0 NRBB=     0 NR=    62.
 DD1Dir:  Pass   6 NRAB=    14 NRAA=    34 NRBB=     0 NR=    62.
 DD1Dir:  Pass   7 NRAB=     0 NRAA=    44 NRBB=    18 NR=    62.
 DD1Dir:  Pass   8 NRAB=     0 NRAA=     0 NRBB=    60 NR=    60.
 A-vector RMS=  7.8456944D-08 Max=  9.2225370D-07 conv= 1.00D-05.
 RLE energy=       -0.9488091830
 DE(Corr)= -0.94880920     E(CORR)=     -265.01904392     Delta=-7.74D-08
 NORM(A)=   0.11718898D+01
 CI/CC converged in   14 iterations to DelEn=-7.74D-08 Conv= 1.00D-07 ErrA1= 7.85D-08 Conv= 1.00D-05
 Wavefunction amplitudes converged. E(Corr)=     -265.01904392    
 Largest amplitude= 7.71D-02
 Time for triples=    23748.77 seconds.
 T4(CCSD)= -0.72778653D-01
 T5(CCSD)=  0.40213868D-02
 CCSD(T)= -0.26508780119D+03

 S**2, projected HF & approx projected MPn energies after annihilation of
 unwanted spin states (see manual for definitions):

 spins       (S**2,0) (S**2,1)    PUHF        PMP2        PMP3        PMP4
 annihilated
 s+1        -0.00000 -0.00000 -264.070235 -265.039488 -265.012954
 s+1,s+2    -0.00000 -0.00000 -264.070235 -265.039488 -265.012954
 s+1 to s+3  0.00000  0.00000 -264.070235 -265.039488 -265.012954
 s+1 to s+4  0.00000  0.00000 -264.070235 -265.039488 -265.012954
 s+1 to s+5  0.00000  0.00000 -264.070235
 s+1 to s+6  0.00000  0.00000 -264.070235

 Discarding MO integrals.
 Leave Link  913 at Mon Oct 12 18:05:03 2020, MaxMem=  1073741824 cpu:           56693.3 elap:            2362.5
 (Enter /home/spantaleone/g16/l601.exe)
 Copying SCF densities to generalized density rwf, IOpCl= 1 IROHF=0.

 **********************************************************************

            Population analysis using the SCF Density.

 **********************************************************************

 Orbital symmetries:
 Alpha Orbitals:
       Occupied  (A) (A) (A) (A) (A) (A) (A) (A) (A) (A) (A) (A)
                 (A) (A) (A) (A) (A) (A) (A)
       Virtual   (A) (A) (A) (A) (A) (A) (A) (A) (A) (A) (A) (A)
                 (A) (A) (A) (A) (A) (A) (A) (A) (A) (A) (A) (A)
                 (A) (A) (A) (A) (A) (A) (A) (A) (A) (A) (A) (A)
                 (A) (A) (A) (A) (A) (A) (A) (A) (A) (A) (A) (A)
                 (A) (A) (A) (A) (A) (A) (A) (A) (A) (A) (A) (A)
                 (A) (A) (A) (A) (A) (A) (A) (A) (A) (A) (A) (A)
                 (A) (A) (A) (A) (A) (A) (A) (A) (A) (A) (A) (A)
                 (A) (A) (A) (A) (A) (A) (A) (A) (A) (A) (A) (A)
                 (A) (A) (A) (A) (A) (A) (A) (A) (A) (A) (A) (A)
                 (A) (A) (A) (A) (A) (A) (A) (A) (A) (A) (A) (A)
                 (A) (A) (A) (A) (A) (A) (A) (A) (A) (A) (A) (A)
                 (A) (A) (A) (A) (A) (A) (A) (A) (A) (A) (A) (A)
                 (A) (A) (A) (A) (A) (A) (A) (A) (A) (A) (A) (A)
                 (A) (A) (A) (A) (A) (A) (A) (A) (A) (A) (A) (A)
                 (A) (A) (A) (A) (A) (A) (A) (A) (A) (A) (A) (A)
                 (A) (A) (A) (A) (A) (A) (A) (A) (A) (A) (A) (A)
                 (A) (A) (A) (A) (A) (A) (A) (A) (A) (A) (A) (A)
                 (A) (A) (A) (A) (A) (A) (A) (A) (A) (A) (A) (A)
                 (A) (A) (A) (A) (A) (A) (A) (A) (A) (A) (A) (A)
                 (A) (A) (A) (A) (A) (A) (A) (A) (A) (A) (A) (A)
                 (A) (A) (A) (A) (A) (A) (A) (A) (A) (A) (A) (A)
                 (A) (A) (A) (A)
 Beta  Orbitals:
       Occupied  (A) (A) (A) (A) (A) (A) (A) (A) (A) (A) (A) (A)
                 (A) (A) (A) (A) (A) (A) (A)
       Virtual   (A) (A) (A) (A) (A) (A) (A) (A) (A) (A) (A) (A)
                 (A) (A) (A) (A) (A) (A) (A) (A) (A) (A) (A) (A)
                 (A) (A) (A) (A) (A) (A) (A) (A) (A) (A) (A) (A)
                 (A) (A) (A) (A) (A) (A) (A) (A) (A) (A) (A) (A)
                 (A) (A) (A) (A) (A) (A) (A) (A) (A) (A) (A) (A)
                 (A) (A) (A) (A) (A) (A) (A) (A) (A) (A) (A) (A)
                 (A) (A) (A) (A) (A) (A) (A) (A) (A) (A) (A) (A)
                 (A) (A) (A) (A) (A) (A) (A) (A) (A) (A) (A) (A)
                 (A) (A) (A) (A) (A) (A) (A) (A) (A) (A) (A) (A)
                 (A) (A) (A) (A) (A) (A) (A) (A) (A) (A) (A) (A)
                 (A) (A) (A) (A) (A) (A) (A) (A) (A) (A) (A) (A)
                 (A) (A) (A) (A) (A) (A) (A) (A) (A) (A) (A) (A)
                 (A) (A) (A) (A) (A) (A) (A) (A) (A) (A) (A) (A)
                 (A) (A) (A) (A) (A) (A) (A) (A) (A) (A) (A) (A)
                 (A) (A) (A) (A) (A) (A) (A) (A) (A) (A) (A) (A)
                 (A) (A) (A) (A) (A) (A) (A) (A) (A) (A) (A) (A)
                 (A) (A) (A) (A) (A) (A) (A) (A) (A) (A) (A) (A)
                 (A) (A) (A) (A) (A) (A) (A) (A) (A) (A) (A) (A)
                 (A) (A) (A) (A) (A) (A) (A) (A) (A) (A) (A) (A)
                 (A) (A) (A) (A) (A) (A) (A) (A) (A) (A) (A) (A)
                 (A) (A) (A) (A) (A) (A) (A) (A) (A) (A) (A) (A)
                 (A) (A) (A) (A)
 The electronic state is 1-A.
 Alpha  occ. eigenvalues --  -20.69362 -11.46241 -11.40001 -11.31172 -11.28808
 Alpha  occ. eigenvalues --  -11.23627  -1.54512  -1.16515  -1.07961  -0.97589
 Alpha  occ. eigenvalues --   -0.86407  -0.79346  -0.69585  -0.69585  -0.53545
 Alpha  occ. eigenvalues --   -0.53545  -0.47286  -0.38166  -0.38166
 Alpha virt. eigenvalues --   -0.01555  -0.01555   0.03907   0.05425   0.06242
 Alpha virt. eigenvalues --    0.06242   0.07092   0.09307   0.09307   0.09939
 Alpha virt. eigenvalues --    0.11599   0.11599   0.13939   0.16599   0.16823
 Alpha virt. eigenvalues --    0.16823   0.19591   0.19591   0.20678   0.20930
 Alpha virt. eigenvalues --    0.22217   0.22217   0.23081   0.23081   0.23464
 Alpha virt. eigenvalues --    0.23464   0.24384   0.24991   0.28556   0.28605
 Alpha virt. eigenvalues --    0.28605   0.30354   0.34765   0.34765   0.35595
 Alpha virt. eigenvalues --    0.36076   0.36076   0.37049   0.37049   0.40002
 Alpha virt. eigenvalues --    0.40003   0.42055   0.43940   0.44878   0.44878
 Alpha virt. eigenvalues --    0.47380   0.47380   0.48086   0.50496   0.50786
 Alpha virt. eigenvalues --    0.50786   0.55531   0.55531   0.57169   0.57733
 Alpha virt. eigenvalues --    0.61377   0.61377   0.63504   0.72402   0.72402
 Alpha virt. eigenvalues --    0.72849   0.78125   0.78125   0.79891   0.81215
 Alpha virt. eigenvalues --    0.81215   0.82470   0.84322   0.84322   0.86838
 Alpha virt. eigenvalues --    0.86838   0.87574   0.87574   0.90433   0.90433
 Alpha virt. eigenvalues --    0.91913   0.91913   0.93695   0.93798   0.93798
 Alpha virt. eigenvalues --    0.96285   0.96285   1.01151   1.01151   1.01847
 Alpha virt. eigenvalues --    1.01847   1.01851   1.03823   1.11867   1.11867
 Alpha virt. eigenvalues --    1.12064   1.12224   1.12224   1.15914   1.15914
 Alpha virt. eigenvalues --    1.17457   1.19451   1.19507   1.19509   1.26620
 Alpha virt. eigenvalues --    1.28989   1.28989   1.30220   1.30220   1.31258
 Alpha virt. eigenvalues --    1.31258   1.37156   1.37707   1.37707   1.40758
 Alpha virt. eigenvalues --    1.46886   1.48977   1.48977   1.54565   1.54609
 Alpha virt. eigenvalues --    1.54609   1.59297   1.60736   1.60736   1.65794
 Alpha virt. eigenvalues --    1.65794   1.67200   1.67200   1.71606   1.73380
 Alpha virt. eigenvalues --    1.73380   1.86898   1.86898   1.89956   1.89956
 Alpha virt. eigenvalues --    1.98496   1.98496   1.99827   2.14797   2.14797
 Alpha virt. eigenvalues --    2.18072   2.18072   2.19014   2.19014   2.25201
 Alpha virt. eigenvalues --    2.26478   2.26478   2.32291   2.32291   2.36162
 Alpha virt. eigenvalues --    2.45600   2.45600   2.48952   2.50029   2.50029
 Alpha virt. eigenvalues --    2.52917   2.55222   2.69625   2.69625   2.70311
 Alpha virt. eigenvalues --    2.70311   2.77458   2.90453   2.95438   2.95438
 Alpha virt. eigenvalues --    3.13173   3.13173   3.13942   3.13942   3.15331
 Alpha virt. eigenvalues --    3.19083   3.19083   3.20490   3.20490   3.21006
 Alpha virt. eigenvalues --    3.21006   3.21883   3.25694   3.25694   3.28479
 Alpha virt. eigenvalues --    3.28479   3.30753   3.30753   3.39113   3.42079
 Alpha virt. eigenvalues --    3.42079   3.42804   3.42804   3.44120   3.50937
 Alpha virt. eigenvalues --    3.54219   3.54454   3.54454   3.62331   3.62331
 Alpha virt. eigenvalues --    3.62665   3.62665   3.66571   3.66571   3.73827
 Alpha virt. eigenvalues --    3.73827   3.78252   3.79027   3.79027   3.79056
 Alpha virt. eigenvalues --    3.79056   3.82097   3.82097   3.82546   3.82546
 Alpha virt. eigenvalues --    3.95640   3.95640   4.07077   4.13999   4.13999
 Alpha virt. eigenvalues --    4.21109   4.26149   4.26149   4.31904   4.31904
 Alpha virt. eigenvalues --    4.34576   4.34576   4.37073   4.51942   4.64245
 Alpha virt. eigenvalues --    4.64245   4.76890   4.76890   4.83198   5.00390
 Alpha virt. eigenvalues --    5.00390   5.36241   5.55530   5.55530   5.70786
 Alpha virt. eigenvalues --    5.83712   5.95080   6.12193   6.12193   6.31660
 Alpha virt. eigenvalues --    6.39342   6.47042   6.47042   6.82008   6.82008
 Alpha virt. eigenvalues --    6.88541   6.88541   7.17952   7.17952   7.52685
 Alpha virt. eigenvalues --    7.56271   7.56271   7.84237   7.93431   7.93431
 Alpha virt. eigenvalues --   12.94308  16.46009  16.90884  17.25886  21.00411
 Alpha virt. eigenvalues --   22.32249
  Beta  occ. eigenvalues --  -20.69362 -11.46241 -11.40001 -11.31172 -11.28808
  Beta  occ. eigenvalues --  -11.23627  -1.54512  -1.16515  -1.07961  -0.97589
  Beta  occ. eigenvalues --   -0.86407  -0.79346  -0.69585  -0.69585  -0.53545
  Beta  occ. eigenvalues --   -0.53545  -0.47286  -0.38166  -0.38166
  Beta virt. eigenvalues --   -0.01555  -0.01555   0.03907   0.05425   0.06242
  Beta virt. eigenvalues --    0.06242   0.07092   0.09307   0.09307   0.09939
  Beta virt. eigenvalues --    0.11599   0.11599   0.13939   0.16599   0.16823
  Beta virt. eigenvalues --    0.16823   0.19591   0.19591   0.20678   0.20930
  Beta virt. eigenvalues --    0.22217   0.22217   0.23081   0.23081   0.23464
  Beta virt. eigenvalues --    0.23464   0.24384   0.24991   0.28556   0.28605
  Beta virt. eigenvalues --    0.28605   0.30354   0.34765   0.34765   0.35595
  Beta virt. eigenvalues --    0.36076   0.36076   0.37049   0.37049   0.40002
  Beta virt. eigenvalues --    0.40003   0.42055   0.43940   0.44878   0.44878
  Beta virt. eigenvalues --    0.47380   0.47380   0.48086   0.50496   0.50786
  Beta virt. eigenvalues --    0.50786   0.55531   0.55531   0.57169   0.57733
  Beta virt. eigenvalues --    0.61377   0.61377   0.63504   0.72402   0.72402
  Beta virt. eigenvalues --    0.72849   0.78125   0.78125   0.79891   0.81215
  Beta virt. eigenvalues --    0.81215   0.82470   0.84322   0.84322   0.86838
  Beta virt. eigenvalues --    0.86838   0.87574   0.87574   0.90433   0.90433
  Beta virt. eigenvalues --    0.91913   0.91913   0.93695   0.93798   0.93798
  Beta virt. eigenvalues --    0.96285   0.96285   1.01151   1.01151   1.01847
  Beta virt. eigenvalues --    1.01847   1.01851   1.03823   1.11867   1.11867
  Beta virt. eigenvalues --    1.12064   1.12224   1.12224   1.15914   1.15914
  Beta virt. eigenvalues --    1.17457   1.19451   1.19507   1.19509   1.26620
  Beta virt. eigenvalues --    1.28989   1.28989   1.30220   1.30220   1.31258
  Beta virt. eigenvalues --    1.31258   1.37156   1.37707   1.37707   1.40758
  Beta virt. eigenvalues --    1.46886   1.48977   1.48977   1.54565   1.54609
  Beta virt. eigenvalues --    1.54609   1.59297   1.60736   1.60736   1.65794
  Beta virt. eigenvalues --    1.65794   1.67200   1.67200   1.71606   1.73380
  Beta virt. eigenvalues --    1.73380   1.86898   1.86898   1.89956   1.89956
  Beta virt. eigenvalues --    1.98496   1.98496   1.99827   2.14797   2.14797
  Beta virt. eigenvalues --    2.18072   2.18072   2.19014   2.19014   2.25201
  Beta virt. eigenvalues --    2.26478   2.26478   2.32291   2.32291   2.36162
  Beta virt. eigenvalues --    2.45600   2.45600   2.48952   2.50029   2.50029
  Beta virt. eigenvalues --    2.52917   2.55222   2.69625   2.69625   2.70311
  Beta virt. eigenvalues --    2.70311   2.77458   2.90453   2.95438   2.95438
  Beta virt. eigenvalues --    3.13173   3.13173   3.13942   3.13942   3.15331
  Beta virt. eigenvalues --    3.19083   3.19083   3.20490   3.20490   3.21006
  Beta virt. eigenvalues --    3.21006   3.21883   3.25694   3.25694   3.28479
  Beta virt. eigenvalues --    3.28479   3.30753   3.30753   3.39113   3.42079
  Beta virt. eigenvalues --    3.42079   3.42804   3.42804   3.44120   3.50937
  Beta virt. eigenvalues --    3.54219   3.54454   3.54454   3.62331   3.62331
  Beta virt. eigenvalues --    3.62665   3.62665   3.66571   3.66571   3.73827
  Beta virt. eigenvalues --    3.73827   3.78252   3.79027   3.79027   3.79056
  Beta virt. eigenvalues --    3.79056   3.82097   3.82097   3.82546   3.82546
  Beta virt. eigenvalues --    3.95640   3.95640   4.07077   4.13999   4.13999
  Beta virt. eigenvalues --    4.21109   4.26149   4.26149   4.31904   4.31904
  Beta virt. eigenvalues --    4.34576   4.34576   4.37073   4.51942   4.64245
  Beta virt. eigenvalues --    4.64245   4.76890   4.76890   4.83198   5.00390
  Beta virt. eigenvalues --    5.00390   5.36241   5.55530   5.55530   5.70786
  Beta virt. eigenvalues --    5.83712   5.95080   6.12193   6.12193   6.31660
  Beta virt. eigenvalues --    6.39342   6.47042   6.47042   6.82008   6.82008
  Beta virt. eigenvalues --    6.88541   6.88541   7.17952   7.17952   7.52685
  Beta virt. eigenvalues --    7.56271   7.56271   7.84237   7.93431   7.93431
  Beta virt. eigenvalues --   12.94308  16.46009  16.90884  17.25886  21.00411
  Beta virt. eigenvalues --   22.32249
          Condensed to atoms (all electrons):
               1          2          3          4          5          6
     1  C    7.392364  -0.253960  -0.130142  -0.007502   0.032746  -0.002260
     2  C   -0.253960   6.530220  -0.101071  -0.520141   0.236524  -0.000549
     3  C   -0.130142  -0.101071   5.355788   0.517415  -0.152748   0.028341
     4  C   -0.007502  -0.520141   0.517415   6.151651  -0.870814  -0.280412
     5  C    0.032746   0.236524  -0.152748  -0.870814   6.332691   0.619869
     6  O   -0.002260  -0.000549   0.028341  -0.280412   0.619869   8.006690
          Atomic-Atomic Spin Densities.
               1          2          3          4          5          6
     1  C    0.000000   0.000000   0.000000   0.000000   0.000000   0.000000
     2  C    0.000000   0.000000   0.000000   0.000000   0.000000   0.000000
     3  C    0.000000   0.000000   0.000000   0.000000   0.000000   0.000000
     4  C    0.000000   0.000000   0.000000   0.000000   0.000000   0.000000
     5  C    0.000000   0.000000   0.000000   0.000000   0.000000   0.000000
     6  O    0.000000   0.000000   0.000000   0.000000   0.000000   0.000000
 Mulliken charges and spin densities:
               1          2
     1  C   -1.031248   0.000000
     2  C    0.108977   0.000000
     3  C    0.482416   0.000000
     4  C    1.009803   0.000000
     5  C   -0.198268   0.000000
     6  O   -0.371680   0.000000
 Sum of Mulliken charges =  -0.00000   0.00000
 Mulliken charges and spin densities with hydrogens summed into heavy atoms:
               1          2
     1  C   -1.031248   0.000000
     2  C    0.108977   0.000000
     3  C    0.482416   0.000000
     4  C    1.009803   0.000000
     5  C   -0.198268   0.000000
     6  O   -0.371680   0.000000
 Electronic spatial extent (au):  <R**2>=            743.4998
 Charge=             -0.0000 electrons
 Dipole moment (field-independent basis, Debye):
    X=             -3.3966    Y=              0.0015    Z=             -0.0000  Tot=              3.3966
 Quadrupole moment (field-independent basis, Debye-Ang):
   XX=            -49.5081   YY=            -33.0153   ZZ=            -33.0152
   XY=              0.0030   XZ=             -0.0000   YZ=             -0.0000
 Traceless Quadrupole moment (field-independent basis, Debye-Ang):
   XX=            -10.9953   YY=              5.4976   ZZ=              5.4976
   XY=              0.0030   XZ=             -0.0000   YZ=             -0.0000
 Octapole moment (field-independent basis, Debye-Ang**2):
  XXX=            -73.8014  YYY=             -0.0054  ZZZ=             -0.0000  XYY=            -10.9755
  XXY=              0.0303  XXZ=             -0.0000  XZZ=            -10.9755  YZZ=             -0.0018
  YYZ=             -0.0000  XYZ=             -0.0000
 Hexadecapole moment (field-independent basis, Debye-Ang**3):
 XXXX=          -1305.9674 YYYY=            -36.4951 ZZZZ=            -36.4950 XXXY=              0.0950
 XXXZ=             -0.0000 YYYX=              0.0218 YYYZ=             -0.0000 ZZZX=             -0.0000
 ZZZY=             -0.0000 XXYY=           -169.5297 XXZZ=           -169.5297 YYZZ=            -12.1650
 XXYZ=             -0.0000 YYXZ=             -0.0000 ZZXY=              0.0073
 N-N= 1.444502213181D+02 E-N=-9.057052627679D+02  KE= 2.636927172947D+02
 Leave Link  601 at Mon Oct 12 18:05:03 2020, MaxMem=  1073741824 cpu:               2.1 elap:               0.1
 (Enter /home/spantaleone/g16/l9999.exe)
 1\1\GINC-N1725\SP\UCCSD(T)-FC\Aug-CC-pVTZ\C5O1\SPANTALEONE\12-Oct-2020
 \0\\#P UCCSD(T)/aug-cc-pvtz geom=allcheck guess=read\\Title\\0,1\C,0,-
 0.0000471088,0.0000000133,0.0409062518\C,0,0.000066026,-0.0000000081,1
 .3118198452\C,0,0.0007245464,-0.0000000063,2.6043318113\C,0,0.00152254
 85,-0.0000000099,3.8597968094\C,0,0.0035986026,0.0000000036,5.14675772
 03\O,0,0.0054438552,0.0000000073,6.2926412924\\Version=ES64L-G16RevB.0
 1\State=1-A\HF=-264.0702347\MP2=-265.0394877\MP3=-265.0129536\MP4D=-26
 5.0448505\MP4DQ=-265.0031169\PUHF=-264.0702347\PMP2-0=-265.0394877\PMP
 3-0=-265.0129536\MP4SDQ=-265.02326\CCSD=-265.0190439\CCSD(T)=-265.0878
 012\S2=0.\S2-1=0.\S2A=0.\RMSD=8.114e-09\PG=C01 [X(C5O1)]\\@


 IT IS A QUALITY OF REVOLUTIONS NOT TO GO BY OLD LINES OR OLD LAWS,
 BUT TO BREAK UP BOTH, AND MAKE NEW ONES.
                                              -- A. LINCOLN (1848)
 Job cpu time:       0 days 16 hours 55 minutes 26.0 seconds.
 Elapsed time:       0 days  0 hours 42 minutes 19.1 seconds.
 File lengths (MBytes):  RWF=  22232 Int=      0 D2E=      0 Chk=      9 Scr=      1
 Normal termination of Gaussian 16 at Mon Oct 12 18:05:09 2020.
