 Entering Gaussian System
 *********************************************
 Gaussian 98:
 frequency output generated by the xtb code
 *********************************************
                         Standard orientation:
 --------------------------------------------------------------------
  Center     Atomic     Atomic              Coordinates (Angstroms)
  Number     Number      Type              X           Y           Z
 --------------------------------------------------------------------
    1          6             0       -0.671104   -0.018041   -0.015933
    2          6             0        0.671239   -0.006909    0.018721
    3          6             0       -0.008603    1.242643   -0.065861
    4          1             0       -1.547217   -0.621713   -0.008513
    5          1             0        1.555685   -0.595980    0.071586
 --------------------------------------------------------------------
     1 basis functions        1 primitive gaussians
     1 alpha electrons        1 beta electrons

 Harmonic frequencies (cm**-1), IR intensities (KM/Mole),
 Raman scattering activities (A**4/amu), Raman depolarization ratios,
 reduced masses (AMU), force constants (mDyne/A) and normal coordinates:
                      1                      2                      3
                        a                      a                      a 
 Frequencies --   781.1955               822.5576               859.9498
 Red. masses --     2.9956                 4.4143                 4.0346
 Frc consts  --     0.0000                 0.0000                 0.0000
 IR Inten    --     0.0200                 0.0013                 0.0090
 Raman Activ --     0.0000                 0.0000                 0.0000
 Depolar     --     0.0000                 0.0000                 0.0000
 Atom AN      X      Y      Z        X      Y      Z        X      Y      Z
   1   6    -0.01   0.01   0.27     0.01  -0.02  -0.39     0.26  -0.10   0.01
   2   6    -0.01   0.01   0.27    -0.01   0.02   0.39     0.26   0.10   0.00
   3   6     0.00  -0.01  -0.18    -0.00   0.00  -0.00    -0.35  -0.00  -0.01
   4   1     0.02  -0.03  -0.64    -0.02   0.03   0.59    -0.30   0.52  -0.04
   5   1     0.02  -0.03  -0.64     0.01  -0.03  -0.59    -0.29  -0.53   0.02
                      4                      5                      6
                        a                      a                      a 
 Frequencies --   883.3430              1066.5432              1265.4860
 Red. masses --     1.4128                11.1614                11.9887
 Frc consts  --     0.0000                 0.0000                 0.0000
 IR Inten    --     0.0672                 0.3020                 0.3297
 Raman Activ --     0.0000                 0.0000                 0.0000
 Depolar     --     0.0000                 0.0000                 0.0000
 Atom AN      X      Y      Z        X      Y      Z        X      Y      Z
   1   6     0.02  -0.12   0.01     0.19   0.55  -0.02     0.36  -0.35   0.03
   2   6    -0.01  -0.12   0.01     0.20  -0.54   0.03    -0.35  -0.35   0.01
   3   6     0.00  -0.10   0.01    -0.50  -0.00  -0.01    -0.00   0.70  -0.04
   4   1    -0.40   0.56  -0.04     0.19  -0.04   0.01     0.03   0.00   0.00
   5   1     0.39   0.57  -0.02     0.19   0.05   0.00    -0.03   0.00  -0.00
                      7                      8                      9
                        a                      a                      a 
 Frequencies --  1693.9756              3208.7702              3228.9182
 Red. masses --    10.9695                 1.8542                 2.2493
 Frc consts  --     0.0000                 0.0000                 0.0000
 IR Inten    --     0.1392                 0.1721                 0.1253
 Raman Activ --     0.0000                 0.0000                 0.0000
 Depolar     --     0.0000                 0.0000                 0.0000
 Atom AN      X      Y      Z        X      Y      Z        X      Y      Z
   1   6    -0.57  -0.18  -0.01    -0.16  -0.11   0.00     0.20   0.12  -0.00
   2   6     0.58  -0.17   0.02    -0.16   0.11  -0.01    -0.20   0.12  -0.01
   3   6    -0.00   0.42  -0.02     0.00   0.00   0.00     0.00  -0.03   0.00
   4   1    -0.18  -0.12   0.00     0.56   0.38  -0.00    -0.55  -0.37   0.00
   5   1     0.19  -0.11   0.01     0.57  -0.37   0.03     0.56  -0.37   0.03
