[Molden Format]
[Title]
[Atoms] AU
C      1     6 -0.12682017228334E+01 -0.34092868935181E-01 -0.30109248847328E-01
C      2     6  0.12684585292146E+01 -0.13056753705224E-01  0.35376753914706E-01
C      3     6 -0.16257899160099E-01  0.23482550835371E+01 -0.12446017835155E+00
H      4     1 -0.29238166773675E+01 -0.11748679062161E+01 -0.16087898004411E-01
H      5     1  0.29398177701300E+01 -0.11262394444098E+01  0.13527868156594E+00
[GTO]
           1 0
 s           4   1.0000000000000000     
   51.049363095579913      -0.16312063210127389     
   8.7911227406887544      -0.19911024581000730     
  0.70640422258929825       0.31882047753655751     
  0.26922813413411617       0.12706504184240380     
 p           4   1.0000000000000000     
   5.8263656140800002       0.73716451545209605     
   1.5106896018720002       0.68216371614850257     
  0.53256483288000001       0.35783053929253711     
  0.21202323690600003        5.3983030275847881E-002

           2 0
 s           4   1.0000000000000000     
   51.049363095579913      -0.16312063210127389     
   8.7911227406887544      -0.19911024581000730     
  0.70640422258929825       0.31882047753655751     
  0.26922813413411617       0.12706504184240380     
 p           4   1.0000000000000000     
   5.8263656140800002       0.73716451545209605     
   1.5106896018720002       0.68216371614850257     
  0.53256483288000001       0.35783053929253711     
  0.21202323690600003        5.3983030275847881E-002

           3 0
 s           4   1.0000000000000000     
   51.049363095579913      -0.16312063210127389     
   8.7911227406887544      -0.19911024581000730     
  0.70640422258929825       0.31882047753655751     
  0.26922813413411617       0.12706504184240380     
 p           4   1.0000000000000000     
   5.8263656140800002       0.73716451545209605     
   1.5106896018720002       0.68216371614850257     
  0.53256483288000001       0.35783053929253711     
  0.21202323690600003        5.3983030275847881E-002

           4 0
 s           3   1.0000000000000000     
   3.3702276975336001       0.27359110588908298     
  0.61389118221497996       0.26460540653860526     
  0.16614291148415999        8.2465947534082318E-002

           5 0
 s           3   1.0000000000000000     
   3.3702276975336001       0.27359110588908298     
  0.61389118221497996       0.26460540653860526     
  0.16614291148415999        8.2465947534082318E-002

[MO]
Sym=     1a
Ene=  -0.67514683291892996     
Spin= Alpha
Occup=     2.00000000
           1 -0.38466840437496719     
           2 -0.16307508311720148     
           3  -8.1450376454689763E-002
           4   9.9622813349224901E-005
           5 -0.38466922630891093     
           6  0.16418000231914801     
           7  -7.8736672873000429E-002
           8   8.5480302141493700E-003
           9 -0.33986542361996680     
          10  -9.4746423672460733E-004
          11  0.13708240100846469     
          12  -7.3358617805896120E-003
          13  -5.7757530429446674E-002
          14  -5.7758276317487561E-002
Sym=     2a
Ene=  -0.57680297777936562     
Spin= Alpha
Occup=     2.00000000
           1  0.38227113904273241     
           2 -0.23783526414217881     
           3  -2.1608542688899290E-002
           4  -5.2461949031834092E-003
           5 -0.38227925308527289     
           6 -0.23811889666882732     
           7   1.7674274330236349E-002
           8  -7.0407953234172425E-003
           9   7.8991639584281892E-006
          10 -0.15790065626621297     
          11  -1.3092218675082373E-003
          12  -4.0761921960655997E-003
          13  0.30055190632049406     
          14 -0.30056305978490944     
Sym=     3a
Ene=  -0.56906229571905909     
Spin= Alpha
Occup=     2.00000000
           1  0.23412040220092792     
           2  -4.6299768752664151E-002
           3 -0.33221010944660601     
           4   1.6190624714433482E-002
           5  0.23410465098285427     
           6   5.0892561455003343E-002
           7 -0.33140433106410894     
           8   1.8699416049805719E-002
           9 -0.41663768731525030     
          10   1.7938062719207002E-004
          11  -2.5988123026742794E-002
          12   1.2613797006139767E-003
          13  0.25616133739638419     
          14  0.25614973344954611     
Sym=     4a
Ene=  -0.49598462071912908     
Spin= Alpha
Occup=     2.00000000
           1  -2.1022743269558494E-002
           2  0.43750445500803414     
           3 -0.16189068457275746     
           4   2.4787699264313071E-002
           5  -2.1021347860629289E-002
           6 -0.43545641311549171     
           7 -0.16913106578345893     
           8   2.2522186853138506E-003
           9 -0.36200263399234239     
          10   8.5791872759011061E-004
          11 -0.13561919488528310     
          12   1.0317036477756010E-002
          13 -0.28849635454385347     
          14 -0.28849391424203297     
Sym=     5a
Ene=  -0.48759155182961933     
Spin= Alpha
Occup=     2.00000000
           1   6.0813625872178370E-004
           2  -1.8189364343057547E-002
           3   2.9926454553965864E-002
           4  0.53988474466819059     
           5   6.0967904317674670E-004
           6  -1.0187272820842889E-002
           7   2.9993704585421253E-002
           8  0.54009209354754451     
           9   2.8740243449352043E-003
          10  -9.9593804849093717E-003
          11   2.1399312254003697E-002
          12  0.37894672062899798     
          13   2.4758667053143978E-003
          14   2.4751764866354936E-003
Sym=     6a
Ene=  -0.43885942252973070     
Spin= Alpha
Occup=     2.00000000
           1 -0.11187490553931319     
           2  -5.4966789262668502E-003
           3 -0.40864451679425629     
           4   2.1322942754082093E-002
           5  0.11187517949176085     
           6  -1.1162287402231953E-002
           7  0.40850529796619761     
           8  -2.1754542607260539E-002
           9  -1.2893863535721041E-006
          10  0.58972402875305829     
          11   4.8893120883687696E-003
          12   1.5223412764586816E-002
          13  0.22774263804889805     
          14 -0.22774265227776228     
Sym=     7a
Ene=  -0.38567575364039774     
Spin= Alpha
Occup=     2.00000000
           1  -5.4207502172270446E-002
           2  0.17684701871061859     
           3 -0.30924630633732597     
           4   2.1162676826827920E-002
           5  -5.4207332662533331E-002
           6 -0.17255371801147720     
           7 -0.31214308184602813     
           8   1.2142480512989880E-002
           9  0.57667450642298546     
          10  -4.4470958496299418E-003
          11  0.64350290668098442     
          12  -3.4426939872930981E-002
          13   1.5454278476051438E-002
          14   1.5454029145512336E-002
Sym=     8a
Ene=  -0.25537707828257550     
Spin= Alpha
Occup=     0.00000000
           1  -9.5695702121531751E-004
           2   2.1380091402177878E-002
           3  -4.1806239699866417E-002
           4 -0.79436144136426778     
           5   9.5885421864183779E-004
           6  -2.0326007809522432E-002
           7   4.1813540211562070E-002
           8  0.79437256491867236     
           9   1.2207343257945245E-007
          10  -7.1405258744626032E-004
          11  -4.5662822054199398E-006
          12   7.8734047270628574E-007
          13   6.6151507123023503E-004
          14  -6.6268422559815114E-004
Sym=     9a
Ene=  -0.25084676204317968     
Spin= Alpha
Occup=     0.00000000
           1  -4.1088908880723918E-004
           2   1.0319077295747344E-002
           3  -2.0067140207778323E-002
           4 -0.37818760971558507     
           5  -4.1202272824735815E-004
           6   9.5410097957137324E-003
           7  -2.0074656772128552E-002
           8 -0.37824057810015210     
           9  -5.7917641794402163E-005
          10  -2.5029373311063433E-002
          11   5.0747556395913565E-002
          12  0.95325077000460046     
          13   2.5911415434411508E-004
          14   2.5990233497778743E-004
Sym=    10a
Ene=   -1.1546303131513950E-002
Spin= Alpha
Occup=     0.00000000
           1 -0.36968237869664661     
           2  0.32282901965230659     
           3 -0.47288631791328212     
           4   3.4543348138831392E-002
           5  0.36967240461133449     
           6  0.31629455431248221     
           7  0.47818540761348799     
           8  -1.8044771379916048E-002
           9   1.9378844342521445E-006
          10 -0.86075501870397031     
          11  -7.1416258625467020E-003
          12  -2.2220554594452192E-002
          13  0.29347375233907080     
          14 -0.29346399828576680     
Sym=    11a
Ene=    9.8704468339438051E-002
Spin= Alpha
Occup=     0.00000000
           1  0.72762013079361954     
           2  0.16789914335016573     
           3 -0.52246012192313762     
           4   3.0969879617153175E-002
           5 -0.72754393505343840     
           6  0.16063073164426808     
           7  0.52518849859277583     
           8  -2.2487121162502597E-002
           9  -1.6487937156279808E-005
          10 -0.11179251167387802     
          11  -9.0017743195578207E-004
          12  -2.8879534114472989E-003
          13 -0.60762553196576718     
          14  0.60755290405834073     
Sym=    12a
Ene=   0.13079552556603577     
Spin= Alpha
Occup=     0.00000000
           1  0.71021303669366864     
           2 -0.32734808800546411     
           3   7.6841250354832122E-002
           4  -1.3486425269635314E-002
           5  0.71030261873000589     
           6  0.32627342756752525     
           7   8.2212894755285856E-002
           8   3.3867373745551615E-003
           9 -0.35916153274371387     
          10  -3.8655985129732659E-003
          11  0.55766383566703837     
          12  -2.9435161162371468E-002
          13 -0.63646819481305095     
          14 -0.63653913179783139     
Sym=    13a
Ene=   0.46384607454608773     
Spin= Alpha
Occup=     0.00000000
           1  -4.9218884244383787E-003
           2  0.44755463323752936     
           3  0.63928491898217132     
           4  -2.1836587261788370E-002
           5  -4.9371636572594852E-003
           6 -0.45634808030514923     
           7  0.63178894199436730     
           8  -4.5169678779713590E-002
           9 -0.75805587873512348     
          10  -5.7041697764824801E-003
          11  0.82676531092706229     
          12  -4.4522791986308069E-002
          13  0.53606667035306621     
          14  0.53606563689079190     
Sym=    14a
Ene=   0.73483107786785606     
Spin= Alpha
Occup=     0.00000000
           1 -0.46679857944203546     
           2  -1.0586036477484744     
           3 -0.38062200202731594     
           4  -8.2131615640168021E-003
           5  0.46679379826876760     
           6  -1.0637898381243798     
           7  0.36303268518480708     
           8  -4.6577587326972689E-002
           9  -6.0385061927057854E-006
          10 -0.30793976662081302     
          11  -2.5474898027716603E-003
          12  -7.9502687390795735E-003
          13 -0.54490950945501349     
          14  0.54492308601534523     
