$hessian                                                                        
        0.8820268917   0.2916100717   0.0062600980  -0.5499394511   0.0265557660
       -0.0151054700  -0.0787487292  -0.1634656702   0.0069962095  -0.2369774930
       -0.1496170339   0.0021888713  -0.0163612183  -0.0050831336  -0.0003397088
        0.2916100717   0.4240718082  -0.0110062420  -0.0355509488  -0.0039958029
       -0.0021736231  -0.1278927638  -0.2944791498   0.0116749239  -0.1430061969
       -0.1277056190   0.0008949272   0.0148398378   0.0021087636   0.0006100140
        0.0062600980  -0.0110062420   0.0691024183  -0.0118808299  -0.0005441565
       -0.0271352382   0.0050808341   0.0106934694  -0.0138051415   0.0019102133
        0.0007574496  -0.0346483554  -0.0013703155   0.0000994796   0.0064863167
       -0.5499394511  -0.0355509488  -0.0118808299   0.8900268758  -0.2829281104
        0.0362088524  -0.0828214117   0.1662159769  -0.0106841535  -0.0162227807
        0.0047670470  -0.0008434262  -0.2410432322   0.1474960353  -0.0128004428
        0.0265557660  -0.0039958029  -0.0005441565  -0.2829281104   0.4145549427
       -0.0255893019   0.1306399962  -0.2896101603   0.0182033817  -0.0151552323
        0.0019368004  -0.0001682589   0.1408875805  -0.1228857799   0.0080983357
       -0.0151054700  -0.0021736231  -0.0271352382   0.0362088524  -0.0255893019
        0.0706417882  -0.0087672283   0.0190868822  -0.0146156864   0.0001879481
        0.0003674244   0.0065135731  -0.0125241022   0.0083086184  -0.0354044367
       -0.0787487292  -0.1278927638   0.0050808341  -0.0828214117   0.1306399962
       -0.0087672283   0.1690299126  -0.0027768276   0.0043602574  -0.0036541850
       -0.0138537450   0.0004154583  -0.0038055867   0.0138833402  -0.0010893215
       -0.1634656702  -0.2944791498   0.0106934694   0.1662159769  -0.2896101603
        0.0190868822  -0.0027768276   0.5999928451  -0.0316208894   0.0028665348
       -0.0080360466   0.0009988809  -0.0028400140  -0.0078674884   0.0008416569
        0.0069962095   0.0116749239  -0.0138051415  -0.0106841535   0.0182033817
       -0.0146156864   0.0043602574  -0.0316208894   0.0104107544  -0.0004957815
        0.0005115894   0.0090204453  -0.0001765318   0.0012309943   0.0089896282
       -0.2369774930  -0.1430061969   0.0019102133  -0.0162227807  -0.0151552323
        0.0001879481  -0.0036541850   0.0028665348  -0.0004957815   0.2574850576
        0.1570220041  -0.0016500315  -0.0006305988  -0.0017271097   0.0000476516
       -0.1496170339  -0.1277056190   0.0007574496   0.0047670470   0.0019368004
        0.0003674244  -0.0138537450  -0.0080360466   0.0005115894   0.1570220041
        0.1316203202  -0.0016052918   0.0016817278   0.0021845450  -0.0000311716
        0.0021888713   0.0008949272  -0.0346483554  -0.0008434262  -0.0001682589
        0.0065135731   0.0004154583   0.0009988809   0.0090204453  -0.0016500315
       -0.0016052918   0.0184843070  -0.0001108719  -0.0001202574   0.0006300299
       -0.0163612183   0.0148398378  -0.0013703155  -0.2410432322   0.1408875805
       -0.0125241022  -0.0038055867  -0.0028400140  -0.0001765318  -0.0006305988
        0.0016817278  -0.0001108719   0.2618406361  -0.1545691322   0.0141818214
       -0.0050831336   0.0021087636   0.0000994796   0.1474960353  -0.1228857799
        0.0083086184   0.0138833402  -0.0078674884   0.0012309943  -0.0017271097
        0.0021845450  -0.0001202574  -0.1545691322   0.1264599596  -0.0095188350
       -0.0003397088   0.0006100140   0.0064863167  -0.0128004428   0.0080983357
       -0.0354044367  -0.0010893215   0.0008416569   0.0089896282   0.0000476516
       -0.0000311716   0.0006300299   0.0141818214  -0.0095188350   0.0192984619
