$hessian                                                                        
        1.4499642841   0.0291358950  -0.0162955267  -0.9890650000  -0.0353623488
        0.0057301442  -0.1282104434   0.0199244518   0.0105429066   0.0519686160
       -0.0190039684  -0.0086914563  -0.3846574567   0.0053059703   0.0087139322
        0.0291358950   0.0287915677   0.0009746321  -0.0267380351  -0.0118196163
        0.0003045991  -0.0092292844  -0.0007576007  -0.0008132122   0.0057493597
       -0.0008409466   0.0001378732   0.0010820648  -0.0153734042  -0.0006038922
       -0.0162955267   0.0009746321   0.0255552773   0.0090660025   0.0004626867
       -0.0111468640  -0.0011475854  -0.0015193101   0.0014662986   0.0012412587
        0.0007310193  -0.0014765978   0.0071358509  -0.0006490280  -0.0143981140
       -0.9890650000  -0.0267380351   0.0090660025   1.3788518783   0.0580371899
       -0.0034181852  -0.2375563124  -0.0660832076  -0.0225663039  -0.1409365080
        0.0393208290   0.0185243542  -0.0112940580  -0.0045367762  -0.0016058676
       -0.0353623488  -0.0118196163   0.0004626867   0.0580371899   0.0370581888
        0.0030063799  -0.0461763030  -0.0213656702  -0.0033328944   0.0237431234
       -0.0002289486   0.0002182277  -0.0002416615  -0.0036439538  -0.0003544000
        0.0057301442   0.0003045991  -0.0111468640  -0.0034181852   0.0030063799
        0.0280519635  -0.0146112262  -0.0028421819  -0.0121457631   0.0122620839
       -0.0001656361  -0.0019509060   0.0000371833  -0.0003031611  -0.0028084304
       -0.1282104434  -0.0092292844  -0.0011475854  -0.2375563124  -0.0461763030
       -0.0146112262   1.1573588028  -0.1163633583  -0.0688461645  -0.7899071678
        0.1666007532   0.0823957519  -0.0016848793   0.0051681926   0.0022092241
        0.0199244518  -0.0007576007  -0.0015193101  -0.0660832076  -0.0213656702
       -0.0028421819  -0.1163633583   0.0625752479   0.0255158485   0.1615360863
       -0.0461718828  -0.0221768419   0.0009860279   0.0057199057   0.0010224853
        0.0105429066  -0.0008132122   0.0014662986  -0.0225663039  -0.0033328944
       -0.0121457631  -0.0688461645   0.0255158485   0.0167119764   0.0803745183
       -0.0222635909  -0.0095140393   0.0004950435   0.0008938489   0.0034815273
        0.0519686160   0.0057493597   0.0012412587  -0.1409365080   0.0237431234
        0.0122620839  -0.7899071678   0.1615360863   0.0803745183   0.8779209262
       -0.1862828754  -0.0919916275   0.0009541336  -0.0047456940  -0.0018862334
       -0.0190039684  -0.0008409466   0.0007310193   0.0393208290  -0.0002289486
       -0.0001656361   0.1666007532  -0.0461718828  -0.0222635909  -0.1862828754
        0.0462195224   0.0220710887  -0.0006347385   0.0010222556  -0.0003728810
       -0.0086914563   0.0001378732  -0.0014765978   0.0185243542   0.0002182277
       -0.0019509060   0.0823957519  -0.0221768419  -0.0095140393  -0.0919916275
        0.0220710887   0.0110665485  -0.0002370224  -0.0002503478   0.0018749946
       -0.3846574567   0.0010820648   0.0071358509  -0.0112940580  -0.0002416615
        0.0000371833  -0.0016848793   0.0009860279   0.0004950435   0.0009541336
       -0.0006347385  -0.0002370224   0.3966822604  -0.0011916927  -0.0074310553
        0.0053059703  -0.0153734042  -0.0006490280  -0.0045367762  -0.0036439538
       -0.0003031611   0.0051681926   0.0057199057   0.0008938489  -0.0047456940
        0.0010222556  -0.0002503478  -0.0011916927   0.0122751966   0.0003086879
        0.0087139322  -0.0006038922  -0.0143981140  -0.0016058676  -0.0003544000
       -0.0028084304   0.0022092241   0.0010224853   0.0034815273  -0.0018862334
       -0.0003728810   0.0018749946  -0.0074310553   0.0003086879   0.0118500225
