[Molden Format]
[Title]
[Atoms] AU
C      1     6 -0.24407715757739E+01 -0.22589848541873E-02  0.47636932194810E-01
C      2     6 -0.16217545582888E+00  0.77636098490507E-01  0.33205711442427E-01
C      3     6  0.24066876163380E+01  0.23095081093613E+00  0.47171679532955E-01
C      4     6  0.46193082566124E+01 -0.31340180923380E+00 -0.21504691358492E+00
H      5     1 -0.44230488413410E+01  0.70738846646731E-02  0.87034480140774E-01
[GTO]
           1 0
 s           4   1.0000000000000000     
   51.049363095579913      -0.16312063210127389     
   8.7911227406887544      -0.19911024581000730     
  0.70640422258929825       0.31882047753655751     
  0.26922813413411617       0.12706504184240380     
 p           4   1.0000000000000000     
   5.8263656140800002       0.73716451545209605     
   1.5106896018720002       0.68216371614850257     
  0.53256483288000001       0.35783053929253711     
  0.21202323690600003        5.3983030275847881E-002

           2 0
 s           4   1.0000000000000000     
   51.049363095579913      -0.16312063210127389     
   8.7911227406887544      -0.19911024581000730     
  0.70640422258929825       0.31882047753655751     
  0.26922813413411617       0.12706504184240380     
 p           4   1.0000000000000000     
   5.8263656140800002       0.73716451545209605     
   1.5106896018720002       0.68216371614850257     
  0.53256483288000001       0.35783053929253711     
  0.21202323690600003        5.3983030275847881E-002

           3 0
 s           4   1.0000000000000000     
   51.049363095579913      -0.16312063210127389     
   8.7911227406887544      -0.19911024581000730     
  0.70640422258929825       0.31882047753655751     
  0.26922813413411617       0.12706504184240380     
 p           4   1.0000000000000000     
   5.8263656140800002       0.73716451545209605     
   1.5106896018720002       0.68216371614850257     
  0.53256483288000001       0.35783053929253711     
  0.21202323690600003        5.3983030275847881E-002

           4 0
 s           4   1.0000000000000000     
   51.049363095579913      -0.16312063210127389     
   8.7911227406887544      -0.19911024581000730     
  0.70640422258929825       0.31882047753655751     
  0.26922813413411617       0.12706504184240380     
 p           4   1.0000000000000000     
   5.8263656140800002       0.73716451545209605     
   1.5106896018720002       0.68216371614850257     
  0.53256483288000001       0.35783053929253711     
  0.21202323690600003        5.3983030275847881E-002

           5 0
 s           3   1.0000000000000000     
   3.3702276975336001       0.27359110588908298     
  0.61389118221497996       0.26460540653860526     
  0.16614291148415999        8.2465947534082318E-002

[MO]
Sym=     1a
Ene=  -0.64101483574672280     
Spin= Alpha
Occup=     2.00000000
           1 -0.32657361343116803     
           2 -0.16366560507064418     
           3  -7.5534205318553106E-003
           4   2.7971438427062050E-004
           5 -0.49435050309293671     
           6   1.6348632812063165E-002
           7  -8.0666791221104233E-004
           8  -8.8476028061117791E-004
           9 -0.38781116382651809     
          10   5.4887557975448184E-002
          11   3.0544061414290793E-002
          12   1.1318506534758572E-002
          13 -0.20820417543165762     
          14  0.11740301755791997     
          15  -1.8498557904783369E-002
          16  -9.7085864471979071E-003
          17  -5.4259566390154640E-002
Sym=     2a
Ene=  -0.62960090410824243     
Spin= Alpha
Occup=     2.00000000
           1 -0.33367836383044308     
           2 -0.10093587620069189     
           3  -7.4201349369411133E-003
           4  -8.6471220921811463E-004
           5 -0.19918913674652966     
           6  0.22741277931694220     
           7  -1.4508653769957902E-003
           8  -5.0866942448342892E-003
           9  0.37726702383410810     
          10  0.17654741818692449     
          11  -4.1386986256272539E-002
          12  -2.0137584341604814E-002
          13  0.39540628499397168     
          14 -0.15546965615806974     
          15   3.4122230986670631E-002
          16   1.6740129344399571E-002
          17  -7.5166627189825197E-002
Sym=     3a
Ene=  -0.57716114241511685     
Spin= Alpha
Occup=     2.00000000
           1 -0.35320576743430665     
           2  0.10650011672076456     
           3   5.3920044503502872E-003
           4   3.0072526972993278E-004
           5  0.23223838821150838     
           6  0.31951019878239073     
           7   2.8376785334922602E-002
           8   5.3153013960855477E-003
           9  0.12573470476373463     
          10 -0.37104742154551779     
          11   3.1583171187581596E-002
          12   1.9729989197142372E-002
          13 -0.35124869801288694     
          14   1.7185912036655572E-002
          15  -2.0778835943094032E-002
          16  -8.7526141296584946E-003
          17 -0.20576282802905749     
Sym=     4a
Ene=  -0.51765364734754926     
Spin= Alpha
Occup=     2.00000000
           1  0.18307812293531639     
           2 -0.46077777291065458     
           3   1.4539414949896931E-002
           4   1.4564319261753726E-002
           5  -8.5680707718256477E-002
           6  0.26791486810646992     
           7   4.8445712683924128E-002
           8   1.3975434438090746E-002
           9  0.17637375503372316     
          10 -0.18471678400291072     
          11   4.1431673625455911E-002
          12   1.9938849186684614E-002
          13 -0.20268748227373959     
          14  -5.9094439550384632E-002
          15   1.1683555768722200E-002
          16   5.6988570876332321E-003
          17  0.45890593361050441     
Sym=     5a
Ene=  -0.48097415140217370     
Spin= Alpha
Occup=     2.00000000
           1  -3.5653323110674265E-004
           2  -7.2203038763089256E-003
           3  0.13285267664390238     
           4 -0.34913745741338997     
           5   8.4226930970561606E-004
           6  -8.4241424842839193E-003
           7  0.18507179403133400     
           8 -0.48616750180235058     
           9  -1.8163790258482197E-003
          10  -9.5686929093322833E-003
          11  0.16533898397967170     
          12 -0.43438176685437013     
          13   3.9427543961489887E-004
          14  -6.1845721298115800E-003
          15  0.10498634706270957     
          16 -0.27604646285014123     
          17   5.8645757476210789E-004
Sym=     6a
Ene=  -0.48079239308917765     
Spin= Alpha
Occup=     2.00000000
           1  -7.9556762765337231E-003
           2   3.4361104566716143E-002
           3  0.34726581862116845     
           4  0.13135138982309350     
           5  -1.0734717678412857E-002
           6  -5.6838188797344993E-002
           7  0.47859428053799574     
           8  0.18295336191969627     
           9   7.4236140499072914E-002
          10   7.5145468905689017E-002
          11  0.42805898064346420     
          12  0.16122997734746844     
          13  -3.3967439650389969E-003
          14   5.4723603282164857E-002
          15  0.27570781032977421     
          16  0.10380874538297087     
          17  -3.6595921935311387E-002
Sym=     7a
Ene=  -0.42133663894264001     
Spin= Alpha
Occup=     1.99999867
           1   3.1885779812501625E-002
           2   4.0726617958704740E-002
           3 -0.43425745065204013     
           4 -0.17636858036772871     
           5  -5.0686595725063031E-002
           6  -5.5464942501194374E-002
           7 -0.29401663858138077     
           8 -0.11781464409564905     
           9  0.13654046571489573     
          10  0.12208263593526313     
          11  0.32968855989923707     
          12  0.13082053317959602     
          13 -0.30436128023329467     
          14 -0.16404320286614515     
          15  0.47753181152198293     
          16  0.19601636213952212     
          17  -3.3808170046998501E-002
Sym=     8a
Ene=  -0.41688636592140021     
Spin= Alpha
Occup=     1.99985635
           1  -7.4339543168802907E-004
           2  -9.3927606500668025E-003
           3  0.19484491583076421     
           4 -0.48213302241285577     
           5   4.1106817429409321E-004
           6  -6.0668204399805820E-003
           7  0.12325046968221275     
           8 -0.30500641451411969     
           9   8.0194460221180933E-005
          10   7.4393246372518483E-003
          11 -0.15771161724340341     
          12  0.39020275135576526     
          13  -8.6669584727436765E-005
          14   9.4927062139261338E-003
          15 -0.20373805556447325     
          16  0.50418249118578440     
          17   1.7137950957233394E-004
Sym=     9a
Ene=  -0.40008319029919037     
Spin= Alpha
Occup=     1.00014498
           1   3.5848447323294473E-002
           2   6.2711183128146192E-002
           3  0.21877215742205566     
           4   8.7053179764308999E-002
           5 -0.14010492686691800     
           6 -0.16704573554951910     
           7   9.7430098356230149E-002
           8   4.2523428240738140E-002
           9   9.8554210141452048E-002
          10  0.16287328773955170     
          11 -0.20202031989549596     
          12  -8.4897329827696322E-002
          13 -0.54089612888818916     
          14 -0.67434914072723029     
          15 -0.11381808695616284     
          16  -3.3365383409224736E-002
          17  -7.1625279264320815E-002
Sym=    10a
Ene=  -0.24322928462230634     
Spin= Alpha
Occup=     0.00000000
           1   5.0797271399710964E-002
           2   2.1104145841051296E-002
           3 -0.57779497507292965     
           4 -0.23531546783004254     
           5  -8.2860424984713174E-002
           6  -6.9773522301018784E-002
           7  0.40893092240354623     
           8  0.16749297182126946     
           9  0.10511260620009723     
          10   1.4031772114040950E-002
          11  0.40274547936237232     
          12  0.16334173578157732     
          13   2.7989038666663305E-002
          14 -0.13710867868725238     
          15 -0.60594692512217141     
          16 -0.24360153433898138     
          17  -4.3370813768111097E-002
Sym=    11a
Ene=  -0.24011742978795853     
Spin= Alpha
Occup=     0.00000000
           1   1.0968911495076326E-003
           2   1.1485542456928517E-002
           3 -0.24393432934660458     
           4  0.60039031261919218     
           5   1.9198062439199697E-004
           6  -8.3659264911532874E-003
           7  0.17614245714823637     
           8 -0.43340944015825689     
           9  -4.9777094688495530E-005
          10  -7.3075221570995351E-003
          11  0.16105444078027184     
          12 -0.39645277713012955     
          13   7.8520426537739035E-006
          14   1.1145047911855506E-002
          15 -0.24582857115728893     
          16  0.60512719291774597     
          17  -6.9450832837031047E-004
Sym=    12a
Ene=   -9.6691327441622552E-002
Spin= Alpha
Occup=     0.00000000
           1  -4.2525922557118706E-002
           2  -1.4964379118449424E-002
           3 -0.48896115009251739     
           4 -0.19701420226798952     
           5   9.7054140033929245E-002
           6   3.2018607566990522E-002
           7  0.68689023321752285     
           8  0.27666990779731432     
           9 -0.20482047439102050     
          10  -3.2872681791738197E-002
          11 -0.63151543998436876     
          12 -0.25404952394599711     
          13   1.2962898496932119E-002
          14   3.0989333766029688E-003
          15  0.45772003216370666     
          16  0.18452278064284114     
          17   3.2215540221885081E-002
Sym=    13a
Ene=   -8.4503262099780097E-002
Spin= Alpha
Occup=     0.00000000
           1   8.0711519598739305E-004
           2   8.4429669461980467E-003
           3 -0.18761046970490086     
           4  0.46507583840986166     
           5   6.2879099926933129E-004
           6  -1.3084167478600884E-002
           7  0.27288405898681140     
           8 -0.67638255084181753     
           9   4.4146995222505210E-005
          10   1.3202750614843451E-002
          11 -0.27774981367261137     
          12  0.68838190373766450     
          13   1.0001817109526964E-005
          14  -9.2497155830213174E-003
          15  0.19425514209165964     
          16 -0.48142612118070088     
          17  -8.1870209621423095E-004
Sym=    14a
Ene=    7.3546709735713145E-002
Spin= Alpha
Occup=     0.00000000
           1  0.87024464441311378     
           2 -0.18689314309457611     
           3   5.7128871949039366E-003
           4   4.3863560470682366E-003
           5 -0.68613995883488699     
           6  -3.4591916293231141E-002
           7   3.2552555927148910E-002
           8   1.3608450823312742E-002
           9  0.50861090651426188     
          10 -0.32900711037637964     
          11 -0.16308931242451774     
          12  -5.9790455379099550E-002
          13  -7.1693349619436783E-002
          14  0.26227874668792128     
          15   5.9175606051719010E-002
          16   1.8991107831019725E-002
          17 -0.81598868529576019     
Sym=    15a
Ene=   0.34530442711709236     
Spin= Alpha
Occup=     0.00000000
           1 -0.51832834229083258     
           2  0.62997042149282745     
           3  -1.8321098079043984E-002
           4  -1.8133101828496666E-002
           5 -0.61299541286902615     
           6 -0.54650419375472792     
           7   2.8170649807942712E-002
           8   2.0599039690359092E-002
           9  0.82346852106609736     
          10 -0.28296338571761331     
          11 -0.18396019767274915     
          12  -6.8924591677999081E-002
          13 -0.21649093468108968     
          14  0.40204018882734915     
          15  -4.1774492511329796E-003
          16  -9.3697224735628665E-003
          17  0.75794552230443224     
Sym=    16a
Ene=    1.0721059786655900     
Spin= Alpha
Occup=     0.00000000
           1 -0.24636004772749515     
           2 -0.69014658012810826     
           3  -3.5015815162999821E-002
           4  -6.9701624895377237E-004
           5  0.76328897001832208     
           6 -0.26750780110179473     
           7   5.5674884030709200E-002
           8   2.8709596201267555E-002
           9  0.72580307114989484     
          10   1.0192491325342614     
          11 -0.21067529520117836     
          12 -0.10479449940973483     
          13 -0.84353184699393913     
          14  0.84849912306593434     
          15 -0.22239295286119670     
          16 -0.10601519736904967     
          17 -0.33435551275508291     
Sym=    17a
Ene=    1.5156275771590502     
Spin= Alpha
Occup=     0.00000000
           1 -0.68779754920533653     
           2  -1.1102632289878003     
           3  -1.8674477265789653E-002
           4   1.4800482204992308E-002
           5  0.40203680031532696     
           6  -1.3769636259376536     
           7  -8.9070544044678540E-002
           8  -8.5379496894352862E-003
           9  0.11715721825506166     
          10 -0.94784129740194711     
          11   6.3895856216550889E-002
          12   4.3327599553665719E-002
          13  0.48190702401790880     
          14 -0.40659678232870994     
          15  0.14025755170387716     
          16   6.4590083185562808E-002
          17 -0.42446505968810749     
