 Entering Gaussian System
 *********************************************
 Gaussian 98:
 frequency output generated by the xtb code
 *********************************************
                         Standard orientation:
 --------------------------------------------------------------------
  Center     Atomic     Atomic              Coordinates (Angstroms)
  Number     Number      Type              X           Y           Z
 --------------------------------------------------------------------
    1          6             0       -1.291601   -0.001195    0.025208
    2          6             0       -0.085820    0.041083    0.017572
    3          6             0        1.273564    0.122214    0.024962
    4          6             0        2.444433   -0.165845   -0.113798
    5          1             0       -2.340577    0.003743    0.046057
 --------------------------------------------------------------------
     1 basis functions        1 primitive gaussians
     1 alpha electrons        1 beta electrons

 Harmonic frequencies (cm**-1), IR intensities (KM/Mole),
 Raman scattering activities (A**4/amu), Raman depolarization ratios,
 reduced masses (AMU), force constants (mDyne/A) and normal coordinates:
                      1                      2                      3
                        a                      a                      a 
 Frequencies --   185.0759               289.5550               366.2098
 Red. masses --    11.4567                11.9248                11.9522
 Frc consts  --     0.0000                 0.0000                 0.0000
 IR Inten    --     0.3889                 0.0599                 0.5940
 Raman Activ --     0.0000                 0.0000                 0.0000
 Depolar     --     0.0000                 0.0000                 0.0000
 Atom AN      X      Y      Z        X      Y      Z        X      Y      Z
   1   6     0.08  -0.38  -0.15     0.01  -0.16   0.39     0.05   0.28   0.11
   2   6     0.06   0.43   0.17    -0.01   0.31  -0.77     0.09  -0.65  -0.26
   3   6     0.05   0.48   0.19     0.01  -0.13   0.31    -0.00   0.55   0.22
   4   6    -0.19  -0.47  -0.19     0.00  -0.02   0.04    -0.15  -0.17  -0.07
   5   1     0.02  -0.21  -0.08     0.00  -0.03   0.08     0.01  -0.07  -0.03
                      4                      5                      6
                        a                      a                      a 
 Frequencies --   587.8148               616.5106               950.5115
 Red. masses --     2.3582                 2.7169                11.6801
 Frc consts  --     0.0000                 0.0000                 0.0000
 IR Inten    --     0.2424                 0.3967                 0.3031
 Raman Activ --     0.0000                 0.0000                 0.0000
 Depolar     --     0.0000                 0.0000                 0.0000
 Atom AN      X      Y      Z        X      Y      Z        X      Y      Z
   1   6    -0.01   0.13  -0.31    -0.02   0.32   0.13    -0.55  -0.02   0.00
   2   6    -0.00   0.02  -0.04    -0.03   0.07   0.03    -0.37  -0.03  -0.01
   3   6     0.00  -0.03   0.06     0.02  -0.16  -0.06     0.43   0.17   0.06
   4   6     0.00  -0.02   0.04     0.03   0.01   0.00     0.54  -0.12  -0.06
   5   1     0.02  -0.36   0.87    -0.02  -0.85  -0.35    -0.17   0.01   0.01
                      7                      8                      9
                        a                      a                      a 
 Frequencies --  2046.1895              2176.3120              3390.0228
 Red. masses --    12.0077                11.1543                 2.4292
 Frc consts  --     0.0000                 0.0000                 0.0000
 IR Inten    --     2.2694                 0.8090                 0.0804
 Raman Activ --     0.0000                 0.0000                 0.0000
 Depolar     --     0.0000                 0.0000                 0.0000
 Atom AN      X      Y      Z        X      Y      Z        X      Y      Z
   1   6    -0.02  -0.00  -0.00    -0.56  -0.02   0.00     0.35   0.00  -0.01
   2   6    -0.12  -0.03  -0.01     0.77   0.03  -0.00    -0.08  -0.00   0.00
   3   6     0.75  -0.10  -0.06    -0.01  -0.04  -0.02    -0.01   0.00   0.00
   4   6    -0.62   0.13   0.06    -0.12   0.03   0.01     0.01  -0.00  -0.00
   5   1    -0.01   0.01   0.01    -0.28  -0.01   0.00    -0.93   0.00   0.02
