5
 energy: -8.567342478863 gnorm: 0.298353894340 xtb: 6.2.2 (9d81278992624c895f80dd42a50cac0aa55982e2)
C        -1.18052300000000   -0.16322300000000   -0.49379000000000
C        -0.08001500000000    0.87017400000000   -0.32385600000000
C         1.03903600000000    0.33168000000000    0.55221400000000
C         1.88331100000000   -0.66525900000000   -0.21917500000000
H        -1.66180900000000   -0.37337200000000    0.48460800000000
5
 energy: -8.667077542045 gnorm: 0.185067417910 xtb: 6.2.2 (9d81278992624c895f80dd42a50cac0aa55982e2)
C        -1.10936058332014   -0.12808470168571   -0.45932494669286
C        -0.09094302070727    0.76943070036776   -0.24581942910540
C         1.04146260619679    0.31320348996922    0.42952818670920
C         1.85148119091908   -0.60751410817971   -0.17598743089908
H        -1.69264019308845   -0.34703538047156    0.45160461998815
5
 energy: -8.719517575100 gnorm: 0.163886997577 xtb: 6.2.2 (9d81278992624c895f80dd42a50cac0aa55982e2)
C        -1.09304070910291   -0.01747652717932   -0.39511501013363
C        -0.12290854670333    0.62512847015455   -0.16086296447024
C         1.08154969644044    0.28669483018170    0.24361488151808
C         1.90110252456397   -0.54430702872975   -0.08727416514451
H        -1.76670296519818   -0.35003974442719    0.39963825823030
5
 energy: -8.754182498589 gnorm: 0.110348329557 xtb: 6.2.2 (9d81278992624c895f80dd42a50cac0aa55982e2)
C        -1.24322650021620    0.03788054820052   -0.36831423835173
C        -0.12002504773211    0.54099871889045   -0.08888895519878
C         1.24322738405867    0.33017366825527    0.14564119759435
C         2.06129809133789   -0.53633542512264   -0.03631324427094
H        -1.94127392744825   -0.37271751022361    0.34787624022711
5
 energy: -8.765942419467 gnorm: 0.126750326248 xtb: 6.2.2 (9d81278992624c895f80dd42a50cac0aa55982e2)
C        -1.24379701756495    0.04357972582283   -0.27308121455550
C        -0.12923762584427    0.48454068260865   -0.04262436785283
C         1.27347249534225    0.30421516211776    0.05804220010176
C         2.25297268235879   -0.50517347667232   -0.03836406068883
H        -2.15341053429182   -0.32716209387691    0.29602844299542
5
 energy: -8.777580274552 gnorm: 0.127503994605 xtb: 6.2.2 (9d81278992624c895f80dd42a50cac0aa55982e2)
C        -1.28030388556220    0.06399450307189   -0.19463068878037
C        -0.05204299944923    0.35429973345712   -0.06656374508671
C         1.26334492378025    0.25301335955923    0.06923537256088
C         2.31922986213360   -0.39338029310597   -0.06773604005816
H        -2.25022790090243   -0.27792730298226    0.25969610136439
5
 energy: -8.756945010013 gnorm: 0.438714129881 xtb: 6.2.2 (9d81278992624c895f80dd42a50cac0aa55982e2)
C        -1.22329954063771   -0.00136608194470   -0.13884883522495
C        -0.07684535289891    0.25507219399752    0.02958872242280
C         1.35160211177342    0.30971981550157    0.05189787284360
C         2.21748148847592   -0.36282539336152   -0.09319643576122
H        -2.26893870671273   -0.20060053419286    0.15055967571978
5
 energy: -8.783780678183 gnorm: 0.124855344973 xtb: 6.2.2 (9d81278992624c895f80dd42a50cac0aa55982e2)
C        -1.28674843792672    0.02520435271553   -0.13990484278675
C        -0.12073445228531    0.24908335636137    0.02692872138160
C         1.27120856977532    0.26450848803421    0.03943680436179
C         2.31989468631378   -0.37289349486289   -0.07671730177196
H        -2.18362036587707   -0.16590270224820    0.15025761881535
5
 energy: -8.753223622002 gnorm: 0.213413029417 xtb: 6.2.2 (9d81278992624c895f80dd42a50cac0aa55982e2)
C        -1.20201788178827   -0.03588703352407   -0.07966577158995
C        -0.03176023605005    0.30108616081173    0.00070523404662
C         1.27568113855028    0.26907448388633    0.05357156333121
C         2.42501944284687   -0.36281454862640   -0.14842239532166
H        -2.46692246355884   -0.17145906254759    0.17381236953382
5
 energy: -8.787215786939 gnorm: 0.078629633999 xtb: 6.2.2 (9d81278992624c895f80dd42a50cac0aa55982e2)
C        -1.26994405400405    0.02748454586476   -0.08739200767857
C        -0.05821305306465    0.23727872520097    0.02137063021578
C         1.31455647071011    0.28608779478819    0.02207132755023
C         2.38004372894190   -0.35778027782418   -0.09814660387718
H        -2.36644309258331   -0.19307078802972    0.14209765378977
5
 energy: -8.777918675230 gnorm: 0.186359672010 xtb: 6.2.2 (9d81278992624c895f80dd42a50cac0aa55982e2)
C        -1.27443380250792   -0.01641472665520   -0.09001828915045
C        -0.12122624878534    0.16946954537986    0.03322679227529
C         1.25033484586010    0.19367677537745    0.05418982444478
C         2.32720224254995   -0.28195296223794   -0.10267487411341
H        -2.18187703711680   -0.06477863186416    0.10527754654382
5
 energy: -8.795787583753 gnorm: 0.054680576640 xtb: 6.2.2 (9d81278992624c895f80dd42a50cac0aa55982e2)
C        -1.27226201912187   -0.02594450601749   -0.07406142972909
C        -0.09075327338786    0.15857316127556    0.03971814921123
C         1.27491295810011    0.19984614116624    0.04502728927681
C         2.40492948509159   -0.27119109692394   -0.12326765274587
H        -2.31682715068198   -0.06128369950035    0.11258464398697
5
 energy: -8.796233593984 gnorm: 0.055818297557 xtb: 6.2.2 (9d81278992624c895f80dd42a50cac0aa55982e2)
C        -1.28557274855474    0.01107239046766   -0.04763928851841
C        -0.06558387680409    0.14192814005433    0.03013079078557
C         1.28580957956370    0.22039769205226    0.03079826796702
C         2.38915407684044   -0.27294107590575   -0.11046335230185
H        -2.32380703104531   -0.10045714666849    0.09717458206770
5
 energy: -8.797497026921 gnorm: 0.028381080778 xtb: 6.2.2 (9d81278992624c895f80dd42a50cac0aa55982e2)
C        -1.29501713839177   -0.00296819586370   -0.02896794036602
C        -0.08423572227208    0.09672317862124    0.04945980193521
C         1.28586034329579    0.18772091642391    0.02087192298573
C         2.42855726971081   -0.23630684776131   -0.11502156210889
H        -2.33516475234276   -0.04516905142012    0.07365877755401
5
 energy: -8.797305279676 gnorm: 0.058415534525 xtb: 6.2.2 (9d81278992624c895f80dd42a50cac0aa55982e2)
C        -1.26805667219093   -0.01821661772319   -0.00864591675406
C        -0.08650496929587    0.10793479551938    0.04984694567670
C         1.27465187001865    0.18552409352251    0.02077001825018
C         2.40364394918349   -0.23694130255766   -0.12006666875573
H        -2.32373417771535   -0.03830096876103    0.05809662158295
5
 energy: -8.798274831775 gnorm: 0.015380971678 xtb: 6.2.2 (9d81278992624c895f80dd42a50cac0aa55982e2)
C        -1.28477069664010   -0.00530561711002    0.00201715314011
C        -0.08182394500369    0.08202562211754    0.04519096509658
C         1.27366966487249    0.16988609753166    0.01690084912620
C         2.42560823327399   -0.21657247631476   -0.11732293152545
H        -2.33268325650269   -0.03003362622441    0.05321496416260
5
 energy: -8.798405246598 gnorm: 0.007140801936 xtb: 6.2.2 (9d81278992624c895f80dd42a50cac0aa55982e2)
C        -1.28878104149066   -0.00138042076615    0.01649543972591
C        -0.08122615044523    0.06461473083831    0.04769387546771
C         1.27759334806601    0.16523073841773    0.01156714114179
C         2.43096227180300   -0.20547864981256   -0.11635940010058
H        -2.33854842793313   -0.02298639867731    0.04060394376522
5
 energy: -8.798485443423 gnorm: 0.008416740012 xtb: 6.2.2 (9d81278992624c895f80dd42a50cac0aa55982e2)
C        -1.28935379307061   -0.00072845645325    0.02887939329684
C        -0.08176226606827    0.05266738174620    0.04489409488963
C         1.27402468247220    0.15231520127265    0.01049354458261
C         2.43565095632486   -0.19171448407191   -0.11669202634267
H        -2.33855957965819   -0.01253964249367    0.03242599357363
5
 energy: -8.798525883055 gnorm: 0.003311236548 xtb: 6.2.2 (9d81278992624c895f80dd42a50cac0aa55982e2)
C        -1.28870416344496   -0.00082710555619    0.03344547409696
C        -0.08298654082448    0.04984562710452    0.04140496120140
C         1.27284742931312    0.14503642521599    0.01179050543753
C         2.43528854757655   -0.18549196024739   -0.11659378898875
H        -2.33644527262023   -0.00856298651692    0.02995384825289
5
 energy: -8.798550329726 gnorm: 0.003159394323 xtb: 6.2.2 (9d81278992624c895f80dd42a50cac0aa55982e2)
C        -1.28977871901289   -0.00109299557207    0.03571318021178
C        -0.08457811927734    0.04599304550649    0.03790516174084
C         1.27265290204739    0.13669516093197    0.01394837112056
C         2.43873693449959   -0.17832669853966   -0.11701281699379
H        -2.33703299825676   -0.00326851232671    0.02944710392066
5
 energy: -8.798583111361 gnorm: 0.002349286327 xtb: 6.2.2 (9d81278992624c895f80dd42a50cac0aa55982e2)
C        -1.29122254175539   -0.00078765306273    0.03485982727414
C        -0.08606484494596    0.04461652196371    0.02989915719006
C         1.27330099977345    0.12581472968607    0.01999599311209
C         2.44229436356185   -0.17023582331636   -0.11788849346502
H        -2.33830797663395    0.00059222472931    0.03313451588877
5
 energy: -8.798552120770 gnorm: 0.002790745429 xtb: 6.2.2 (9d81278992624c895f80dd42a50cac0aa55982e2)
C        -1.29206061956469   -0.00450377562954    0.00590141547456
C        -0.08601779658876    0.03825082387098    0.00455507401836
C         1.27363132296952    0.12059099081733    0.03222029737269
C         2.44538802287666   -0.16257770723872   -0.10893974463366
H        -2.34094092969272    0.00823966817996    0.06626395776811
5
 energy: -8.798604827901 gnorm: 0.001267373316 xtb: 6.2.2 (9d81278992624c895f80dd42a50cac0aa55982e2)
C        -1.29192188090510   -0.00098143918956    0.02991109743314
C        -0.08582949751960    0.04026350833874    0.01215587975333
C         1.27361645968286    0.12194086781556    0.02665079809639
C         2.44455993971449   -0.16528631423219   -0.11354571488475
H        -2.34042502097266    0.00406337726746    0.04482893960194
5
 energy: -8.798558126495 gnorm: 0.002061041073 xtb: 6.2.2 (9d81278992624c895f80dd42a50cac0aa55982e2)
C        -1.29086746652166   -0.00328253120048    0.01625816309616
C        -0.08534858324275    0.04702524896138    0.04217837563400
C         1.27371684362621    0.12756581513800    0.01760556556381
C         2.44216865417603   -0.17212519476269   -0.11779083788364
H        -2.33966944803783    0.00081666186380    0.04174973358972
5
 energy: -8.798603757818 gnorm: 0.000971534790 xtb: 6.2.2 (9d81278992624c895f80dd42a50cac0aa55982e2)
C        -1.29127199459885   -0.00217968472330    0.02162139723304
C        -0.08563090869078    0.04319637518423    0.02574255845087
C         1.27358811253487    0.12426370271595    0.02271415917792
C         2.44355030989954   -0.16812346001745   -0.11512491974746
H        -2.34023551914478    0.00284306684058    0.04504780488569
5
 energy: -8.798607818121 gnorm: 0.001312919202 xtb: 6.2.2 (9d81278992624c895f80dd42a50cac0aa55982e2)
C        -1.29210058952413   -0.00096719531752    0.02697020686256
C        -0.08571761572252    0.04023371563975    0.01346337456254
C         1.27390504762447    0.12155396268683    0.02626199902631
C         2.44504796311358   -0.16499189994706   -0.11324018999510
H        -2.34113480549140    0.00417141693801    0.04654560954375
5
 energy: -8.798609989750 gnorm: 0.000456447756 xtb: 6.2.2 (9d81278992624c895f80dd42a50cac0aa55982e2)
C        -1.29160089646307   -0.00120221021061    0.02520387061794
C        -0.08581983980134    0.04108277785760    0.01757147953281
C         1.27356363141944    0.12222054211650    0.02496683901584
C         2.44443415187381   -0.16583211306622   -0.11378969324997
H        -2.34057704702884    0.00373100330274    0.04604850408343
