$hessian                                                                        
        0.4679378546  -0.0256050972   0.0076042878  -0.3329712527   0.0200245953
       -0.0059601378  -0.0462031196  -0.0022753864   0.0236622810  -0.0421211217
        0.0256528888  -0.0103846103  -0.0466423606  -0.0177970005  -0.0149218206
       -0.0256050972   0.0165595853  -0.0004207767   0.0200075948   0.0204985538
        0.0003077109  -0.0019690750  -0.0274966671  -0.0057100202   0.0236065714
       -0.0033452346  -0.0103683223  -0.0160399940  -0.0062162374   0.0161914084
        0.0076042878  -0.0004207767   0.0152770962  -0.0059407306   0.0003286680
        0.0214848118   0.0214474755  -0.0056284670   0.0040521070  -0.0095430824
       -0.0103649090  -0.0240807529  -0.0135679503   0.0160854848  -0.0167332622
       -0.3329712527   0.0200075948  -0.0059407306   0.4549110972  -0.0142662189
        0.0042468057  -0.0432185134  -0.0008405296   0.0452156800  -0.0341417298
        0.0289397473  -0.0112253675  -0.0445796014  -0.0338405936  -0.0322963876
        0.0200245953   0.0204985538   0.0003286680  -0.0142662189   0.2009030643
       -0.0002069938  -0.0058660279   0.0530183505   0.0325723572   0.0632145465
       -0.1733434446   0.0936581447  -0.0631068950  -0.1010765241  -0.1263521760
       -0.0059601378   0.0003077109   0.0214848118   0.0042468057  -0.0002069938
        0.2001468701   0.0818806821   0.0306989420  -0.1980566056  -0.0252129590
        0.0938358987   0.0190830889  -0.0549543910  -0.1246355578  -0.0426581652
       -0.0462031196  -0.0019690750   0.0214474755  -0.0432185134  -0.0058660279
        0.0818806821   0.0784797391   0.0059827160  -0.0765355513   0.0044852919
       -0.0032792185  -0.0138071317   0.0064566019   0.0051316053  -0.0129854746
       -0.0022753864  -0.0274966671  -0.0056284670  -0.0008405296   0.0530183505
        0.0306989420   0.0059827160  -0.0022448727  -0.0281140494  -0.0155484373
       -0.0119638189   0.0044259996   0.0126816373  -0.0113129918  -0.0013824251
        0.0236622810  -0.0057100202   0.0040521070   0.0452156800   0.0325723572
       -0.1980566056  -0.0765355513  -0.0281140494   0.2289247559   0.0022605144
        0.0072882485  -0.0161118207   0.0053970758  -0.0060365360  -0.0188084367
       -0.0421211217   0.0236065714  -0.0095430824  -0.0341417298   0.0632145465
       -0.0252129590   0.0044852919  -0.0155484373   0.0022605144   0.0670820586
       -0.0584801445   0.0233867687   0.0046955009  -0.0127925360   0.0091087583
        0.0256528888  -0.0033452346  -0.0103649090   0.0289397473  -0.1733434446
        0.0938358987  -0.0032792185  -0.0119638189   0.0072882485  -0.0584801445
        0.2084804978  -0.0870184962   0.0071667269  -0.0198279996  -0.0037407421
       -0.0103846103  -0.0103683223  -0.0240807529  -0.0112253675   0.0936581447
        0.0190830889  -0.0138071317   0.0044259996  -0.0161118207   0.0233867687
       -0.0870184962   0.0295435198   0.0120303408  -0.0006973258  -0.0084340352
       -0.0466423606  -0.0160399940  -0.0135679503  -0.0445796014  -0.0631068950
       -0.0549543910   0.0064566019   0.0126816373   0.0053970758   0.0046955009
        0.0071667269   0.0120303408   0.0800698592   0.0592985248   0.0510949246
       -0.0177970005  -0.0062162374   0.0160854848  -0.0338405936  -0.1010765241
       -0.1246355578   0.0051316053  -0.0113129918  -0.0060365360  -0.0127925360
       -0.0198279996  -0.0006973258   0.0592985248   0.1384337529   0.1152839348
       -0.0149218206   0.0161914084  -0.0167332622  -0.0322963876  -0.1263521760
       -0.0426581652  -0.0129854746  -0.0013824251  -0.0188084367   0.0091087583
       -0.0037407421  -0.0084340352   0.0510949246   0.1152839348   0.0866338992
