[Molden Format]
[Title]
[Atoms] AU
O      1     8  0.24538965416723E+01 -0.13888361722602E+00  0.41302308161701E-01
C      2     6 -0.24125541932980E-01  0.13584282083105E-02 -0.40252151690998E-03
H      3     1 -0.85728115235629E+00 -0.21722494323408E+00  0.19151899337435E+01
H      4     1 -0.69569408756485E+00  0.18455605603388E+01 -0.74829164234909E+00
H      5     1 -0.87679764954418E+00 -0.14908104280771E+01 -0.12077980780326E+01
[GTO]
           1 0
 s           4   1.0000000000000000     
   69.137961906196551      -0.20478756370077797     
   11.906129132707308      -0.24997023136827334     
  0.95670827744340703       0.40025880240639616     
  0.36462520496073686       0.15952206667693555     
 p           4   1.0000000000000000     
   8.2124193257781641        1.1321556799186829     
   2.1293576997098116        1.0476840782254817     
  0.75066448202360914       0.54956508217158984     
  0.29885246543283073        8.2908486592766617E-002

           2 0
 s           4   1.0000000000000000     
   51.049363095579913      -0.16312063210127389     
   8.7911227406887544      -0.19911024581000730     
  0.70640422258929825       0.31882047753655751     
  0.26922813413411617       0.12706504184240380     
 p           4   1.0000000000000000     
   5.8263656140800002       0.73716451545209605     
   1.5106896018720002       0.68216371614850257     
  0.53256483288000001       0.35783053929253711     
  0.21202323690600003        5.3983030275847881E-002

           3 0
 s           3   1.0000000000000000     
   3.3702276975336001       0.27359110588908298     
  0.61389118221497996       0.26460540653860526     
  0.16614291148415999        8.2465947534082318E-002

           4 0
 s           3   1.0000000000000000     
   3.3702276975336001       0.27359110588908298     
  0.61389118221497996       0.26460540653860526     
  0.16614291148415999        8.2465947534082318E-002

           5 0
 s           3   1.0000000000000000     
   3.3702276975336001       0.27359110588908298     
  0.61389118221497996       0.26460540653860526     
  0.16614291148415999        8.2465947534082318E-002

[MO]
Sym=     1a
Ene=  -0.69883277068710803     
Spin= Alpha
Occup=     2.00000000
           1  0.66821211304844574     
           2 -0.18892493866345780     
           3   1.0693376409576065E-002
           4  -3.1801800976058313E-003
           5  0.35402814200625404     
           6  0.22019586265946539     
           7  -1.2461000736292568E-002
           8   3.7054606157797491E-003
           9   5.3254208416612075E-002
          10   5.3255983023158399E-002
          11   5.3254362126141971E-002
Sym=     2a
Ene=  -0.62735387820098198     
Spin= Alpha
Occup=     2.00000000
           1  0.51186027091735564     
           2  0.26335330678102586     
           3  -1.4905842976037080E-002
           4   4.4330354979478463E-003
           5 -0.43349932680334957     
           6  0.19757180511810518     
           7  -1.1185082550943757E-002
           8   3.3269706756416839E-003
           9 -0.21242508882217229     
          10 -0.21243025287511177     
          11 -0.21242555124341869     
Sym=     3a
Ene=  -0.55198280258983290     
Spin= Alpha
Occup=     2.00000000
           1  -1.1738428283750200E-006
           2   1.3759601040059350E-003
           3  0.15849434540000573     
           4  0.45110441558353931     
           5   9.0568389199526305E-007
           6   1.5406608010706750E-003
           7  0.17714527964481658     
           8  0.50418904804196218     
           9  0.30657287078210965     
          10  -1.7027154737996524E-002
          11 -0.28954673308507350     
Sym=     4a
Ene=  -0.55198270743437139     
Spin= Alpha
Occup=     2.00000000
           1   8.9144644727353667E-006
           2   2.8163139653957444E-002
           3  0.45029504097294082     
           4 -0.15829583226984484     
           5  -6.9235068876334663E-006
           6   3.1455125937200498E-002
           7  0.50328799386150724     
           8 -0.17692483952942356     
           9 -0.15733707875479686     
          10  0.34417392170093714     
          11 -0.18682843992112430     
Sym=     5a
Ene=  -0.53209220846913374     
Spin= Alpha
Occup=     2.00000000
           1  0.39292815743255433     
           2  0.66149906635415612     
           3  -3.7445678200783650E-002
           4   1.1137259252482590E-002
           5   1.8823013872520993E-002
           6 -0.42824635646064407     
           7   2.4227748730007406E-002
           8  -7.2030866053974033E-003
           9  0.16776049202462237     
          10  0.16774971716048012     
          11  0.16775959942367769     
Sym=     6a
Ene=  -0.41294517680827936     
Spin= Alpha
Occup=     1.50008373
           1  -4.8306244966854441E-008
           2   2.9548046803187403E-003
           3  0.29462180665266408     
           4  0.81517101211220067     
           5  -3.3135727595419398E-007
           6  -8.5326648137617881E-004
           7  -8.5106125144948197E-002
           8 -0.23547483999561197     
           9 -0.34715614300941666     
          10   1.5863185303482762E-002
          11  0.33129326316967811     
Sym=     7a
Ene=  -0.41294454045611445     
Spin= Alpha
Occup=     1.49991627
           1  -8.4510384126464762E-009
           2   5.1002618751848465E-002
           3  0.81370485045873331     
           4 -0.29427678506717125     
           5   2.7344346397131403E-006
           6  -1.4735262174909287E-002
           7 -0.23505084543309951     
           8   8.5006258595325540E-002
           9  0.18211315768732433     
          10 -0.39170462688119223     
          11  0.20958888840571957     
Sym=     8a
Ene=   0.10387140950535870     
Spin= Alpha
Occup=     0.00000000
           1   5.2483553051926521E-002
           2   6.7583359061345660E-002
           3  -3.8229804928113392E-003
           4   1.1364593814501215E-003
           5   1.0839893452810632     
           6 -0.53360059493952994     
           7   3.0193932148414506E-002
           8  -8.9778911363348670E-003
           9 -0.60592091315044450     
          10 -0.60590062609410744     
          11 -0.60591897679929851     
Sym=     9a
Ene=   0.15291535271451664     
Spin= Alpha
Occup=     0.00000000
           1   1.5374403214345815E-005
           2  -1.3563808885108454E-002
           3 -0.21605090416142644     
           4   7.8231402889869517E-002
           5  -1.8548340091575270E-006
           6   6.2331581563427767E-002
           7  0.99470201944728653     
           8 -0.36017827351503762     
           9  0.43626567314721942     
          10 -0.93768709539471251     
          11  0.50139765633960554     
Sym=    10a
Ene=   0.15292136827160305     
Spin= Alpha
Occup=     0.00000000
           1   1.8791797599928313E-006
           2   7.8754414961317118E-004
           3   7.8323448016090313E-002
           4  0.21644166003472490     
           5  -1.4779539295997677E-007
           6  -3.6400540047007639E-003
           7 -0.36060053507649065     
           8 -0.99649813830738887     
           9  0.83085610572178503     
          10  -3.7605034007911618E-002
          11 -0.79325411688335234     
Sym=    11a
Ene=   0.24967820433215782     
Spin= Alpha
Occup=     0.00000000
           1 -0.64665721478974714     
           2  0.86699016703714615     
           3  -4.9070761678994226E-002
           4   1.4593388096445125E-002
           5  0.59779291964826808     
           6  0.96623720655064405     
           7  -5.4661681223372838E-002
           8   1.6250588722353621E-002
           9   2.7967987411047775E-002
          10   2.7930910581458024E-002
          11   2.7964648592604262E-002
