5
 energy: -7.619051012135 gnorm: 0.067544431394 xtb: 6.2.2 (9d81278992624c895f80dd42a50cac0aa55982e2)
O         1.33462700000000   -0.07553100000000    0.02246900000000
C        -0.05679500000000    0.00321400000000   -0.00095600000000
H        -0.45138400000000   -0.11720400000000    1.02888300000000
H        -0.36459100000000    0.99082000000000   -0.40178800000000
H        -0.46185800000000   -0.80129900000000   -0.64860800000000
5
 energy: -7.622122304417 gnorm: 0.035443902933 xtb: 6.2.2 (9d81278992624c895f80dd42a50cac0aa55982e2)
O         1.30430639259556   -0.07381498631449    0.02195851236056
C        -0.04371381652501    0.00247357683762   -0.00073575464070
H        -0.44539288037466   -0.11617001610329    1.01901515622635
H        -0.35943457765758    0.98119667690526   -0.39789587075334
H        -0.45576611803830   -0.79368525132511   -0.64234204319288
5
 energy: -7.623049162986 gnorm: 0.008265387095 xtb: 6.2.2 (9d81278992624c895f80dd42a50cac0aa55982e2)
O         1.29037103940314   -0.07302614197360    0.02172380140612
C        -0.01871220308433    0.00105830262859   -0.00031469558813
H        -0.44888326758018   -0.11485855706404    1.01087088849063
H        -0.36360182359424    0.97386350667645   -0.39487943666824
H        -0.45917474514439   -0.78703711026741   -0.63740055764038
5
 energy: -7.623139557380 gnorm: 0.002677654314 xtb: 6.2.2 (9d81278992624c895f80dd42a50cac0aa55982e2)
O         1.29727825433711   -0.07341685465209    0.02183998502108
C        -0.01460753632083    0.00082561308990   -0.00024538722533
H        -0.45257983003586   -0.11479409989540    1.01186275560549
H        -0.36720995707860    0.97505380903544   -0.39534235043202
H        -0.46288193090181   -0.78766846757785   -0.63811500296922
5
 energy: -7.623149354960 gnorm: 0.000166376864 xtb: 6.2.2 (9d81278992624c895f80dd42a50cac0aa55982e2)
O         1.29870069714915   -0.07349691413437    0.02186369825045
C        -0.01262143596646    0.00071232117925   -0.00021149449301
H        -0.45374806896154   -0.11490607839996    1.01314316018754
H        -0.36826895046460    0.97632934273644   -0.39585599452294
H        -0.46406324175654   -0.78863867138136   -0.63893936942204
5
 energy: -7.623149407158 gnorm: 0.000072095725 xtb: 6.2.2 (9d81278992624c895f80dd42a50cac0aa55982e2)
O         1.29854655674121   -0.07348729100343    0.02186064678791
C        -0.01276669119621    0.00071878284279   -0.00021304854306
H        -0.45365662706014   -0.11495464443242    1.01347317733160
H        -0.36814922243710    0.97662744397984   -0.39597850152897
H        -0.46397501604775   -0.78890429138678   -0.63914227404748
