 Entering Gaussian System
 *********************************************
 Gaussian 98:
 frequency output generated by the xtb code
 *********************************************
                         Standard orientation:
 --------------------------------------------------------------------
  Center     Atomic     Atomic              Coordinates (Angstroms)
  Number     Number      Type              X           Y           Z
 --------------------------------------------------------------------
    1          8             0        1.298546   -0.073494    0.021856
    2          6             0       -0.012767    0.000719   -0.000213
    3          1             0       -0.453654   -0.114951    1.013475
    4          1             0       -0.368145    0.976629   -0.395979
    5          1             0       -0.463981   -0.788903   -0.639139
 --------------------------------------------------------------------
     1 basis functions        1 primitive gaussians
     1 alpha electrons        1 beta electrons

 Harmonic frequencies (cm**-1), IR intensities (KM/Mole),
 Raman scattering activities (A**4/amu), Raman depolarization ratios,
 reduced masses (AMU), force constants (mDyne/A) and normal coordinates:
                      1                      2                      3
                        a                      a                      a 
 Frequencies --  -931.8257              -931.1080              1212.3179
 Red. masses --     3.8830                 3.8842                 1.6890
 Frc consts  --     0.0000                 0.0000                 0.0000
 IR Inten    --     1.7205                 1.7208                 0.0788
 Raman Activ --     0.0000                 0.0000                 0.0000
 Depolar     --     0.0000                 0.0000                 0.0000
 Atom AN      X      Y      Z        X      Y      Z        X      Y      Z
   1   8     0.01   0.13   0.08     0.01   0.08  -0.13    -0.00  -0.07  -0.16
   2   6    -0.02  -0.40  -0.25    -0.02  -0.25   0.40     0.00   0.05   0.13
   3   1     0.14   0.58   0.09    -0.23   0.28   0.01    -0.56   0.25  -0.16
   4   1     0.16   0.20   0.49     0.21  -0.14  -0.36    -0.01   0.14   0.35
   5   1    -0.26   0.07  -0.04     0.06   0.39  -0.51     0.57  -0.29   0.04
                      4                      5                      6
                        a                      a                      a 
 Frequencies --  1212.4260              1235.6016              1355.5852
 Red. masses --     1.6876                13.6756                 2.1990
 Frc consts  --     0.0000                 0.0000                 0.0000
 IR Inten    --     0.0787                 0.3680                 0.1637
 Raman Activ --     0.0000                 0.0000                 0.0000
 Depolar     --     0.0000                 0.0000                 0.0000
 Atom AN      X      Y      Z        X      Y      Z        X      Y      Z
   1   8    -0.01  -0.16   0.07     0.65  -0.04   0.01    -0.24   0.01  -0.00
   2   6     0.01   0.12  -0.05    -0.76   0.04  -0.01    -0.17   0.01  -0.00
   3   1     0.36   0.28   0.16     0.01  -0.00   0.03     0.51  -0.05   0.20
   4   1    -0.68  -0.16   0.06     0.01   0.02  -0.01     0.53   0.15  -0.06
   5   1     0.34   0.10  -0.32     0.01  -0.02  -0.02     0.51  -0.18  -0.11
                      7                      8                      9
                        a                      a                      a 
 Frequencies --  2695.3738              2695.4947              2758.2117
 Red. masses --     1.9322                 1.9317                 1.1564
 Frc consts  --     0.0000                 0.0000                 0.0000
 IR Inten    --     0.1129                 0.1141                 0.0701
 Raman Activ --     0.0000                 0.0000                 0.0000
 Depolar     --     0.0000                 0.0000                 0.0000
 Atom AN      X      Y      Z        X      Y      Z        X      Y      Z
   1   8    -0.00  -0.01  -0.00    -0.00  -0.00   0.01    -0.05   0.00  -0.00
   2   6    -0.02  -0.29  -0.04    -0.01  -0.04   0.29    -0.10   0.01  -0.00
   3   1    -0.00  -0.04  -0.00     0.31   0.08  -0.71     0.20   0.06  -0.54
   4   1    -0.22   0.58  -0.26    -0.13   0.36  -0.11     0.15  -0.51   0.21
   5   1     0.27   0.47   0.41    -0.16  -0.30  -0.19     0.20   0.42   0.34
