5
 energy: -7.623149406139 gnorm: 0.000071996291 xtb: 6.2.2 (9d81278992624c895f80dd42a50cac0aa55982e2)
O         1.29854624824565   -0.07349405202256    0.02185624226468
C        -0.01276668817611    0.00071884931718   -0.00021300523341
H        -0.45365369125354   -0.11495050026426    1.01347496151795
H        -0.36814549105577    0.97662868048416   -0.39597892097919
H        -0.46398137776023   -0.78890297750928   -0.63913927756654
