4
 energy: -8.122483994517 gnorm: 0.000137399537 xtb: 6.2.2 (9d81278992624c895f80dd42a50cac0aa55982e2)
C        -0.81885284659071    0.48513613581709    0.19878034276647
C        -0.48701335846922   -0.81765592679454   -0.19911951496143
C         0.81952424475538   -0.48816715726706    0.18831772967854
C         0.48634196030106    0.82068694824276   -0.18797955748357
