[Molden Format]
[Title]
[Atoms] AU
C      1     6 -0.15474074728584E+01  0.91677434479534E+00  0.37564037193599E+00
C      2     6 -0.92032178115367E+00 -0.15451456224603E+01 -0.37628131443409E+00
C      3     6  0.15486762313925E+01 -0.92250214468223E+00  0.35586890048627E+00
C      4     6  0.91905302261298E+00  0.15508734223439E+01 -0.35522984771412E+00
[GTO]
           1 0
 s           4   1.0000000000000000     
   51.049363095579913      -0.16312063210127389     
   8.7911227406887544      -0.19911024581000730     
  0.70640422258929825       0.31882047753655751     
  0.26922813413411617       0.12706504184240380     
 p           4   1.0000000000000000     
   5.8263656140800002       0.73716451545209605     
   1.5106896018720002       0.68216371614850257     
  0.53256483288000001       0.35783053929253711     
  0.21202323690600003        5.3983030275847881E-002

           2 0
 s           4   1.0000000000000000     
   51.049363095579913      -0.16312063210127389     
   8.7911227406887544      -0.19911024581000730     
  0.70640422258929825       0.31882047753655751     
  0.26922813413411617       0.12706504184240380     
 p           4   1.0000000000000000     
   5.8263656140800002       0.73716451545209605     
   1.5106896018720002       0.68216371614850257     
  0.53256483288000001       0.35783053929253711     
  0.21202323690600003        5.3983030275847881E-002

           3 0
 s           4   1.0000000000000000     
   51.049363095579913      -0.16312063210127389     
   8.7911227406887544      -0.19911024581000730     
  0.70640422258929825       0.31882047753655751     
  0.26922813413411617       0.12706504184240380     
 p           4   1.0000000000000000     
   5.8263656140800002       0.73716451545209605     
   1.5106896018720002       0.68216371614850257     
  0.53256483288000001       0.35783053929253711     
  0.21202323690600003        5.3983030275847881E-002

           4 0
 s           4   1.0000000000000000     
   51.049363095579913      -0.16312063210127389     
   8.7911227406887544      -0.19911024581000730     
  0.70640422258929825       0.31882047753655751     
  0.26922813413411617       0.12706504184240380     
 p           4   1.0000000000000000     
   5.8263656140800002       0.73716451545209605     
   1.5106896018720002       0.68216371614850257     
  0.53256483288000001       0.35783053929253711     
  0.21202323690600003        5.3983030275847881E-002

[MO]
Sym=     1a
Ene=  -0.73931538016595744     
Spin= Alpha
Occup=     2.00000000
           1 -0.31071307190301878     
           2 -0.12616292332760223     
           3   7.4685925905442915E-002
           4   3.9548799470398702E-002
           5 -0.31071311627432163     
           6  -7.5060025161075752E-002
           7 -0.12592436995859058     
           8  -3.9601000258454533E-002
           9 -0.31071216654148781     
          10  0.12629728746554239     
          11  -7.5292097902989935E-002
          12   3.7936453449815027E-002
          13 -0.31071202969247713     
          14   7.4925752847871480E-002
          15  0.12653055903937968     
          16  -3.7884251551314571E-002
Sym=     2a
Ene=  -0.62832881313316080     
Spin= Alpha
Occup=     2.00000000
           1 -0.23130942903681523     
           2  0.16583113631658364     
           3  0.23182234719898343     
           4   3.1092446203394259E-002
           5 -0.43623082497634652     
           6  0.15256801624097924     
           7  -3.7613250702312660E-002
           8  -5.6316148856981753E-002
           9  0.23131010432373861     
          10  0.16572731485040712     
          11  0.23228435615684695     
          12  -2.8033671222753409E-002
          13  0.43623091462310409     
          14  0.15275977008832031     
          15  -3.8486537371572892E-002
          16   5.5190695531099954E-002
Sym=     3a
Ene=  -0.62832866702087864     
Spin= Alpha
Occup=     2.00000000
           1 -0.43623121309522689     
           2  -3.7955794142182454E-002
           3 -0.15309687451542311     
           4   5.4624094995793716E-002
           5  0.23131016742154034     
           6  0.23210952296810494     
           7 -0.16600321070883803     
           8   2.7862561257935667E-002
           9  0.43623054081512996     
          10  -3.8149808432032840E-002
          11 -0.15222364039526620     
          12  -5.6882713244148633E-002
          13 -0.23130933191724898     
          14  0.23200628887443198     
          15 -0.16553954618130282     
          16  -3.1263485814836789E-002
Sym=     4a
Ene=  -0.55311167498346736     
Spin= Alpha
Occup=     2.00000000
           1 -0.16428222718817748     
           2  -2.1526244144614785E-002
           3   1.5443597264643706E-002
           4 -0.39040292320532577     
           5  0.16428240867226301     
           6   1.1708699816728460E-002
           7   2.3906411650253988E-002
           8 -0.39039439579650670     
           9 -0.16428192455877350     
          10   2.0171752845693423E-002
          11  -9.3275959738664659E-003
          12 -0.39066772671379407     
          13  0.16428191840358830     
          14  -1.3063708075266734E-002
          15  -1.7790575395830240E-002
          16 -0.39067615684873658     
Sym=     5a
Ene=  -0.53373152615715846     
Spin= Alpha
Occup=     2.00000000
           1  -5.7337344024808419E-007
           2 -0.21496515298010302     
           3 -0.36182726911801655     
           4  -2.4602652349805421E-003
           5  -6.4873688064106829E-007
           6 -0.36183510467816349     
           7  0.21495375988193313     
           8   2.3107919873848952E-003
           9   1.3836079042476293E-006
          10  0.21496579262897081     
          11  0.36182711570492848     
          12   2.4602648314110630E-003
          13   9.9444494092054813E-007
          14  0.36183558178232983     
          15 -0.21495344326013571     
          16  -2.3106197113331632E-003
Sym=     6a
Ene=  -0.48032638037057224     
Spin= Alpha
Occup=     2.00000000
           1 -0.37295278025971790     
           2  0.28284918274020038     
           3 -0.16860992212868264     
           4   8.3383641051623644E-002
           5  0.37295417121667496     
           6 -0.16780543677115620     
           7 -0.28336369619758395     
           8   8.3266625106389436E-002
           9 -0.37295287600101323     
          10 -0.28255204403086454     
          11  0.16727626856815542     
          12   8.6994513415230762E-002
          13  0.37295432580909488     
          14  0.16809936030751954     
          15  0.28202887361878465     
          16   8.7111317909740693E-002
Sym=     7a
Ene=  -0.46353540740409294     
Spin= Alpha
Occup=     2.00000000
           1  0.30211481045902494     
           2 -0.33191584482149611     
           3  0.19704889827655842     
           4   2.1599032258271398E-002
           5  0.30211328770140217     
           6 -0.19724264447084358     
           7 -0.33179011752165571     
           8  -2.1736628898690741E-002
           9  0.30211429952639240     
          10  0.33198252983137755     
          11 -0.19735167312306590     
          12   1.7358129872194535E-002
          13  0.30211265934237758     
          14  0.19717490522688541     
          15  0.33209248948665310     
          16  -1.7220992752014878E-002
Sym=     8a
Ene=  -0.41322744825837310     
Spin= Alpha
Occup=     1.00000000
           1 -0.10471864065751310     
           2  0.20359809075412977     
           3  0.11997020252065195     
           4 -0.20455274088270956     
           5  0.25637652873426270     
           6 -0.21684925502013933     
           7 -0.19492000077208360     
           8 -0.50338015461737984     
           9  0.10471937190391661     
          10  0.20430915701596966     
          11  0.11675820991753225     
          12  0.20570023451555677     
          13 -0.25637859417523801     
          14 -0.21510762561450530     
          15 -0.20278596486855388     
          16  0.50101574500911961     
Sym=     9a
Ene=  -0.41322730602481900     
Spin= Alpha
Occup=     1.00000000
           1 -0.25637669005001101     
           2  0.19798410544418124     
           3 -0.21203668477853041     
           4 -0.50423419878138132     
           5 -0.10471886316567275     
           6 -0.11800903316127569     
           7  0.20234003601077272     
           8  0.20692859458970594     
           9  0.25637835057744496     
          10  0.19972762382934472     
          11 -0.21990276801210970     
          12  0.50016161176538565     
          13  0.10471963542656081     
          14 -0.11872003708688272     
          15  0.20555407391954714     
          16 -0.20332293801867210     
Sym=    10a
Ene=  -0.32154196717848932     
Spin= Alpha
Occup=     0.00000000
           1   5.4437291844797418E-003
           2 -0.17384091585027497     
           3 -0.15834032769879286     
           4  -5.2311843948788239E-002
           5  -4.6602193955978533E-002
           6  0.32049916477191998     
           7  0.49268281135796349     
           8 -0.43652813605076018     
           9  -5.4437882123393594E-003
          10 -0.17366271472473868     
          11 -0.15914477067000823     
          12   5.0430875026155612E-002
          13   4.6603358343072505E-002
          14  0.32202499121022776     
          15  0.48579658756190314     
          16  0.44307430208443532     
Sym=    11a
Ene=  -0.32154170574751839     
Spin= Alpha
Occup=     0.00000000
           1   4.6602219890520373E-002
           2 -0.49001262855745470     
           3  0.32468869823891561     
           4 -0.43643786840234566     
           5   5.4431865407923519E-003
           6  0.15883449600674093     
           7 -0.17414656986461854     
           8   4.9737718964862981E-002
           9  -4.6603170687073231E-002
          10 -0.48848749454236218     
          11  0.31780223197570073     
          12  0.44316451302574378     
          13  -5.4433745545536929E-003
          14  0.15865631571876221     
          15 -0.17334227895761317     
          16  -5.3007171136556078E-002
Sym=    12a
Ene=  -0.23575709626589902     
Spin= Alpha
Occup=     0.00000000
           1  -6.2740079206858049E-002
           2  -6.1764086577871351E-002
           3   4.0644382531731686E-002
           4 -0.58088639987842217     
           5  -6.2739915540344179E-002
           6  -3.5086571124761982E-002
           7  -6.5305825516968077E-002
           8  0.58086128108114476     
           9  -6.2740363365595964E-002
          10   5.9748523762922501E-002
          11  -3.1542324727689162E-002
          12 -0.58166414327589000     
          13  -6.2740255785234927E-002
          14   3.7103489123885378E-002
          15   5.6204247109747661E-002
          16  0.58168957254652953     
Sym=    13a
Ene=   0.12756373132144960     
Spin= Alpha
Occup=     0.00000000
           1   5.9720825086772569E-007
           2 -0.37702291478716526     
           3 -0.63460199804116868     
           4  -4.3152371467277996E-003
           5  -5.6474155532146853E-007
           6  0.63461527359065917     
           7 -0.37700323650842110     
           8  -4.0528327843894459E-003
           9  -1.6058680621814661E-006
          10  0.37702348585341761     
          11  0.63459947818832729     
          12   4.3156365415269937E-003
          13   1.5542120423970216E-006
          14 -0.63461452419278397     
          15  0.37700080500572630     
          16   4.0532413282079547E-003
Sym=    14a
Ene=   0.17718532338449827     
Spin= Alpha
Occup=     0.00000000
           1 -0.51721168955233587     
           2 -0.55262532068684667     
           3 -0.16548619593575151     
           4  0.20530103980255968     
           5 -0.41070249195942515     
           6 -0.61747933752099449     
           7   6.1457005062344906E-003
           8 -0.16217230763249948     
           9  0.51721170972473618     
          10 -0.55333862942389311     
          11 -0.16226589527139676     
          12 -0.20594921432696320     
          13  0.41070261142141246     
          14 -0.61691356434738087     
          15   3.5888130716573152E-003
          16  0.16438963613353974     
Sym=    15a
Ene=   0.17718688331491136     
Spin= Alpha
Occup=     0.00000000
           1  0.41070343731060199     
           2  -5.1577664392712368E-003
           3 -0.61589935669330764     
           4 -0.16810507760947527     
           5 -0.51721235452708203     
           6  0.16351500047162482     
           7 -0.55135303406567093     
           8 -0.21023923735660255     
           9 -0.41070302376081885     
          10  -4.5932775941058502E-003
          11 -0.61845884284090313     
          12  0.15845685452240840     
          13  0.51721196725829377     
          14  0.16423110781536512     
          15 -0.55457448760085215     
          16  0.20101130822678964     
Sym=    16a
Ene=   0.57120222402409193     
Spin= Alpha
Occup=     0.00000000
           1  0.65075021392214749     
           2  0.52923604292883941     
           3 -0.31279093102891031     
           4 -0.24036819665924725     
           5 -0.65075016408820063     
           6 -0.31507229292241568     
           7 -0.52778182988215427     
           8 -0.24058695239632549     
           9  0.65075043351616813     
          10 -0.53005830945597376     
          11  0.31650236894588263     
          12 -0.23360367628166137     
          13 -0.65075031320279575     
          14  0.31425022025551586     
          15  0.53149334075806365     
          16 -0.23338445741742045     
