$hessian                                                                        
        0.3356939571  -0.0706806129  -0.1057281525  -0.0055267103   0.0977390297
        0.0383491360  -0.0952058383   0.0717494755  -0.0198079860  -0.2349614085
       -0.0988078923   0.0871870025
       -0.0706806129   0.2570801203   0.0636893309   0.0266989694  -0.2339355630
       -0.0806619100   0.0714704269  -0.0172046286   0.0116289508  -0.0274887833
       -0.0059399286   0.0053436283
       -0.1057281525   0.0636893309   0.0868812500   0.0049317801  -0.0891527207
       -0.0670465596   0.0214178221  -0.0128634526   0.0457705900   0.0793785503
        0.0383268423  -0.0656052804
       -0.0055267103   0.0266989694   0.0049317801   0.2582803105   0.0713075697
        0.0624852142  -0.2355433556  -0.0262630048  -0.0792113482  -0.0172102447
       -0.0717435343   0.0117943539
        0.0977390297  -0.2339355630  -0.0891527207   0.0713075697   0.3344088168
        0.1065644374  -0.0975650255  -0.0052738606  -0.0370454463  -0.0714815739
       -0.0951993932   0.0196337295
        0.0383491360  -0.0806619100  -0.0670465596   0.0624852142   0.1065644374
        0.0869686404  -0.0881372380  -0.0043097955  -0.0656920007  -0.0126971122
       -0.0215927318   0.0457699199
       -0.0952058383   0.0714704269   0.0214178221  -0.2355433556  -0.0975650255
       -0.0881372380   0.3364259529  -0.0725366338   0.1037386985  -0.0056767590
        0.0986312324  -0.0370192826
        0.0717494755  -0.0172046286  -0.0128634526  -0.0262630048  -0.0052738606
       -0.0043097955  -0.0725366338   0.2590274299  -0.0607391949   0.0270501632
       -0.2365489407   0.0779124430
       -0.0198079860   0.0116289508   0.0457705900  -0.0792113482  -0.0370454463
       -0.0656920007   0.1037386985  -0.0607391949   0.0842059935  -0.0047193643
        0.0861556903  -0.0642845829
       -0.2349614085  -0.0274887833   0.0793785503  -0.0172102447  -0.0714815739
       -0.0126971122  -0.0056767590   0.0270501632  -0.0047193643   0.2578484122
        0.0719201941  -0.0619620738
       -0.0988078923  -0.0059399286   0.0383268423  -0.0717435343  -0.0951993932
       -0.0215927318   0.0986312324  -0.2365489407   0.0861556903   0.0719201941
        0.3376882625  -0.1028898008
        0.0871870025   0.0053436283  -0.0656052804   0.0117943539   0.0196337295
        0.0457699199  -0.0370192826   0.0779124430  -0.0642845829  -0.0619620738
       -0.1028898008   0.0841199434
