4
 energy: -8.056070976153 gnorm: 0.162469384792 xtb: 6.2.2 (9d81278992624c895f80dd42a50cac0aa55982e2)
C        -0.92038500000000    0.54676300000000    0.00587600000000
C        -0.54679300000000   -0.92036800000000   -0.00626300000000
C         0.92038600000000   -0.54676400000000   -0.00587400000000
C         0.54679200000000    0.92036900000000    0.00626000000000
4
 energy: -8.079632145733 gnorm: 0.100994667486 xtb: 6.2.2 (9d81278992624c895f80dd42a50cac0aa55982e2)
C        -0.88039819914344    0.52301006146736    0.00567616816926
C        -0.52304302649504   -0.88039477008063   -0.00604645433410
C         0.88039906059805   -0.52301159977664   -0.00556337376112
C         0.52304216504043    0.88039630838992    0.00593265992595
4
 energy: -8.081247048198 gnorm: 0.133227174840 xtb: 6.2.2 (9d81278992624c895f80dd42a50cac0aa55982e2)
C        -0.81925070922831    0.48665619995045    0.01357154123000
C        -0.48685064958475   -0.81943365716296   -0.01391758336410
C         0.81927953612213   -0.48678681008441    0.00311200019744
C         0.48682182269093    0.81956426729692   -0.00276695806334
4
 energy: -8.112878916034 gnorm: 0.053610104703 xtb: 6.2.2 (9d81278992624c895f80dd42a50cac0aa55982e2)
C        -0.84101803860191    0.49894105814424    0.10610049234160
C        -0.49998457949613   -0.84051828863344   -0.10645495465755
C         0.84136681755505   -0.50051893422387    0.09536106068816
C         0.49963580054298    0.84209616471306   -0.09500759837220
4
 energy: -8.017655979652 gnorm: 0.300589249557 xtb: 6.2.2 (9d81278992624c895f80dd42a50cac0aa55982e2)
C        -0.87737281466976    0.51874582616501    0.36469133371623
C        -0.52217523846891   -0.87503604699125   -0.36505944378568
C         0.87861584389659   -0.52437035826622    0.35348195878349
C         0.52093220924207    0.88066057909245   -0.35311484871404
4
 energy: -8.110001962818 gnorm: 0.136963335798 xtb: 6.2.2 (9d81278992624c895f80dd42a50cac0aa55982e2)
C        -0.85199618651385    0.50463111659427    0.22359797087181
C        -0.50672838566971   -0.85055316429523   -0.22395567435898
C         0.85275117008613   -0.50804836569954    0.21271600766999
C         0.50597340209743    0.85397041340050   -0.21235930418282
4
 energy: -8.120412184972 gnorm: 0.026361288239 xtb: 6.2.2 (9d81278992624c895f80dd42a50cac0aa55982e2)
C        -0.83492410420051    0.49492445315363    0.15848789790195
C        -0.49641844851460   -0.83388526957926   -0.15883853931018
C         0.83545466000298   -0.49732407181340    0.14782559035435
C         0.49588789271212    0.83628488823903   -0.14747594894611
4
 energy: -8.120985514141 gnorm: 0.029919553224 xtb: 6.2.2 (9d81278992624c895f80dd42a50cac0aa55982e2)
C        -0.83496798113036    0.49487911691380    0.16938667244748
C        -0.49648483838137   -0.83388471728891   -0.16973746332320
C         0.83553604389207   -0.49744911218562    0.15872349626705
C         0.49591677561965    0.83645471256073   -0.15837370539133
4
 energy: -8.121659647961 gnorm: 0.029854778383 xtb: 6.2.2 (9d81278992624c895f80dd42a50cac0aa55982e2)
C        -0.83156070456891    0.49276491289835    0.18351167954481
C        -0.49451718414181   -0.83043124801572   -0.18386127136933
C         0.83217750202153   -0.49555597318575    0.17289156142529
C         0.49390038668918    0.83322230830311   -0.17254296960076
4
 energy: -8.122272352318 gnorm: 0.019066208110 xtb: 6.2.2 (9d81278992624c895f80dd42a50cac0aa55982e2)
C        -0.82452721446894    0.48850418175521    0.19676796058327
C        -0.49038731575085   -0.82335061506754   -0.19711477715326
C         0.82519114723660   -0.49150830848483    0.18623714178621
C         0.48972338298319    0.82635474179716   -0.18589132521622
4
 energy: -8.122473295278 gnorm: 0.004354732229 xtb: 6.2.2 (9d81278992624c895f80dd42a50cac0aa55982e2)
C        -0.81944206620163    0.48546715690110    0.20030191963476
C        -0.48736565334114   -0.81823980983533   -0.20064652323253
C         0.82011764268628   -0.48852425313519    0.18983582868189
C         0.48669007685649    0.82129690606941   -0.18949222508412
4
 energy: -8.122483825906 gnorm: 0.000296384740 xtb: 6.2.2 (9d81278992624c895f80dd42a50cac0aa55982e2)
C        -0.81874534803821    0.48506149155125    0.19931456725951
C        -0.48694284428317   -0.81754122050058   -0.19965881543628
C         0.81941730601857   -0.48810215690278    0.18885737946167
C         0.48627088630281    0.82058188585210   -0.18851413128490
4
 energy: -8.122483994267 gnorm: 0.000137570697 xtb: 6.2.2 (9d81278992624c895f80dd42a50cac0aa55982e2)
C        -0.81885608061566    0.48513150137407    0.19877833113524
C        -0.48700838216493   -0.81765812924598   -0.19912264202555
C         0.81952614342353   -0.48816319492215    0.18831973836037
C         0.48633831935705    0.82068982279406   -0.18797642747006
