 Entering Gaussian System
 *********************************************
 Gaussian 98:
 frequency output generated by the xtb code
 *********************************************
                         Standard orientation:
 --------------------------------------------------------------------
  Center     Atomic     Atomic              Coordinates (Angstroms)
  Number     Number      Type              X           Y           Z
 --------------------------------------------------------------------
    1          6             0       -0.818853    0.485136    0.198780
    2          6             0       -0.487013   -0.817656   -0.199120
    3          6             0        0.819524   -0.488167    0.188318
    4          6             0        0.486342    0.820687   -0.187980
 --------------------------------------------------------------------
     1 basis functions        1 primitive gaussians
     1 alpha electrons        1 beta electrons

 Harmonic frequencies (cm**-1), IR intensities (KM/Mole),
 Raman scattering activities (A**4/amu), Raman depolarization ratios,
 reduced masses (AMU), force constants (mDyne/A) and normal coordinates:
                      1                      2                      3
                        a                      a                      a 
 Frequencies --   559.5536               635.4723               914.7899
 Red. masses --    12.0107                12.0107                12.0107
 Frc consts  --     0.0000                 0.0000                 0.0000
 IR Inten    --     0.0000                 0.0950                 0.0001
 Raman Activ --     0.0000                 0.0000                 0.0000
 Depolar     --     0.0000                 0.0000                 0.0000
 Atom AN      X      Y      Z        X      Y      Z        X      Y      Z
   1   6     0.16  -0.10   0.46     0.43  -0.26  -0.00     0.26   0.43   0.00
   2   6     0.10   0.17  -0.46    -0.26  -0.43  -0.00     0.43  -0.26  -0.00
   3   6    -0.16   0.09   0.46    -0.43   0.26   0.00    -0.26  -0.43  -0.00
   4   6    -0.10  -0.16  -0.46     0.26   0.43   0.00    -0.43   0.26   0.00
                      4                      5                      6
                        a                      a                      a 
 Frequencies --  1071.1022              1071.1055              1460.4503
 Red. masses --    12.0107                12.0107                12.0107
 Frc consts  --     0.0000                 0.0000                 0.0000
 IR Inten    --     1.8054                 1.8054                 0.0000
 Raman Activ --     0.0000                 0.0000                 0.0000
 Depolar     --     0.0000                 0.0000                 0.0000
 Atom AN      X      Y      Z        X      Y      Z        X      Y      Z
   1   6    -0.48  -0.06   0.16     0.06  -0.48  -0.12     0.40  -0.23  -0.19
   2   6     0.48   0.06   0.12    -0.06   0.48   0.16     0.24   0.40   0.19
   3   6    -0.48  -0.06  -0.15     0.06  -0.48   0.11    -0.40   0.24  -0.19
   4   6     0.48   0.06  -0.12    -0.06   0.48  -0.15    -0.24  -0.40   0.19
