      -----------------------------------------------------------      
     |                   =====================                   |     
     |                           x T B                           |     
     |                   =====================                   |     
     |                         S. Grimme                         |     
     |          Mulliken Center for Theoretical Chemistry        |     
     |                    University of Bonn                     |     
      -----------------------------------------------------------      

   * xtb version 6.2.2 (9d81278992624c895f80dd42a50cac0aa55982e2) compiled by '@Darwin' on 04/03/2020

   xtb is free software: you can redistribute it and/or modify it under
   the terms of the GNU Lesser General Public License as published by
   the Free Software Foundation, either version 3 of the License, or
   (at your option) any later version.
   
   xtb is distributed in the hope that it will be useful,
   but WITHOUT ANY WARRANTY; without even the implied warranty of
   MERCHANTABILITY or FITNESS FOR A PARTICULAR PURPOSE.  See the
   GNU Lesser General Public License for more details.
   
   Cite this work as:
   * S. Grimme, C. Bannwarth, P. Shushkov, J. Chem. Theory Comput., 2017,
     13, 1989-2009. DOI: 10.1021/acs.jctc.7b00118
   * C. Bannwarth, S. Ehlert and S. Grimme., J. Chem. Theory Comput., 2019,
     15, 1652-1671. DOI: 10.1021/acs.jctc.8b01176
   * P. Pracht, E. Caldeweyher, S. Ehlert, S. Grimme, ChemRxiv, 2019, preprint.
     DOI: 10.26434/chemrxiv.8326202.v1
   
   for DFT-D4:
   * E. Caldeweyher, C. Bannwarth and S. Grimme, J. Chem. Phys., 2017,
     147, 034112. DOI: 10.1063/1.4993215
   * E. Caldeweyher, S. Ehlert, A. Hansen, H. Neugebauer, S. Spicher,
     C. Bannwarth and S. Grimme, J. Chem. Phys., 2019, 150, 154122.
     DOI: 10.1063/1.5090222
   
   for sTDA-xTB:
   * S. Grimme and C. Bannwarth, J. Chem. Phys., 2016, 145, 054103.
     DOI: 10.1063/1.4959605
   
   in the mass-spec context:
   * V. Asgeirsson, C. Bauer and S. Grimme, Chem. Sci., 2017, 8, 4879.
     DOI: 10.1039/c7sc00601b
   
   for metadynamics refer to:
   * S. Grimme, J. Chem. Theory Comput., 2019, 155, 2847-2862
     DOI: 10.1021/acs.jctc.9b00143
   
   with help from (in alphabetical order)
   C. Bannwarth, F. Bohle, G. Brandenburg, E. Caldeweyher, M. Checinski,
   S. Dohm, S. Ehlert, S. Ehrlich, F. März, H. Neugebauer, J. Pisarek,
   P. Pracht, P. Shushkov, and S. Spicher.
   
 * started run on 2020/05/12 at 14:38:40.340     

           -------------------------------------------------
          |                Calculation Setup                |
           -------------------------------------------------

          program call               : xtb --input C4_3_S_2.input C4_3_S_2.xyz --ohess --molden --namespace C4_3_S_2 output.out
          calculation namespace      : C4_3_S_2
          coordinate file            : C4_3_S_2.xyz
          number of atoms            :                     4
          number of electrons        :                    16
          charge                     :                     0
          spin                       :                   1.0
          first test random number   :      0.88343677969655

   ID    Z sym.   atoms
    1    6 C      1-4

           -------------------------------------------------
          |                 G F N 2 - x T B                 |
           -------------------------------------------------

        Reference                      10.1021/acs.jctc.8b01176
      * Hamiltonian:
        H0-scaling (s, p, d)           1.850000    2.230000    2.230000
        zeta-weighting                 0.500000
      * Dispersion:
        s8                             2.700000
        a1                             0.520000
        a2                             5.000000
        s9                             5.000000
      * Repulsion:
        kExp                           1.500000    1.000000
        rExp                           1.000000
      * Coulomb:
        alpha                          2.000000
        third order                    shell-resolved
        anisotropic                    true
        a3                             3.000000
        a5                             4.000000
        cn-shift                       1.200000
        cn-exp                         4.000000
        max-rad                        5.000000

q/qsh data taken from xtbrestart
CAMM data taken from xtbrestart

          ...................................................
          :                      SETUP                      :
          :.................................................:
          :  # basis functions                  16          :
          :  # atomic orbitals                  16          :
          :  # shells                            8          :
          :  # electrons                        16          :
          :  max. iterations                   250          :
          :  Hamiltonian                  GFN2-xTB          :
          :  restarted?                       true          :
          :  GBSA solvation                  false          :
          :  PC potential                    false          :
          :  electronic temp.          300.0000000     K    :
          :  accuracy                    1.0000000          :
          :  -> integral cutoff          0.2500000E+02      :
          :  -> integral neglect         0.1000000E-07      :
          :  -> SCF convergence          0.1000000E-05 Eh   :
          :  -> wf. convergence          0.1000000E-03 e    :
          :  Broyden damping             0.4000000          :
          ...................................................

 iter      E             dE          RMSdq      gap      omega  full diag
   1     -8.1148644 -0.811486E+01  0.807E+00    0.06       0.0  T
   2     -8.0906095  0.242549E-01  0.477E+00    0.01       1.0  T
   3     -7.6963632  0.394246E+00  0.918E+00    0.98       1.0  T
   4     -8.0181782 -0.321815E+00  0.509E+00    0.11       1.0  T
   5     -8.0842137 -0.660355E-01  0.221E+00    0.03       1.0  T
   6     -8.1057161 -0.215024E-01  0.162E+00    0.02       1.0  T
   7     -8.1128150 -0.709897E-02  0.120E+00    0.03       1.0  T
   8     -8.1089135  0.390151E-02  0.151E+00    0.02       1.0  T
   9     -8.1079657  0.947790E-03  0.151E+00    0.02       1.0  T
  10     -8.1082591 -0.293379E-03  0.160E+00    0.01       1.0  T
  11     -8.1141609 -0.590181E-02  0.816E-01    0.03       1.0  T
  12     -8.1146066 -0.445724E-03  0.744E-01    0.03       1.0  T
  13     -8.1140226  0.584033E-03  0.783E-01    0.03       1.0  T
  14     -8.1155883 -0.156568E-02  0.404E-01    0.04       1.0  T
  15     -8.1161433 -0.555057E-03  0.485E-02    0.05       1.0  T
  16     -8.1161479 -0.457622E-05  0.320E-02    0.05       1.6  T
  17     -8.1161516 -0.363846E-05  0.599E-03    0.05       8.3  T
  18     -8.1161517 -0.108050E-06  0.161E-03    0.05      31.0  T
  19     -8.1161517 -0.512821E-08  0.573E-04    0.05      87.3  T
  20     -8.1161517 -0.801883E-09  0.353E-04    0.05     141.8  T

   *** convergence criteria satisfied after 20 iterations ***

         #    Occupation            Energy/Eh            Energy/eV
      -------------------------------------------------------------
         1        2.0000           -0.7216071             -19.6359
       ...           ...                  ...                  ...
         3        2.0000           -0.6278639             -17.0850
         4        2.0000           -0.5405399             -14.7088
         5        2.0000           -0.5278634             -14.3639
         6        2.0000           -0.5067614             -13.7897
         7        2.0000           -0.4735816             -12.8868
         8        0.7091           -0.3982553             -10.8371
         9        0.7090           -0.3982546             -10.8371 (HOMO)
        10        0.2910           -0.3965624             -10.7910 (LUMO)
        11        0.2909           -0.3965621             -10.7910
        12                         -0.2546792              -6.9302
        13                         -0.0086704              -0.2359
        14                         -0.0086683              -0.2359
       ...                                ...                  ...
        16                          0.2687590               7.3133
      -------------------------------------------------------------
                  HL-Gap            0.0016922 Eh            0.0460 eV
             Fermi-level           -0.4166635 Eh          -11.3380 eV

 transition dipole moment (au) for excitation:           8           9
     X       Y       Z   
   0.0000  -0.0000   0.0000  total (au/Debye):    0.000   0.000
 dE (eV)             :    0.000
 oscillator strength :  0.45053E-17

 SCC (total)                   0 d,  0 h,  0 min,  0.004 sec
 SCC setup                      ...        0 min,  0.000 sec (  1.766%)
 Dispersion                     ...        0 min,  0.000 sec (  0.366%)
 integral evaluation            ...        0 min,  0.001 sec ( 19.707%)
 zeroth order Hamiltonian       ...        0 min,  0.000 sec (  0.301%)
 iterations                     ...        0 min,  0.002 sec ( 35.110%)
 molecular gradient             ...        0 min,  0.001 sec ( 21.347%)
 printout                       ...        0 min,  0.001 sec ( 21.243%)

         :::::::::::::::::::::::::::::::::::::::::::::::::::::
         ::                     SUMMARY                     ::
         :::::::::::::::::::::::::::::::::::::::::::::::::::::
         :: total energy              -8.056070975697 Eh    ::
         :: gradient norm              0.162469285105 Eh/a0 ::
         :: HOMO-LUMO gap              0.046047440442 eV    ::
         ::.................................................::
         :: SCC energy                -8.116151667906 Eh    ::
         :: -> isotropic ES           -0.015463719241 Eh    ::
         :: -> anisotropic ES          0.000137908393 Eh    ::
         :: -> anisotropic XC          0.006426834904 Eh    ::
         :: -> dispersion             -0.001859399271 Eh    ::
         :: repulsion energy           0.060080681790 Eh    ::
         :: add. restraining           0.000000000000 Eh    ::
         :::::::::::::::::::::::::::::::::::::::::::::::::::::

      ----------------------------------------------------------- 
     |                   =====================                   |
     |                        A N C O P T                        |
     |                   =====================                   |
     |               Approximate Normal Coordinate               |
     |                Rational Function Optimizer                |
      ----------------------------------------------------------- 

          ...................................................
          :                      SETUP                      :
          :.................................................:
          :   optimization level            normal          :
          :   max. optcycles                   200          :
          :   ANC micro-cycles                  20          :
          :   degrees of freedom                 6          :
          :.................................................:
          :   RF solver                   davidson          :
          :   write xtbopt.log                true          :
          :   linear?                        false          :
          :   energy convergence         0.5000000E-05 Eh   :
          :   grad. convergence          0.1000000E-02 Eh/α :
          :   maximium RF displ.         1.0000000          :
          :   Hlow (freq-cutoff)         0.1000000E-01      :
          :   Hmax (freq-cutoff)         5.0000000          :
          :   S6 in model hess.         20.0000000          :
          ...................................................

generating ANC from model Hessian ...
Using Lindh-Hessian (1995)
 Shifting diagonal of input Hessian by    0.0000000000000000     
 Lowest  eigenvalues of input Hessian
   -0.000000   -0.000000    0.000000    0.000000    0.000000    0.000000
    0.018590    0.221528    0.818513    0.883693    0.883697    0.895836
 Highest eigenvalues
    0.018590    0.221528    0.818513    0.883693    0.883697    0.895836


........................................................................
.............................. CYCLE    1 ..............................
........................................................................
   1     -8.1161517 -0.811615E+01  0.387E-05    0.05       0.0  T
   2     -8.1161517  0.159999E-08  0.648E-04    0.05      77.2  T
   3     -8.1161517 -0.160306E-08  0.226E-05    0.05    2216.0  T
     SCC iter.                  ...        0 min,  0.000 sec
     gradient                   ...        0 min,  0.001 sec
 * total energy  :    -8.0560710 Eh     change       -0.4560263E-09 Eh
   gradient norm :     0.1624694 Eh/α   predicted     0.0000000E+00 (-100.00%)
   displ. norm   :     0.1757583 α      lambda       -0.2855533E-01
   maximum displ.:     0.1757582 α      in ANC's #6, #1, #4, ...

........................................................................
.............................. CYCLE    2 ..............................
........................................................................
   1     -8.1718869 -0.817189E+01  0.482E+00    0.13       0.0  T
   2     -8.1723147 -0.427803E-03  0.234E+00    0.10       1.0  T
   3     -8.1723417 -0.269972E-04  0.405E-01    0.06       1.0  T
   4     -8.1661569  0.618476E-02  0.135E+00    0.03       1.0  T
   5     -8.1724301 -0.627322E-02  0.969E-01    0.08       1.0  T
   6     -8.1724775 -0.473578E-04  0.863E-02    0.07       1.0  T
   7     -8.1724673  0.101298E-04  0.718E-02    0.07       1.0  T
   8     -8.1724774 -0.100162E-04  0.491E-02    0.07       1.0  T
   9     -8.1724786 -0.124838E-05  0.438E-03    0.07      11.4  T
  10     -8.1724786  0.799762E-08  0.202E-03    0.07      24.8  T
  11     -8.1724786 -0.298613E-08  0.147E-03    0.07      34.1  T
  12     -8.1724786 -0.635726E-08  0.217E-04    0.07     230.5  T
  13     -8.1724786  0.515143E-12  0.933E-05    0.07     535.8  T
     SCC iter.                  ...        0 min,  0.001 sec
     gradient                   ...        0 min,  0.001 sec
 * total energy  :    -8.0796321 Eh     change       -0.2356117E-01 Eh
   gradient norm :     0.1009947 Eh/α   predicted    -0.1471871E-01 ( -37.53%)
   displ. norm   :     0.2700542 α      lambda       -0.2710745E-01
   maximum displ.:     0.2682320 α      in ANC's #6, #1, #2, ...

........................................................................
.............................. CYCLE    3 ..............................
........................................................................
   1     -8.2593207 -0.825932E+01  0.171E+00    0.44       0.0  T
   2     -8.2593689 -0.481877E-04  0.104E+00    0.43       1.0  T
   3     -8.2593976 -0.287087E-04  0.888E-02    0.43       1.0  T
   4     -8.2593976 -0.144030E-07  0.114E-02    0.43       4.4  T
   5     -8.2593976  0.203049E-07  0.446E-03    0.43      11.2  T
   6     -8.2593976 -0.126320E-07  0.407E-03    0.43      12.3  T
   7     -8.2593977 -0.110396E-06  0.388E-04    0.43     128.8  T
   8     -8.2593977 -0.106830E-10  0.245E-05    0.43    2039.8  T
     SCC iter.                  ...        0 min,  0.001 sec
     gradient                   ...        0 min,  0.001 sec
 * total energy  :    -8.0812470 Eh     change       -0.1614902E-02 Eh
   gradient norm :     0.1332272 Eh/α   predicted    -0.1454219E-01 ( 800.50%)
   displ. norm   :     0.3621826 α      lambda       -0.2377419E-01
   maximum displ.:     0.3491908 α      in ANC's #1, #6, #2, ...

........................................................................
.............................. CYCLE    4 ..............................
........................................................................
   1     -8.2414842 -0.824148E+01  0.363E+00    1.22       0.0  T
   2     -8.2415830 -0.987656E-04  0.210E+00    1.24       1.0  T
   3     -8.2416360 -0.530601E-04  0.130E-01    1.27       1.0  T
   4     -8.2416363 -0.275161E-06  0.163E-02    1.28       3.1  T
   5     -8.2416349  0.143352E-05  0.156E-02    1.28       3.2  T
   6     -8.2416365 -0.160099E-05  0.474E-03    1.28      10.6  T
   7     -8.2416366 -0.806863E-07  0.203E-03    1.28      24.6  T
   8     -8.2416366 -0.523176E-08  0.538E-05    1.28     929.2  T
   9     -8.2416366  0.261213E-10  0.655E-05    1.28     763.8  T
     SCC iter.                  ...        0 min,  0.001 sec
     gradient                   ...        0 min,  0.001 sec
 * total energy  :    -8.1128789 Eh     change       -0.3163187E-01 Eh
   gradient norm :     0.0536101 Eh/α   predicted    -0.1344640E-01 ( -57.49%)
   displ. norm   :     0.9896937 α      lambda       -0.5248487E-01
   maximum displ.:     0.9764746 α      in ANC's #1, #6, #2, ...

........................................................................
.............................. CYCLE    5 ..............................
........................................................................
   1     -8.0484155 -0.804842E+01  0.482E+00    2.70       0.0  T
   2     -8.0488080 -0.392469E-03  0.284E+00    2.74       1.0  T
   3     -8.0491071 -0.299145E-03  0.274E-01    2.79       1.0  T
   4     -8.0490306  0.765456E-04  0.119E-01    2.79       1.0  T
   5     -8.0491046 -0.740594E-04  0.474E-02    2.80       1.1  T
   6     -8.0490957  0.897432E-05  0.528E-02    2.80       1.0  T
   7     -8.0491187 -0.230055E-04  0.576E-03    2.80       8.7  T
   8     -8.0491187 -0.324417E-07  0.243E-04    2.80     205.7  T
   9     -8.0491187  0.158552E-09  0.184E-04    2.80     272.3  T
     SCC iter.                  ...        0 min,  0.001 sec
     gradient                   ...        0 min,  0.001 sec
 * total energy  :    -8.0176560 Eh     change        0.9522294E-01 Eh
   gradient norm :     0.3005892 Eh/α   predicted    -0.5194664E-01 (-154.55%)
   displ. norm   :     0.5444166 α      lambda       -0.1315472E+00
   maximum displ.:     0.5326537 α      in ANC's #1, #6, #2, ...

........................................................................
.............................. CYCLE    6 ..............................
........................................................................
   1     -8.1916198 -0.819162E+01  0.275E+00    2.47       0.0  T
   2     -8.1917794 -0.159583E-03  0.164E+00    2.45       1.0  T
   3     -8.1918794 -0.999761E-04  0.150E-01    2.41       1.0  T
   4     -8.1918688  0.105895E-04  0.434E-02    2.41       1.2  T
   5     -8.1918717 -0.293027E-05  0.358E-02    2.41       1.4  T
   6     -8.1918810 -0.927079E-05  0.209E-03    2.41      23.9  T
   7     -8.1918810  0.139529E-08  0.136E-03    2.41      36.6  T
   8     -8.1918810 -0.461861E-08  0.726E-05    2.41     688.6  T
   9     -8.1918810  0.926157E-10  0.121E-04    2.41     413.3  T
     SCC iter.                  ...        0 min,  0.000 sec
     gradient                   ...        0 min,  0.001 sec
 * total energy  :    -8.1100020 Eh     change       -0.9234598E-01 Eh
   gradient norm :     0.1369633 Eh/α   predicted    -0.8526819E-01 (  -7.66%)
   displ. norm   :     0.2570211 α      lambda       -0.2387322E-01
   maximum displ.:     0.2456730 α      in ANC's #1, #6, #2, ...

........................................................................
.............................. CYCLE    7 ..............................
........................................................................
   1     -8.2420007 -0.824200E+01  0.126E+00    1.93       0.0  T
   2     -8.2420231 -0.224085E-04  0.749E-01    1.92       1.0  T
   3     -8.2420370 -0.139143E-04  0.541E-02    1.91       1.0  T
   4     -8.2420371 -0.100402E-06  0.586E-03    1.90       8.5  T
   5     -8.2420369  0.207865E-06  0.571E-03    1.90       8.8  T
   6     -8.2420372 -0.239080E-06  0.647E-04    1.90      77.2  T
   7     -8.2420372 -0.108644E-09  0.242E-04    1.90     206.6  T
     SCC iter.                  ...        0 min,  0.001 sec
     gradient                   ...        0 min,  0.001 sec
 * total energy  :    -8.1204122 Eh     change       -0.1041022E-01 Eh
   gradient norm :     0.0263613 Eh/α   predicted    -0.1272514E-01 (  22.24%)
   displ. norm   :     0.0411924 α      lambda       -0.7731264E-03
   maximum displ.:     0.0411911 α      in ANC's #1, #6, #2, ...

........................................................................
.............................. CYCLE    8 ..............................
........................................................................
   1     -8.2387609 -0.823876E+01  0.202E-01    2.02       0.0  T
   2     -8.2387612 -0.253600E-06  0.118E-01    2.02       1.0  T
   3     -8.2387613 -0.149320E-06  0.511E-03    2.02       9.8  T
   4     -8.2387613  0.444435E-08  0.127E-03    2.02      39.4  T
   5     -8.2387613  0.411988E-08  0.119E-03    2.02      41.8  T
   6     -8.2387613 -0.901868E-08  0.455E-04    2.02     109.8  T
   7     -8.2387613 -0.136588E-08  0.829E-05    2.02     603.4  T
     SCC iter.                  ...        0 min,  0.001 sec
     gradient                   ...        0 min,  0.001 sec
 * total energy  :    -8.1209855 Eh     change       -0.5733292E-03 Eh
   gradient norm :     0.0299196 Eh/α   predicted    -0.3872202E-03 ( -32.46%)
   displ. norm   :     0.0554742 α      lambda       -0.9140025E-03
   maximum displ.:     0.0534679 α      in ANC's #1, #6, #2, ...

........................................................................
.............................. CYCLE    9 ..............................
........................................................................
   1     -8.2384082 -0.823841E+01  0.270E-01    2.20       0.0  T
   2     -8.2384085 -0.292372E-06  0.157E-01    2.20       1.0  T
   3     -8.2384086 -0.148269E-06  0.356E-03    2.20      14.0  T
   4     -8.2384086  0.430821E-08  0.150E-03    2.20      33.4  T
   5     -8.2384086  0.111120E-08  0.986E-04    2.20      50.7  T
   6     -8.2384086 -0.387614E-08  0.648E-04    2.20      77.1  T
     SCC iter.                  ...        0 min,  0.000 sec
     gradient                   ...        0 min,  0.001 sec
 * total energy  :    -8.1216596 Eh     change       -0.6741338E-03 Eh
   gradient norm :     0.0298548 Eh/α   predicted    -0.4584057E-03 ( -32.00%)
   displ. norm   :     0.0589245 α      lambda       -0.9091448E-03
   maximum displ.:     0.0502720 α      in ANC's #1, #6, #2, ...

........................................................................
.............................. CYCLE   10 ..............................
........................................................................
   1     -8.2423493 -0.824235E+01  0.291E-01    2.41       0.0  T
   2     -8.2423497 -0.481577E-06  0.170E-01    2.41       1.0  T
   3     -8.2423500 -0.255640E-06  0.679E-03    2.41       7.4  T
   4     -8.2423498  0.179998E-06  0.515E-03    2.41       9.7  T
   5     -8.2423500 -0.154935E-06  0.211E-03    2.41      23.6  T
   6     -8.2423500 -0.305432E-07  0.350E-04    2.41     142.8  T
   7     -8.2423500 -0.337007E-09  0.151E-04    2.41     331.8  T
     SCC iter.                  ...        0 min,  0.001 sec
     gradient                   ...        0 min,  0.001 sec
 * total energy  :    -8.1222724 Eh     change       -0.6127044E-03 Eh
   gradient norm :     0.0190662 Eh/α   predicted    -0.4561531E-03 ( -25.55%)
   displ. norm   :     0.0260919 α      lambda       -0.3454760E-03
   maximum displ.:     0.0223405 α      in ANC's #6, #1, #2, ...

........................................................................
.............................. CYCLE   11 ..............................
........................................................................
   1     -8.2474601 -0.824746E+01  0.130E-01    2.51       0.0  T
   2     -8.2474603 -0.276447E-06  0.778E-02    2.51       1.0  T
   3     -8.2474605 -0.169502E-06  0.625E-03    2.50       8.0  T
   4     -8.2474604  0.910291E-07  0.361E-03    2.50      13.8  T
   5     -8.2474605 -0.896717E-07  0.851E-04    2.50      58.8  T
   6     -8.2474605 -0.440001E-08  0.230E-04    2.50     217.0  T
     SCC iter.                  ...        0 min,  0.001 sec
     gradient                   ...        0 min,  0.001 sec
 * total energy  :    -8.1224733 Eh     change       -0.2009430E-03 Eh
   gradient norm :     0.0043547 Eh/α   predicted    -0.1728544E-03 ( -13.98%)
   displ. norm   :     0.0048315 α      lambda       -0.1970142E-04
   maximum displ.:     0.0037150 α      in ANC's #1, #6, #2, ...

........................................................................
.............................. CYCLE   12 ..............................
........................................................................
   1     -8.2488197 -0.824882E+01  0.244E-02    2.50       0.0  T
   2     -8.2488197 -0.137071E-07  0.148E-02    2.50       3.4  T
   3     -8.2488197 -0.861446E-08  0.135E-03    2.50      37.0  T
   4     -8.2488197  0.176163E-07  0.158E-03    2.50      31.5  T
   5     -8.2488197 -0.178052E-07  0.215E-04    2.50     232.0  T
   6     -8.2488197 -0.277657E-09  0.273E-05    2.50    1831.4  T
     SCC iter.                  ...        0 min,  0.000 sec
     gradient                   ...        0 min,  0.001 sec
 * total energy  :    -8.1224838 Eh     change       -0.1053063E-04 Eh
   gradient norm :     0.0002964 Eh/α   predicted    -0.9849715E-05 (  -6.47%)
   displ. norm   :     0.0020874 α      lambda       -0.3508100E-06
   maximum displ.:     0.0020294 α      in ANC's #1, #6, #2, ...

........................................................................
.............................. CYCLE   13 ..............................
........................................................................
   1     -8.2489138 -0.824891E+01  0.107E-02    2.50       0.0  T
   2     -8.2489138 -0.444214E-09  0.622E-03    2.49       8.0  T
   3     -8.2489138 -0.168569E-09  0.165E-04    2.49     302.3  T
   4     -8.2489138  0.233015E-09  0.219E-04    2.49     228.4  T
     SCC iter.                  ...        0 min,  0.000 sec
     gradient                   ...        0 min,  0.001 sec
 * total energy  :    -8.1224840 Eh     change       -0.1683606E-06 Eh
   gradient norm :     0.0001376 Eh/α   predicted    -0.1740396E-06 (   3.37%)
   displ. norm   :     0.0005009 α      lambda       -0.3033374E-07
   maximum displ.:     0.0004977 α      in ANC's #1, #6, #4, ...

   *** GEOMETRY OPTIMIZATION CONVERGED AFTER 13 ITERATIONS ***

------------------------------------------------------------------------
 total energy gain   :        -0.0664130 Eh      -41.6748 kcal/mol
 total RMSD          :         0.4280892 a0        0.2265 Å
 total power (kW/mol):       -13.4128736 (step)-5306.9807 (real)
------------------------------------------------------------------------

 ANCopt (total)                0 d,  0 h,  0 min,  0.033 sec
 optimizer setup                ...        0 min,  0.000 sec (  0.184%)
 model hessian                  ...        0 min,  0.000 sec (  0.186%)
 ANC generation                 ...        0 min,  0.000 sec (  0.179%)
 coordinate transformation      ...        0 min,  0.000 sec (  0.081%)
 single point calculation       ...        0 min,  0.031 sec ( 95.372%)
 optimization log               ...        0 min,  0.001 sec (  1.604%)
 hessian update                 ...        0 min,  0.000 sec (  0.068%)
 rational function              ...        0 min,  0.000 sec (  0.969%)

================
 final structure:
================
4
 xtb: 6.2.2 (9d81278992624c895f80dd42a50cac0aa55982e2)
C        -0.81885608061566    0.48513150137407    0.19877833113524
C        -0.48700838216493   -0.81765812924598   -0.19912264202555
C         0.81952614342353   -0.48816319492215    0.18831973836037
C         0.48633831935705    0.82068982279406   -0.18797642747006

 Bond Distances (Angstroems)
 ---------------------------
C1-C2=1.4020         C1-C3=1.9057         C1-C4=1.4020         C2-C1=1.4020         C2-C3=1.4020         C2-C4=1.9057         
C3-C1=1.9057         C3-C2=1.4020         C3-C4=1.4020         C4-C1=1.4020         C4-C2=1.9057         C4-C3=1.4020         
 C  C  Rav=1.5699 sigma=0.2374  Rmin=1.4020  Rmax=1.9057     6

 selected bond angles (degree)
 --------------------
C3-C1-C2= 47.19                C4-C1-C2= 85.63                C4-C1-C3= 47.19                C3-C2-C1= 85.63                
C4-C2-C1= 47.19                C4-C2-C3= 47.19                C2-C3-C1= 47.19                C4-C3-C1= 47.19                
C4-C3-C2= 85.63                C2-C4-C1= 47.19                C3-C4-C1= 85.63                C3-C4-C2= 47.19                

 selected dihedral angles (degree)
 ---------------------------------
C3-C2-C1-C4= 30.87            C4-C2-C1-C3=329.13            C1-C3-C2-C4= 30.87            C4-C3-C2-C1=329.13            
C2-C4-C1-C3= 30.87            C3-C4-C1-C2=329.13            C1-C4-C3-C2= 30.87            C2-C4-C3-C1=329.13            
           -------------------------------------------------
          |                Final Singlepoint                |
           -------------------------------------------------

          ...................................................
          :                      SETUP                      :
          :.................................................:
          :  # basis functions                  16          :
          :  # atomic orbitals                  16          :
          :  # shells                            8          :
          :  # electrons                        16          :
          :  max. iterations                   250          :
          :  Hamiltonian                  GFN2-xTB          :
          :  restarted?                      false          :
          :  GBSA solvation                  false          :
          :  PC potential                    false          :
          :  electronic temp.          300.0000000     K    :
          :  accuracy                    1.0000000          :
          :  -> integral cutoff          0.2500000E+02      :
          :  -> integral neglect         0.1000000E-07      :
          :  -> SCF convergence          0.1000000E-05 Eh   :
          :  -> wf. convergence          0.1000000E-03 e    :
          :  Broyden damping             0.4000000          :
          ...................................................

 iter      E             dE          RMSdq      gap      omega  full diag
   1     -8.2489138 -0.824891E+01  0.100E-04    2.49       0.0  T
   2     -8.2489138  0.680132E-10  0.102E-04    2.49     489.8  T
   3     -8.2489138 -0.402736E-10  0.989E-05    2.49     505.7  T

   *** convergence criteria satisfied after 3 iterations ***

         #    Occupation            Energy/Eh            Energy/eV
      -------------------------------------------------------------
         1        2.0000           -0.7393155             -20.1178
       ...           ...                  ...                  ...
         3        2.0000           -0.6283287             -17.0977
         4        2.0000           -0.5531117             -15.0509
         5        2.0000           -0.5337316             -14.5236
         6        2.0000           -0.4803264             -13.0703
         7        2.0000           -0.4635355             -12.6134
         8        1.0000           -0.4132275             -11.2445
         9        1.0000           -0.4132274             -11.2445 (HOMO)
        10                         -0.3215420              -8.7496 (LUMO)
        11                         -0.3215418              -8.7496
        12                         -0.2357571              -6.4153
        13                          0.1275637               3.4712
        14                          0.1771853               4.8215
       ...                                ...                  ...
        16                          0.5712022              15.5432
      -------------------------------------------------------------
                  HL-Gap            0.0916854 Eh            2.4949 eV
             Fermi-level           -0.4030414 Eh          -10.9673 eV

 transition dipole moment (au) for excitation:           8           9
     X       Y       Z   
  -0.0009   0.0041  -0.5207  total (au/Debye):    0.521   1.324
 dE (eV)             :    0.000
 oscillator strength :  0.29390E-07

 SCC (total)                   0 d,  0 h,  0 min,  0.003 sec
 SCC setup                      ...        0 min,  0.000 sec (  1.471%)
 Dispersion                     ...        0 min,  0.000 sec (  0.307%)
 integral evaluation            ...        0 min,  0.001 sec ( 28.860%)
 zeroth order Hamiltonian       ...        0 min,  0.000 sec (  0.382%)
 iterations                     ...        0 min,  0.000 sec ( 10.803%)
 molecular gradient             ...        0 min,  0.001 sec ( 36.247%)
 printout                       ...        0 min,  0.001 sec ( 21.672%)

         :::::::::::::::::::::::::::::::::::::::::::::::::::::
         ::                     SUMMARY                     ::
         :::::::::::::::::::::::::::::::::::::::::::::::::::::
         :: total energy              -8.122483994517 Eh    ::
         :: gradient norm              0.000137399537 Eh/a0 ::
         :: HOMO-LUMO gap              2.494886189218 eV    ::
         ::.................................................::
         :: SCC energy                -8.248913799870 Eh    ::
         :: -> isotropic ES           -0.009290110490 Eh    ::
         :: -> anisotropic ES          0.000502267044 Eh    ::
         :: -> anisotropic XC          0.004856802458 Eh    ::
         :: -> dispersion             -0.001705833731 Eh    ::
         :: repulsion energy           0.126429799930 Eh    ::
         :: add. restraining           0.000000000000 Eh    ::
         :::::::::::::::::::::::::::::::::::::::::::::::::::::

           ------------------------------------------------- 
          |                Numerical Hessian                |
           ------------------------------------------------- 
step length          :   0.00500
SCC accuracy         :   0.30000
Hessian scale factor :   1.00000
frozen atoms in %    :   0.00000    0
RMS gradient         :   0.00014
estimated CPU  time      0.00 min
estimated wall time      0.00 min

writing file <hessian>.

 projected vibrational frequencies (cm-1)
eigval :       -0.00    -0.00    -0.00     0.00     0.00     0.00
eigval :      559.55   635.47   914.79  1071.10  1071.11  1460.45
           -------------------------------------------------
          |                Property Printout                |
           -------------------------------------------------

    * Orbital Energies and Occupations

         #    Occupation            Energy/Eh            Energy/eV
      -------------------------------------------------------------
         1        2.0000           -0.7393154             -20.1178
         2        2.0000           -0.6283288             -17.0977
         3        2.0000           -0.6283287             -17.0977
         4        2.0000           -0.5531117             -15.0509
         5        2.0000           -0.5337315             -14.5236
         6        2.0000           -0.4803264             -13.0703
         7        2.0000           -0.4635354             -12.6134
         8        1.0000           -0.4132274             -11.2445
         9        1.0000           -0.4132273             -11.2445 (HOMO)
        10                         -0.3215420              -8.7496 (LUMO)
        11                         -0.3215417              -8.7496
        12                         -0.2357571              -6.4153
        13                          0.1275637               3.4712
        14                          0.1771853               4.8215
        15                          0.1771869               4.8215
        16                          0.5712022              15.5432
      -------------------------------------------------------------
                  HL-Gap            0.0916853 Eh            2.4949 eV
             Fermi-level           -0.4030414 Eh          -10.9673 eV

     #   Z        covCN         q      C6AA      α(0)
     1   6 C      2.638    -0.000    28.014     8.658
     2   6 C      2.638     0.000    28.014     8.658
     3   6 C      2.638    -0.000    28.014     8.658
     4   6 C      2.638     0.000    28.014     8.658

 Mol. C6AA /au·bohr⁶  :        448.216308
 Mol. C8AA /au·bohr⁸  :      12963.194521
 Mol. α(0) /au        :         34.632692


Wiberg/Mayer (AO) data.
largest (>0.10) Wiberg bond orders for each atom
          total WBO             WBO to atom ...
     1  C   2.904        C    2 1.176    C    4 1.176    C    3 0.552
     2  C   2.904        C    1 1.176    C    3 1.176    C    4 0.552
     3  C   2.904        C    4 1.176    C    2 1.176    C    1 0.552
Molecule has the following symmetry elements: 3*(C2) (S4) 2*(sigma) 
It seems to be the D2d point group
     4  C   2.904        C    3 1.176    C    1 1.176    C    2 0.552

MOs/occ written to file <molden.input>


molecular dipole:
                 x           y           z       tot (Debye)
 q only:       -0.000      -0.000      -0.000
   full:       -0.000      -0.000      -0.000       0.000
molecular quadrupole (traceless):
                xx          xy          yy          xz          yz          zz
 q only:       -0.000       0.000       0.000       0.000       0.000       0.000
  q+dip:       -0.473      -0.000      -0.472       0.002      -0.011       0.945
   full:       -1.272      -0.000      -1.272       0.007      -0.030       2.543

           -------------------------------------------------
          |                Geometry Summary                 |
           -------------------------------------------------

      molecular mass/u    :       48.0429436
   center of mass at/Å    :       -0.0000000      -0.0000000      -0.0000002
  moments of inertia/u·Å² :        0.2360961E+02   0.2360964E+02   0.4361951E+02
rotational constants/cm⁻¹ :        0.7140158E+00   0.7140148E+00   0.3864700E+00

           -------------------------------------------------
          |               Frequency Printout                |
           -------------------------------------------------
 projected vibrational frequencies (cm-1)
eigval :       -0.00    -0.00    -0.00     0.00     0.00     0.00
eigval :      559.55   635.47   914.79  1071.10  1071.11  1460.45
 reduced masses (amu)
   1: 12.01   2: 12.01   3: 12.01   4: 12.01   5: 12.01   6: 12.01   7: 12.01   8: 12.01
   9: 12.01  10: 12.01  11: 12.01  12: 12.01
 IR intensities (amu)
   1:  0.00   2:  0.00   3:  0.00   4:  0.00   5:  0.00   6:  0.00   7:  0.00   8:  0.10
   9:  0.00  10:  1.81  11:  1.81  12:  0.00
 Raman intensities (amu)
   1:  0.00   2:  0.00   3:  0.00   4:  0.00   5:  0.00   6:  0.00   7:  0.00   8:  0.00
   9:  0.00  10:  0.00  11:  0.00  12:  0.00
 output can be read by thermo (or use thermo option).
 writing <g98.out> molden fake output.
 recommended (thermochemical) frequency scaling factor: 1.0
           -------------------------------------------------
          |             Thermodynamic Functions             |
           -------------------------------------------------

d2d symmetry found (for desy threshold:  0.10E+00) used in thermo

          ...................................................
          :                      SETUP                      :
          :.................................................:
          :  # frequencies                           6      :
          :  # imaginary freq.                       0      :
          :  linear?                             false      :
          :  only rotor calc.                    false      :
          :  symmetry                              d2d      :
          :  rotational number                       4      :
          :  scaling factor                  1.0000000      :
          :  rotor cutoff                   50.0000000 cm⁻¹ :
          :  imag. cutoff                  -20.0000000 cm⁻¹ :
          :.................................................:

    mode    ω/cm⁻¹     T·S(HO)/kcal·mol⁻¹    T·S(FR)/kcal·mol⁻¹   T·S(vib)
   ------------------------------------------------------------------------
   ------------------------------------------------------------------------

   temp. (K)  partition function   enthalpy   heat capacity  entropy
                                   cal/mol     cal/K/mol   cal/K/mol   J/K/mol
 298.15  VIB   1.15                  274.739      3.254      1.203
         ROT  0.298E+04              888.752      2.981     18.877
         INT  0.343E+04             1163.492      6.235     20.080
         TR   0.322E+27             1481.254      4.968     37.516
         TOT                        2644.7455    11.2029    57.5959   240.9814

   temp. (K)  partition function   enthalpy   heat capacity  entropy
                                   cal/mol     cal/K/mol   cal/K/mol   J/K/mol
 120.00  VIB   1.00                    2.908      0.172      0.028
         ROT   760.                  357.707      2.981     16.164
         INT   762.                  360.615      3.153     16.192
         TR   0.823E+26              596.178      4.968     32.997
         TOT                         956.7928     8.1210    49.1882   205.8035

   temp. (K)  partition function   enthalpy   heat capacity  entropy
                                   cal/mol     cal/K/mol   cal/K/mol   J/K/mol
 100.00  VIB   1.00                    0.711      0.060      0.008
         ROT   578.                  298.089      2.981     15.621
         INT   579.                  298.800      3.041     15.628
         TR   0.626E+26              496.815      4.968     32.091
         TOT                         795.6150     8.0088    47.7196   199.6589

   temp. (K)  partition function   enthalpy   heat capacity  entropy
                                   cal/mol     cal/K/mol   cal/K/mol   J/K/mol
  80.00  VIB   1.00                    0.088      0.011      0.001
         ROT   414.                  238.471      2.981     14.955
         INT   414.                  238.559      2.992     14.957
         TR   0.448E+26              397.452      4.968     30.983
         TOT                         636.0114     7.9605    45.9396   192.2114

   temp. (K)  partition function   enthalpy   heat capacity  entropy
                                   cal/mol     cal/K/mol   cal/K/mol   J/K/mol
  60.00  VIB   1.00                    0.003      0.001     -0.000
         ROT   269.                  178.853      2.981     14.098
         INT   269.                  178.856      2.982     14.098
         TR   0.291E+26              298.089      4.968     29.555
         TOT                         476.9452     7.9497    43.6523   182.6413

   temp. (K)  partition function   enthalpy   heat capacity  entropy
                                   cal/mol     cal/K/mol   cal/K/mol   J/K/mol
  40.00  VIB   1.00                    0.000      0.000     -0.000
         ROT   146.                  119.236      2.981     12.889
         INT   146.                  119.236      2.981     12.889
         TR   0.158E+26              198.726      4.968     27.541
         TOT                         317.9616     7.9490    40.4302   169.1598

   temp. (K)  partition function   enthalpy   heat capacity  entropy
                                   cal/mol     cal/K/mol   cal/K/mol   J/K/mol
  20.00  VIB   1.00                    0.000      0.000     -0.000
         ROT   51.7                   59.618      2.981     10.823
         INT   51.7                   59.618      2.981     10.823
         TR   0.560E+25               99.363      4.968     24.099
         TOT                         158.9808     7.9490    34.9219   146.1132

   temp. (K)  partition function   enthalpy   heat capacity  entropy
                                   cal/mol     cal/K/mol   cal/K/mol   J/K/mol
  10.00  VIB   1.00                    0.000      0.000     -0.000
         ROT   18.3                   29.809      2.981      8.757
         INT   18.3                   29.809      2.981      8.756
         TR   0.198E+25               49.681      4.968     20.657
         TOT                          79.4904     7.9490    29.4136   123.0667

       T/K    H(0)-H(T)+PV         H(T)/Eh          T*S/Eh         G(T)/Eh
   ------------------------------------------------------------------------
    298.15    0.421467E-02    0.172286E-01    0.273657E-01   -0.101370E-01
    120.00    0.152475E-02    0.145387E-01    0.940637E-02    0.513235E-02
    100.00    0.126789E-02    0.142819E-01    0.760461E-02    0.667726E-02
     80.00    0.101355E-02    0.140275E-01    0.585675E-02    0.817077E-02
     60.00    0.760061E-03    0.137740E-01    0.417386E-02    0.960017E-02
     40.00    0.506704E-03    0.135207E-01    0.257718E-02    0.109435E-01
     20.00    0.253352E-03    0.132673E-01    0.111303E-02    0.121543E-01
     10.00    0.126676E-03    0.131406E-01    0.468736E-03    0.126719E-01 (used)
   ------------------------------------------------------------------------

         :::::::::::::::::::::::::::::::::::::::::::::::::::::
         ::                  THERMODYNAMIC                  ::
         :::::::::::::::::::::::::::::::::::::::::::::::::::::
         :: total free energy          -8.109812081790 Eh   ::
         ::.................................................::
         :: total energy               -8.122483994543 Eh   ::
         :: zero point energy           0.013013972894 Eh   ::
         :: G(RRHO) w/o ZPVE           -0.000342060141 Eh   ::
         :: G(RRHO) contrib.            0.012671912753 Eh   ::
         :::::::::::::::::::::::::::::::::::::::::::::::::::::

optimized geometry written to: xtbopt.xyz


           -------------------------------------------------
          | TOTAL ENERGY               -8.122483994543 Eh   |
          | TOTAL ENTHALPY             -8.109343345633 Eh   |
          | TOTAL FREE ENERGY          -8.109812081790 Eh   |
          | GRADIENT NORM               0.000137371950 Eh/α |
          | HOMO-LUMO GAP               2.494885058787 eV   |
           -------------------------------------------------

------------------------------------------------------------------------
 * finished run on 2020/05/12 at 14:38:40.458     
------------------------------------------------------------------------
 total:
 * wall-time:     0 d,  0 h,  0 min,  0.117 sec
 *  cpu-time:     0 d,  0 h,  0 min,  0.116 sec
 * ratio c/w:     0.991 speedup
 SCF:
 * wall-time:     0 d,  0 h,  0 min,  0.004 sec
 *  cpu-time:     0 d,  0 h,  0 min,  0.004 sec
 * ratio c/w:     1.000 speedup
 ANC optimizer:
 * wall-time:     0 d,  0 h,  0 min,  0.036 sec
 *  cpu-time:     0 d,  0 h,  0 min,  0.036 sec
 * ratio c/w:     0.993 speedup
 numerical hessian:
 * wall-time:     0 d,  0 h,  0 min,  0.057 sec
 *  cpu-time:     0 d,  0 h,  0 min,  0.057 sec
 * ratio c/w:     0.995 speedup

