 Entering Gaussian System
 *********************************************
 Gaussian 98:
 frequency output generated by the xtb code
 *********************************************
                         Standard orientation:
 --------------------------------------------------------------------
  Center     Atomic     Atomic              Coordinates (Angstroms)
  Number     Number      Type              X           Y           Z
 --------------------------------------------------------------------
    1          7             0        0.624333   -0.037577    0.400353
    2          6             0       -0.030327    1.057678   -0.079315
    3          7             0       -0.619464   -0.132338   -0.387624
    4          1             0        1.449033   -0.409071   -0.051604
    5          1             0       -1.423575   -0.478692    0.118192
 --------------------------------------------------------------------
     1 basis functions        1 primitive gaussians
     1 alpha electrons        1 beta electrons

 Harmonic frequencies (cm**-1), IR intensities (KM/Mole),
 Raman scattering activities (A**4/amu), Raman depolarization ratios,
 reduced masses (AMU), force constants (mDyne/A) and normal coordinates:
                      1                      2                      3
                        a                      a                      a 
 Frequencies --   390.4985               793.4325               873.9016
 Red. masses --     7.7583                 3.0693                 3.6530
 Frc consts  --     0.0000                 0.0000                 0.0000
 IR Inten    --     1.8147                 0.5467                 0.5338
 Raman Activ --     0.0000                 0.0000                 0.0000
 Depolar     --     0.0000                 0.0000                 0.0000
 Atom AN      X      Y      Z        X      Y      Z        X      Y      Z
   1   7     0.12  -0.32   0.28    -0.18  -0.19   0.09     0.22   0.10   0.03
   2   6    -0.21  -0.03  -0.33    -0.00   0.08  -0.01    -0.31  -0.01   0.05
   3   7     0.10   0.36   0.23     0.19  -0.19  -0.07     0.23  -0.08   0.05
   4   1    -0.05   0.24  -0.41     0.02   0.54  -0.36    -0.30  -0.51  -0.19
   5   1    -0.04  -0.30  -0.37    -0.06   0.58   0.28    -0.33   0.46  -0.27
                      4                      5                      6
                        a                      a                      a 
 Frequencies --   993.7932              1097.6461              1153.4124
 Red. masses --    12.4061                 7.5825                 3.1531
 Frc consts  --     0.0000                 0.0000                 0.0000
 IR Inten    --     0.1197                 1.0936                 0.0401
 Raman Activ --     0.0000                 0.0000                 0.0000
 Depolar     --     0.0000                 0.0000                 0.0000
 Atom AN      X      Y      Z        X      Y      Z        X      Y      Z
   1   7    -0.49  -0.19  -0.30    -0.17   0.34  -0.00     0.01  -0.07  -0.28
   2   6    -0.01   0.42  -0.03     0.48   0.03   0.18     0.00  -0.03   0.00
   3   7     0.49  -0.11   0.33    -0.15  -0.34   0.05    -0.00  -0.03   0.28
   4   1    -0.12  -0.18   0.03    -0.23   0.14  -0.39     0.40   0.29   0.42
   5   1     0.13  -0.18  -0.00    -0.22  -0.20  -0.37    -0.41   0.20  -0.45
                      7                      8                      9
                        a                      a                      a 
 Frequencies --  1532.6406              3375.2881              3380.8520
 Red. masses --    12.5344                 1.8813                 1.8667
 Frc consts  --     0.0000                 0.0000                 0.0000
 IR Inten    --     0.4351                 0.1481                 0.0145
 Raman Activ --     0.0000                 0.0000                 0.0000
 Depolar     --     0.0000                 0.0000                 0.0000
 Atom AN      X      Y      Z        X      Y      Z        X      Y      Z
   1   7    -0.31   0.30  -0.19     0.15  -0.08  -0.07    -0.15   0.08   0.08
   2   6     0.02  -0.72   0.05    -0.00  -0.00  -0.01     0.00  -0.02   0.00
   3   7     0.29   0.34   0.14     0.15   0.07  -0.08     0.14   0.07  -0.09
   4   1    -0.10   0.06  -0.04    -0.56   0.26   0.28     0.56  -0.26  -0.29
   5   1     0.10   0.08   0.03    -0.55  -0.25   0.32    -0.55  -0.24   0.33
