$hessian                                                                        
        0.6046935852  -0.0073848286  -0.0442936402  -0.1527437882  -0.0108171272
       -0.1202680965  -0.2859644592   0.0189087282   0.1513888633  -0.0853498162
       -0.0967805983   0.0167328182  -0.0806355216   0.0960738260  -0.0035599447
       -0.0073848286   0.3650253962  -0.0167345718  -0.0074574119  -0.0090315531
       -0.0068195394   0.0159030776  -0.0127379177  -0.0066785974  -0.1080114512
       -0.1673827156   0.0261187860   0.1069506141  -0.1758732098   0.0041139226
       -0.0442936402  -0.0167345718   0.2009394877  -0.0878432706  -0.0072006484
       -0.0872939821   0.1222066091  -0.0063371096  -0.0592276864   0.0162309576
        0.0217261169  -0.0290768694  -0.0063006559   0.0085462129  -0.0253409497
       -0.1527437882  -0.0074574119  -0.0878432706   0.1912732990   0.0095018415
        0.1112197072  -0.0027027463   0.0005509916   0.0050695259  -0.0180554443
       -0.0040774840  -0.0140027889  -0.0177713203   0.0014820629  -0.0144431737
       -0.0108171272  -0.0090315531  -0.0072006484   0.0095018415   0.0162676418
        0.0407996819   0.0015884336  -0.0037567411  -0.0341325186  -0.0092952581
       -0.0021723112  -0.0052411738   0.0090221102  -0.0013070364   0.0057746589
       -0.1202680965  -0.0068195394  -0.0872939821   0.1112197072   0.0407996819
        0.4167073901   0.0152661211  -0.0342571519  -0.3278752551  -0.0021607888
        0.0004481034  -0.0002079121  -0.0040569431  -0.0001710940  -0.0013302408
       -0.2859644592   0.0159030776   0.1222066091  -0.0027027463   0.0015884336
        0.0152661211   0.3367258293  -0.0211302105  -0.1671129963  -0.0242152790
       -0.0054881619   0.0156548273  -0.0238433448   0.0091268612   0.0139854388
        0.0189087282  -0.0127379177  -0.0063371096   0.0005509916  -0.0037567411
       -0.0342571519  -0.0211302105   0.0162808575   0.0413941483  -0.0072051088
        0.0009423999   0.0036602267   0.0088755996  -0.0007285985  -0.0044601134
        0.1513888633  -0.0066785974  -0.0592276864   0.0050695259  -0.0341325186
       -0.3278752551  -0.1671129963   0.0413941483   0.3912165697   0.0061966487
        0.0016232053  -0.0027160503   0.0044579584  -0.0022062376  -0.0013975779
       -0.0853498162  -0.1080114512   0.0162309576  -0.0180554443  -0.0092952581
       -0.0021607888  -0.0242152790  -0.0072051088   0.0061966487   0.1212535699
        0.1159337392  -0.0185712331   0.0063669695   0.0085780789  -0.0016955844
       -0.0967805983  -0.1673827156   0.0217261169  -0.0040774840  -0.0021723112
        0.0004481034  -0.0054881619   0.0009423999   0.0016232053   0.1159337392
        0.1987211452  -0.0283199395  -0.0095874949  -0.0301085183   0.0045225139
        0.0167328182   0.0261187860  -0.0290768694  -0.0140027889  -0.0052411738
       -0.0002079121   0.0156548273   0.0036602267  -0.0027160503  -0.0185712331
       -0.0283199395   0.0225372868   0.0001863765   0.0037821006   0.0094635451
       -0.0806355216   0.1069506141  -0.0063006559  -0.0177713203   0.0090221102
       -0.0040569431  -0.0238433448   0.0088755996   0.0044579584   0.0063669695
       -0.0095874949   0.0001863765   0.1158832171  -0.1152608289   0.0057132640
        0.0960738260  -0.1758732098   0.0085462129   0.0014820629  -0.0013070364
       -0.0001710940   0.0091268612  -0.0007285985  -0.0022062376   0.0085780789
       -0.0301085183   0.0037821006  -0.1152608289   0.2080173630  -0.0099509819
       -0.0035599447   0.0041139226  -0.0253409497  -0.0144431737   0.0057746589
       -0.0013302408   0.0139854388  -0.0044601134  -0.0013975779  -0.0016955844
        0.0045225139   0.0094635451   0.0057132640  -0.0099509819   0.0186052233
