5
 energy: -7.835055984882 gnorm: 0.113553419407 xtb: 6.2.2 (9d81278992624c895f80dd42a50cac0aa55982e2)
C         0.72563500000000   -0.21198300000000    0.68928800000000
N        -0.67424400000000   -0.06784500000000    0.31014100000000
C         1.64329600000000    0.09001200000000   -0.48543300000000
H        -0.86975600000000   -0.71965200000000   -0.48391400000000
H        -0.82493100000000    0.90946800000000   -0.03008200000000
5
 energy: -7.849064128621 gnorm: 0.046654319862 xtb: 6.2.2 (9d81278992624c895f80dd42a50cac0aa55982e2)
C         0.72158798504527   -0.19253285519538    0.61986803206446
N        -0.63727496773448   -0.06265381920819    0.28785397859258
C         1.66329492111074    0.07541076269548   -0.43499520810364
H        -0.89605936965833   -0.71897189463194   -0.46169163895924
H        -0.85154856876320    0.89874780634004   -0.01103516359416
5
 energy: -7.851333804880 gnorm: 0.024100681354 xtb: 6.2.2 (9d81278992624c895f80dd42a50cac0aa55982e2)
C         0.72700832703185   -0.18331238754398    0.58623894042084
N        -0.59573425284741   -0.05679545863844    0.26272012697465
C         1.66195648297678    0.06579986088766   -0.40036866424335
H        -0.91881193723986   -0.71961194686095   -0.44904112672028
H        -0.87441861992137    0.89391993215571    0.00045072356815
5
 energy: -7.851871268391 gnorm: 0.009467422079 xtb: 6.2.2 (9d81278992624c895f80dd42a50cac0aa55982e2)
C         0.73033867158193   -0.18021592214139    0.57481150308131
N        -0.59990920072920   -0.05525614169692    0.25760478746020
C         1.71256840801721    0.06349793830941   -0.39712412827974
H        -0.94370848475577   -0.72137589310745   -0.44256160953873
H        -0.89928939411417    0.89335001863635    0.00726944727696
5
 energy: -7.851982497736 gnorm: 0.004716078419 xtb: 6.2.2 (9d81278992624c895f80dd42a50cac0aa55982e2)
C         0.72953786412160   -0.18129744282971    0.57882549223190
N        -0.59596034343735   -0.05357660014926    0.25117947684853
C         1.70885113990312    0.06390523219716   -0.39827888033605
H        -0.94339336147385   -0.72115617507358   -0.44058748389337
H        -0.89903529911352    0.89212498585540    0.00886139514899
5
 energy: -7.852042065090 gnorm: 0.002017854756 xtb: 6.2.2 (9d81278992624c895f80dd42a50cac0aa55982e2)
C         0.73058883082487   -0.18116926742174    0.57857252368379
N        -0.58977605463552   -0.05064895621767    0.24002345580553
C         1.71385550762990    0.06303576300777   -0.39600791722692
H        -0.94948021024261   -0.72336252024415   -0.43638878715622
H        -0.90518807357664    0.89214498087579    0.01380072489383
5
 energy: -7.852048289100 gnorm: 0.000907989666 xtb: 6.2.2 (9d81278992624c895f80dd42a50cac0aa55982e2)
C         0.73096359884457   -0.18059745037943    0.57748777341258
N        -0.58919448678973   -0.04976035112184    0.23666330531139
C         1.71640428423203    0.06239008601891   -0.39508897807336
H        -0.95105273331208   -0.72464967683555   -0.43506565049147
H        -0.90712066297479    0.89261739231792    0.01600354984087
5
 energy: -7.852050242285 gnorm: 0.000652217888 xtb: 6.2.2 (9d81278992624c895f80dd42a50cac0aa55982e2)
C         0.73135457829930   -0.17865539700986    0.57690579728394
N        -0.58936027486363   -0.04934548478629    0.23446844743408
C         1.71795720168904    0.06023935070009   -0.39486111928855
H        -0.95066064661689   -0.72569741426085   -0.43530015602292
H        -0.90929085850782    0.89345894535691    0.01878703059345
