 Entering Gaussian System
 *********************************************
 Gaussian 98:
 frequency output generated by the xtb code
 *********************************************
                         Standard orientation:
 --------------------------------------------------------------------
  Center     Atomic     Atomic              Coordinates (Angstroms)
  Number     Number      Type              X           Y           Z
 --------------------------------------------------------------------
    1          6             0       -1.085560    0.020423    0.101169
    2          6             0       -0.004340   -0.862043    0.012216
    3          6             0        1.085568    0.006602   -0.102932
    4          7             0        0.004332    0.835018   -0.010452
 --------------------------------------------------------------------
     1 basis functions        1 primitive gaussians
     1 alpha electrons        1 beta electrons

 Harmonic frequencies (cm**-1), IR intensities (KM/Mole),
 Raman scattering activities (A**4/amu), Raman depolarization ratios,
 reduced masses (AMU), force constants (mDyne/A) and normal coordinates:
                      1                      2                      3
                        a                      a                      a 
 Frequencies --   111.7629               719.7388               875.2483
 Red. masses --    12.4840                12.0460                13.0918
 Frc consts  --     0.0000                 0.0000                 0.0000
 IR Inten    --     0.1321                 0.5088                 1.3421
 Raman Activ --     0.0000                 0.0000                 0.0000
 Depolar     --     0.0000                 0.0000                 0.0000
 Atom AN      X      Y      Z        X      Y      Z        X      Y      Z
   1   6     0.05   0.01   0.51    -0.38  -0.29   0.04     0.23  -0.42  -0.02
   2   6    -0.05  -0.01  -0.49     0.00   0.72  -0.01     0.00   0.04  -0.00
   3   6     0.05   0.01   0.51     0.38  -0.29  -0.03    -0.23  -0.42   0.03
   4   7    -0.05  -0.00  -0.48    -0.00  -0.13   0.00     0.00   0.74  -0.01
                      4                      5                      6
                        a                      a                      a 
 Frequencies --  1162.0794              1295.3712              1426.9285
 Red. masses --    13.0205                12.0575                12.3316
 Frc consts  --     0.0000                 0.0000                 0.0000
 IR Inten    --     1.1037                 0.9496                 0.2102
 Raman Activ --     0.0000                 0.0000                 0.0000
 Depolar     --     0.0000                 0.0000                 0.0000
 Atom AN      X      Y      Z        X      Y      Z        X      Y      Z
   1   6     0.42   0.26  -0.04    -0.29   0.36   0.02     0.55  -0.03  -0.05
   2   6    -0.07   0.00   0.01     0.74  -0.00  -0.07     0.00   0.49  -0.01
   3   6     0.42  -0.26  -0.04    -0.29  -0.36   0.03    -0.55  -0.02   0.05
   4   7    -0.71   0.00   0.07    -0.15   0.00   0.01    -0.00  -0.40   0.00
