[Molden Format]
[Title]
[Atoms] AU
C      1     6 -0.20514106895805E+01  0.38593502751648E-01  0.19118129640702E+00
C      2     6 -0.82014138761455E-02 -0.16290248464836E+01  0.23084354822089E-01
C      3     6  0.20514267291074E+01  0.12476426952745E-01 -0.19451377394932E+00
N      4     7  0.81853743492107E-02  0.15779549167792E+01 -0.19751877279784E-01
[GTO]
           1 0
 s           4   1.0000000000000000     
   51.049363095579913      -0.16312063210127389     
   8.7911227406887544      -0.19911024581000730     
  0.70640422258929825       0.31882047753655751     
  0.26922813413411617       0.12706504184240380     
 p           4   1.0000000000000000     
   5.8263656140800002       0.73716451545209605     
   1.5106896018720002       0.68216371614850257     
  0.53256483288000001       0.35783053929253711     
  0.21202323690600003        5.3983030275847881E-002

           2 0
 s           4   1.0000000000000000     
   51.049363095579913      -0.16312063210127389     
   8.7911227406887544      -0.19911024581000730     
  0.70640422258929825       0.31882047753655751     
  0.26922813413411617       0.12706504184240380     
 p           4   1.0000000000000000     
   5.8263656140800002       0.73716451545209605     
   1.5106896018720002       0.68216371614850257     
  0.53256483288000001       0.35783053929253711     
  0.21202323690600003        5.3983030275847881E-002

           3 0
 s           4   1.0000000000000000     
   51.049363095579913      -0.16312063210127389     
   8.7911227406887544      -0.19911024581000730     
  0.70640422258929825       0.31882047753655751     
  0.26922813413411617       0.12706504184240380     
 p           4   1.0000000000000000     
   5.8263656140800002       0.73716451545209605     
   1.5106896018720002       0.68216371614850257     
  0.53256483288000001       0.35783053929253711     
  0.21202323690600003        5.3983030275847881E-002

           4 0
 s           4   1.0000000000000000     
   63.594024466941008      -0.19234388414721629     
   10.951417231523665      -0.23478107924953728     
  0.87999310257376984       0.37593753901700888     
  0.33538715296521110       0.14982889271862770     
 p           4   1.0000000000000000     
   7.2965040481495080       0.97658666315667420     
   1.8918745450712575       0.90372226730345739     
  0.66694432110824120       0.47404958461536373     
  0.26552202674130870        7.1516067715011844E-002

[MO]
Sym=     1a
Ene=  -0.75698963146861087     
Spin= Alpha
Occup=     2.00000000
           1  0.25572032259955507     
           2  0.14849014863323873     
           3  -2.2512612109492586E-003
           4  -1.3787292001530761E-002
           5  0.31599358571542308     
           6   8.3235661078775655E-004
           7  0.16492255763346012     
           8  -2.3083729376223686E-003
           9  0.25571796987274448     
          10 -0.14847350531130951     
          11  -3.6109297689062057E-004
          12   1.4129347216073711E-002
          13  0.34899124127142195     
          14  -1.2526624561474181E-003
          15 -0.24194501834070406     
          16   3.0657171164996926E-003
Sym=     2a
Ene=  -0.66254399876134629     
Spin= Alpha
Occup=     2.00000000
           1  0.44004085688177025     
           2   5.4975672132794591E-002
           3   3.6247170262379294E-002
           4  -5.3743181790549197E-003
           5  -2.0715844765249159E-006
           6 -0.29159908067662038     
           7   1.8559608700911140E-003
           8   2.7412330378491841E-002
           9 -0.44004243059334397     
          10   5.4554400203872797E-002
          11  -3.6942769049261796E-002
          12  -4.9222971713286457E-003
          13   6.7752643435130621E-007
          14 -0.42052187170226513     
          15   2.6776566719600302E-003
          16   3.9531939232469039E-002
Sym=     3a
Ene=  -0.63133881097253985     
Spin= Alpha
Occup=     2.00000000
           1   3.4254381639786481E-002
           2  -8.7950162259535017E-003
           3 -0.27629649157569264     
           4   4.4480487820243728E-003
           5  0.47928826600073471     
           6  -4.3264111889267445E-004
           7  -8.1223091566554509E-002
           8   9.2750051344186665E-004
           9   3.4251077274663484E-002
          10   5.9824396149745157E-003
          11 -0.27638598401203107     
          12   3.0588033241980852E-003
          13 -0.59169063920653731     
          14  -8.0665779744530956E-004
          15 -0.16573254981207952     
          16   2.6352435896726477E-003
Sym=     4a
Ene=  -0.57822186828688782     
Spin= Alpha
Occup=     2.00000000
           1   6.3891933661008036E-004
           2  -3.1777908658766077E-002
           3  -4.3613208614079928E-003
           4 -0.33907846307173223     
           5  -2.2289643687216763E-004
           6  -3.4967843025411720E-002
           7  -5.0374309781152328E-003
           8 -0.37163019259838120     
           9   6.3893870800121346E-004
          10  -3.2026488980999468E-002
          11  -4.3597283839170971E-003
          12 -0.33905135360552890     
          13  -6.6454712716255591E-004
          14  -5.5406829070336422E-002
          15  -7.2483154394325840E-003
          16 -0.58890000970643830     
Sym=     5a
Ene=  -0.55762369297987113     
Spin= Alpha
Occup=     2.00000000
           1  -8.8655113822410411E-002
           2   4.5882854532314429E-002
           3  0.39798811807280321     
           4  -9.3922950364357279E-003
           5   2.5933151647556095E-006
           6  0.43319191211212354     
           7  -2.7585003257455678E-003
           8  -4.0722997149779581E-002
           9   8.8656537361411977E-002
          10   4.1803901107455708E-002
          11 -0.39854868255452719     
          12   1.1492061888516876E-003
          13  -4.1085434935762457E-006
          14 -0.41753553734379656     
          15   2.6560298439390834E-003
          16   3.9251280228193922E-002
Sym=     6a
Ene=  -0.50749526031335479     
Spin= Alpha
Occup=     2.00000000
           1  0.15298279123057215     
           2  -6.7988538819492156E-002
           3   7.8210439140556892E-002
           4   5.4681440601496460E-003
           5 -0.51095006881033622     
           6   2.2533962241917701E-003
           7  0.43748660807443285     
           8  -5.6483572709419057E-003
           9  0.15298355634430466     
          10   6.8798359033318504E-002
          11   7.7340575338055509E-002
          12  -7.3907806714481527E-003
          13 -0.44489506422063857     
          14  -2.7794506342103498E-003
          15 -0.54492736792292673     
          16   7.3293543516958423E-003
Sym=     7a
Ene=  -0.48678674746871203     
Spin= Alpha
Occup=     2.00000000
           1  0.54173748658003673     
           2 -0.40949683487316124     
           3   1.3977552073650206E-003
           4   3.8658302157857267E-002
           5   7.8452798415258995E-003
           6  -4.8612306825803440E-004
           7  -9.6812948461240125E-002
           8   1.3934390024582148E-003
           9  0.54174018433018944     
          10  0.40951051620784634     
          11  -3.8149195019922992E-003
          12  -3.8334059662848356E-002
          13   1.2246459221400684E-002
          14   1.3884189941731266E-003
          15  0.26015227847899719     
          16  -2.8418258249150465E-003
Sym=     8a
Ene=  -0.41578182816702086     
Spin= Alpha
Occup=     1.00000000
           1 -0.34531884871284063     
           2  0.57947332760537762     
           3  -7.6148603949842381E-002
           4  -5.0397131809128685E-002
           5   2.0333308155198828E-007
           6 -0.25774261598257087     
           7   1.6399647782804640E-003
           8   2.4229612111901097E-002
           9  0.34531784235258017     
          10  0.57962718653471645     
          11   6.8770546242401726E-002
          12  -5.8566338712458602E-002
          13   2.2864917386878943E-007
          14 -0.22339389965543727     
          15   1.4222246190549975E-003
          16   2.1000541216032394E-002
Sym=     9a
Ene=  -0.40707856633189193     
Spin= Alpha
Occup=     1.00000000
           1  -1.5161438101317427E-004
           2  -1.0680752262032521E-002
           3  -2.7101415705667133E-003
           4 -0.11613624521856603     
           5  -1.3165612380027860E-003
           6  -6.8912103200194266E-002
           7  -7.8753171558326104E-003
           8 -0.73252030998241413     
           9  -1.5160522004115410E-004
          10  -1.1184728304105123E-002
          11  -2.7069759108864968E-003
          12 -0.11609159967023809     
          13   9.4781423200433431E-004
          14   6.6854433765851415E-002
          15   1.0102600876381831E-002
          16  0.71048111256166901     
Sym=    10a
Ene=  -0.38506868540317973     
Spin= Alpha
Occup=     1.00000000
           1   8.2643241389885572E-004
           2   6.4291167325780829E-002
           3   9.5018904125785120E-003
           4  0.71667730074931479     
           5   2.3010202876171973E-009
           6   9.4410893409573992E-004
           7  -5.9905051605404212E-006
           8  -8.7577803196849761E-005
           9  -8.2642505770559517E-004
          10  -7.0520124229287010E-002
          11  -9.4622875280102325E-003
          12 -0.71609576857719237     
          13  -4.5655135524195047E-009
          14   8.8890749724894772E-004
          15  -5.6943047210332726E-006
          16  -8.6325950878969948E-005
Sym=    11a
Ene=  -0.33719910358372451     
Spin= Alpha
Occup=     0.00000000
           1   2.5443173902620381E-002
           2  -3.6502384436442978E-002
           3  0.41820550164939418     
           4  -2.4146603643888614E-003
           5  0.21592117362013763     
           6  -3.7286929895835323E-003
           7 -0.69421606712169925     
           8   7.3435495115468895E-003
           9   2.5443065551477587E-002
          10   4.0686405500754495E-002
          11  0.41771610590365549     
          12  -9.6709675859021505E-003
          13 -0.10622360456310039     
          14  -2.6051974555579989E-003
          15 -0.55005733226569897     
          16   9.5298320354170307E-003
Sym=    12a
Ene=  -0.21861592509430397     
Spin= Alpha
Occup=     0.00000000
           1   1.1226641387959841E-004
           2  -6.0307919303225654E-002
           3  -8.3575169725647481E-003
           4 -0.64314182786837415     
           5   3.9819646935012395E-004
           6   5.8780715960031864E-002
           7   8.5546988107213263E-003
           8  0.62470150218539244     
           9   1.1226168829831114E-004
          10  -6.0714062111378489E-002
          11  -8.3548821937385245E-003
          12 -0.64309988623077630     
          13   3.1828552498827932E-004
          14   4.2047096187570208E-002
          15   5.6854973909676934E-003
          16  0.44689165823099369     
Sym=    13a
Ene=    6.5790261128246029E-003
Spin= Alpha
Occup=     0.00000000
           1   5.8225767868800148E-002
           2  0.15373943647161614     
           3  0.57958590949057309     
           4  -2.1782285022326583E-002
           5  0.53836350282010370     
           6   2.2872407426747688E-003
           7  0.45856383181671806     
           8  -6.8315049601676671E-003
           9   5.8229836383905498E-002
          10 -0.14778493340843130     
          11  0.58153052236372160     
          12   6.5627783688876158E-003
          13 -0.73278642520280646     
          14   3.1237557486012979E-003
          15  0.59592448150292954     
          16  -6.9539915915026642E-003
Sym=    14a
Ene=   0.14540408618531925     
Spin= Alpha
Occup=     0.00000000
           1  -6.4551629633260305E-002
           2 -0.12004833082380569     
           3 -0.72883648738887874     
           4   2.0523245356186007E-002
           5  -1.2392758771194211E-005
           6  0.66418129651135605     
           7  -4.2367943502619777E-003
           8  -6.2437498790713031E-002
           9   6.4549495210256130E-002
          10 -0.11255895880158398     
          11  0.73029261338947460     
          12   1.3437591805612358E-003
          13   1.5708715071545467E-005
          14 -0.80801385149173199     
          15   5.1323515008093916E-003
          16   7.5959008371354067E-002
Sym=    15a
Ene=   0.28307620079135343     
Spin= Alpha
Occup=     0.00000000
           1 -0.66033848351067059     
           2 -0.57291224907854499     
           3  0.11449543176558138     
           4   5.1350051797114458E-002
           5  -1.8453900024771143E-005
           6 -0.84288001749282937     
           7   5.3504299418534627E-003
           8   7.9236768615621553E-002
           9  0.66036219979015687     
          10 -0.57387917810095679     
          11 -0.10720318860039614     
          12   5.6456387914516973E-002
          13  -9.0183559560194011E-006
          14 -0.60907328713469844     
          15   3.8834948773571309E-003
          16   5.7257037032351056E-002
Sym=    16a
Ene=   0.44872505520359685     
Spin= Alpha
Occup=     0.00000000
           1 -0.57907320999730971     
           2 -0.71628843686642751     
           3  0.12101811256997375     
           4   6.5209552555035202E-002
           5  0.79112537085268786     
           6   3.1489937900730154E-003
           7  0.64142320447857604     
           8  -9.7193509472923868E-003
           9 -0.57903683183625354     
          10  0.71733138348814440     
          11  0.11188782225636454     
          12  -6.9560505496914726E-002
          13  0.49711253433990565     
          14  -2.0329294285555202E-003
          15 -0.37880039205424609     
          16   4.1950723155444614E-003
