5
 energy: -6.535557485914 gnorm: 0.001015139838 xtb: 6.2.2 (9d81278992624c895f80dd42a50cac0aa55982e2)
C        -0.39062133074842   -0.04694628020559   -0.00734229971219
N         0.79419584141407   -0.44104784787337   -0.00995576184851
H        -1.17122102536252   -0.79817558417330   -0.05428671950239
H        -0.73346608207358    0.99334627108162    0.03686442739146
H         1.50111359677567    0.29282444116541    0.03472035366639
