[Molden Format]
[Title]
[Atoms] AU
C      1     6  0.36319654326607E+01 -0.51258489197408E+00 -0.35646059616093E-01
N      2     7  0.13593754833227E+01 -0.18887024116988E+00 -0.13579984594803E+00
C      3     6 -0.30941590281444E+01  0.42988878352848E+00  0.31936426627396E+00
C      4     6 -0.74356423057406E+00  0.15858829144527E+01 -0.39871684872061E-01
C      5     6 -0.11536176572649E+01 -0.13143165648372E+01 -0.10804667583778E+00
[GTO]
           1 0
 s           4   1.0000000000000000     
   51.049363095579913      -0.16312063210127389     
   8.7911227406887544      -0.19911024581000730     
  0.70640422258929825       0.31882047753655751     
  0.26922813413411617       0.12706504184240380     
 p           4   1.0000000000000000     
   5.8263656140800002       0.73716451545209605     
   1.5106896018720002       0.68216371614850257     
  0.53256483288000001       0.35783053929253711     
  0.21202323690600003        5.3983030275847881E-002

           2 0
 s           4   1.0000000000000000     
   63.594024466941008      -0.19234388414721629     
   10.951417231523665      -0.23478107924953728     
  0.87999310257376984       0.37593753901700888     
  0.33538715296521110       0.14982889271862770     
 p           4   1.0000000000000000     
   7.2965040481495080       0.97658666315667420     
   1.8918745450712575       0.90372226730345739     
  0.66694432110824120       0.47404958461536373     
  0.26552202674130870        7.1516067715011844E-002

           3 0
 s           4   1.0000000000000000     
   51.049363095579913      -0.16312063210127389     
   8.7911227406887544      -0.19911024581000730     
  0.70640422258929825       0.31882047753655751     
  0.26922813413411617       0.12706504184240380     
 p           4   1.0000000000000000     
   5.8263656140800002       0.73716451545209605     
   1.5106896018720002       0.68216371614850257     
  0.53256483288000001       0.35783053929253711     
  0.21202323690600003        5.3983030275847881E-002

           4 0
 s           4   1.0000000000000000     
   51.049363095579913      -0.16312063210127389     
   8.7911227406887544      -0.19911024581000730     
  0.70640422258929825       0.31882047753655751     
  0.26922813413411617       0.12706504184240380     
 p           4   1.0000000000000000     
   5.8263656140800002       0.73716451545209605     
   1.5106896018720002       0.68216371614850257     
  0.53256483288000001       0.35783053929253711     
  0.21202323690600003        5.3983030275847881E-002

           5 0
 s           4   1.0000000000000000     
   51.049363095579913      -0.16312063210127389     
   8.7911227406887544      -0.19911024581000730     
  0.70640422258929825       0.31882047753655751     
  0.26922813413411617       0.12706504184240380     
 p           4   1.0000000000000000     
   5.8263656140800002       0.73716451545209605     
   1.5106896018720002       0.68216371614850257     
  0.53256483288000001       0.35783053929253711     
  0.21202323690600003        5.3983030275847881E-002

[MO]
Sym=     1a
Ene=  -0.76659802527030996     
Spin= Alpha
Occup=     2.00000000
           1   3.5746969389731820E-002
           2  -4.5301024930791571E-002
           3   6.3783904266354729E-003
           4   1.0864930091558037E-003
           5  0.37543180980773816     
           6 -0.21996977203399765     
           7   3.0774229843168133E-002
           8   1.3499462850602077E-002
           9  0.17177489245609753     
          10   9.7022359870193184E-002
          11  -1.3365467433629121E-002
          12  -1.4944560587186236E-002
          13  0.32658413867244218     
          14   4.0300348044620203E-002
          15 -0.16427553483617022     
          16   1.1554165438746658E-003
          17  0.32656053509358324     
          18   8.4211340005264951E-002
          19  0.14644161838649858     
          20   8.4590717537213166E-003
Sym=     2a
Ene=  -0.72137206640475293     
Spin= Alpha
Occup=     2.00000000
           1  0.43823308245337178     
           2 -0.17658649971873910     
           3   2.5174265472787151E-002
           4  -8.5053199727581075E-003
           5  0.46050290752311346     
           6  0.26869443402920878     
           7  -3.8146566934334103E-002
           8   7.1462363526814676E-003
           9 -0.17483170986240446     
          10  -5.9978894409970847E-002
          11   8.1708148603644535E-003
          12   1.3130799311029655E-002
          13 -0.10589724073700260     
          14  0.11783056511227004     
          15   2.8663959424187604E-002
          16  -5.2499541867297170E-003
          17 -0.10591117472268353     
          18  0.10528705132247974     
          19  -5.9907664934567187E-002
          20  -7.3318123978123040E-003
Sym=     3a
Ene=  -0.66652378028592307     
Spin= Alpha
Occup=     2.00000000
           1 -0.32578885185619433     
           2   4.5280801038257185E-002
           3  -6.3314156188857707E-003
           4  -1.7336642660439148E-003
           5  0.13572275998492675     
           6 -0.35778697182827757     
           7   5.1481529222585448E-002
           8  -3.2413197301871310E-002
           9 -0.44210535299334014     
          10  -8.0733842333669009E-002
          11   1.0978916115620562E-002
          12   1.9401232885351088E-002
          13  -6.6233736373964971E-002
          14  0.29508598041777495     
          15  -2.2125571462694987E-002
          16  -4.0777701711410597E-002
          17  -6.6436064983633483E-002
          18  0.28983062499043388     
          19  -5.8581571076031902E-002
          20  -4.1631167079169987E-002
Sym=     4a
Ene=  -0.64376953761782896     
Spin= Alpha
Occup=     2.00000000
           1  -6.5823335881993805E-005
           2  -2.3954173269304921E-002
           3 -0.16943549220998197     
           4  -3.9877554804591602E-003
           5   2.6504462960237392E-005
           6  -8.1268226745696420E-002
           7 -0.57429172179386589     
           8  -1.3520239428714196E-002
           9  -1.3518378531082788E-004
          10  -1.5602248451728957E-002
          11 -0.11024597412686167     
          12  -2.5893164128758432E-003
          13 -0.38632710118062502     
          14 -0.15475089228205982     
          15 -0.10027884078258141     
          16  -4.3070401282110466E-003
          17  0.38629357309565521     
          18  0.12105999093811101     
          19 -0.13928639680636037     
          20  -1.3603827623251583E-003
Sym=     5a
Ene=  -0.60662902409730568     
Spin= Alpha
Occup=     2.00000000
           1   1.8349975395096346E-002
           2   7.8941853714560202E-003
           3   4.6889191197344651E-003
           4 -0.24671207143484208     
           5   1.3945639554883371E-002
           6   2.8975376200003546E-002
           7   1.1288157973330907E-002
           8 -0.65385492054084460     
           9   1.2950609116798611E-002
          10  -1.9139943828802783E-002
          11   6.3014063126794230E-003
          12 -0.15296296277760693     
          13   2.2707489872466506E-002
          14  -4.2623123392490407E-002
          15   4.1302620759957288E-003
          16 -0.32454821011791818     
          17   2.2694552899034753E-002
          18  -3.9987802874467390E-002
          19   2.2801592955292833E-002
          20 -0.32405507842393777     
Sym=     6a
Ene=  -0.57064222284791422     
Spin= Alpha
Occup=     2.00000000
           1   1.5220037773871560E-005
           2  -2.2965346983676648E-002
           3 -0.16242261428643168     
           4  -3.8197432726349624E-003
           5  -4.2967530003745570E-006
           6  -4.6123285151747906E-002
           7 -0.32620125514196702     
           8  -7.6709604663709342E-003
           9  -1.4980816017767230E-005
          10   6.0095424043553142E-002
          11  0.42505066148267984     
          12   9.9900162823142093E-003
          13  0.32227809265505625     
          14 -0.27765029421224141     
          15  0.17969913209059721     
          16   3.3970994107873818E-002
          17 -0.32231596585502281     
          18  0.31679643087749748     
          19   9.7146038510689828E-002
          20  -2.7471234887134589E-002
Sym=     7a
Ene=  -0.50097381266619900     
Spin= Alpha
Occup=     2.00000000
           1  0.57713772840397537     
           2  0.43555969112358578     
           3  -6.6460673197793516E-002
           4  0.20788390194206907     
           5 -0.26640237576990072     
           6  -9.0234274272844306E-002
           7   7.8704353242060685E-003
           8  0.20892755977363339     
           9 -0.31635038982293456     
          10  0.15883819271877400     
          11  -1.7110520173592561E-002
          12 -0.22744436869031673     
          13  0.15051916754810457     
          14   3.5579775010929654E-002
          15   3.4339372107941666E-004
          16 -0.18822690043215226     
          17  0.15052570703299134     
          18   3.5321208254092976E-002
          19  -1.5214418398441691E-003
          20 -0.18828754450600158     
Sym=     8a
Ene=  -0.49008542876040317     
Spin= Alpha
Occup=     2.00000000
           1 -0.33542313446494482     
           2 -0.30767050621222036     
           3   3.5280335391417075E-002
           4  0.34982832940424885     
           5  0.12395419835129709     
           6   7.4590208459739807E-002
           7  -1.9241391060660432E-002
           8  0.36958513794743292     
           9   8.0470229759196141E-002
          10 -0.12561741472516791     
          11   2.6973331366504365E-002
          12 -0.39185705411852345     
          13  -4.2524927125434681E-002
          14  -7.3098477305325163E-002
          15   1.5051040797774381E-002
          16 -0.32582440237435356     
          17  -4.2522633973055224E-002
          18  -7.2285793345715527E-002
          19   2.0819972609903533E-002
          20 -0.32572350965432129     
Sym=     9a
Ene=  -0.47012337754017514     
Spin= Alpha
Occup=     2.00000000
           1 -0.13521195126974386     
           2 -0.14874628505480642     
           3   2.1727268861227240E-002
           4  -2.9760216516710639E-002
           5  -2.8091109615790040E-002
           6   9.8594431629439677E-002
           7  -1.3591344712378578E-002
           8  -1.4775103960158667E-002
           9 -0.15062206483199239     
          10  0.12556738671306705     
          11  -1.7840899011528952E-002
          12   5.6164189202263688E-003
          13  0.43558799419061101     
          14   5.7902794681049460E-002
          15  0.51931149231901230     
          16   3.4890573476309861E-002
          17  0.43565411373975060     
          18  -8.8375604844096109E-002
          19 -0.51609228069067103     
          20   1.0536801501940788E-002
Sym=    10a
Ene=  -0.43988305741326050     
Spin= Alpha
Occup=     1.99999997
           1 -0.19762144887065766     
           2 -0.25732077242638329     
           3   3.8207715106287024E-002
           4  -7.2554880381311193E-002
           5  -8.9192043030809173E-002
           6  0.21483093116609095     
           7  -2.9898569438383604E-002
           8  -1.8174205836607813E-002
           9 -0.57621375053772450     
          10  0.61150489474312197     
          11  -8.5081631461908128E-002
          12  -5.7260107818709695E-002
          13  -3.6013019916680489E-002
          14 -0.16323215346906561     
          15 -0.18062950520136237     
          16   4.6038642115982485E-002
          17  -3.5976443921926712E-002
          18 -0.10703843267377333     
          19  0.21643166699712152     
          20   5.5355215782380514E-002
Sym=    11a
Ene=  -0.40715060698446420     
Spin= Alpha
Occup=     1.00000003
           1   8.8706581831590043E-006
           2   9.9370347960404573E-002
           3  0.70254465383299169     
           4   1.6509058344000314E-002
           5   2.4303198249018112E-006
           6   2.0316742042244474E-002
           7  0.14378224613125321     
           8   3.3774599070118443E-003
           9   8.7405141775301860E-005
          10   4.7745970506291181E-002
          11  0.33847015620439863     
          12   7.9743711215958194E-003
          13 -0.23671616675973126     
          14 -0.28776946198122855     
          15 -0.18232180358344630     
          16  0.14202632025985248     
          17  0.23670975975120803     
          18  0.22702629094698248     
          19 -0.24813711800962016     
          20 -0.15216686721734304     
Sym=    12a
Ene=  -0.36060803801385349     
Spin= Alpha
Occup=     0.00000000
           1   1.6544657807897415E-006
           2  -3.1602445468926890E-002
           3 -0.22357919948315214     
           4  -5.4323027973790777E-003
           5   6.5174201702314727E-006
           6   5.1469398993185204E-003
           7   3.6451422893698106E-002
           8   8.9829669044129770E-004
           9  -8.4801223687284400E-006
          10   2.0755347621675417E-003
          11   1.4680359957196430E-002
          12   2.7506776949259187E-004
          13  -1.0370432875548265E-002
          14  0.11780158856026718     
          15  -5.1283560642700406E-002
          16  0.73203528313543675     
          17   1.0356305620272833E-002
          18 -0.12264874787050165     
          19   1.7144627865463887E-002
          20 -0.73282364181075899     
Sym=    13a
Ene=  -0.31976156679808820     
Spin= Alpha
Occup=     0.00000000
           1  -1.1173387443111440E-003
           2  -5.1184456739565398E-002
           3  -1.0144561374400606E-002
           4  0.73733626101579453     
           5  -1.2128330254392293E-002
           6   2.9782156661626685E-002
           7   4.6574527454767908E-003
           8 -0.37631420385612380     
           9   6.7746177486632904E-003
          10  0.12034635404693100     
          11  -3.2100870606794965E-002
          12  0.64236285178368868     
          13   7.7964569019308271E-003
          14  -2.0920564652407655E-002
          15  -2.2878584541553052E-003
          16 -0.18508884410242252     
          17   7.8082046847239139E-003
          18  -1.8303036919755527E-002
          19   1.6510035667958164E-002
          20 -0.18490183198347115     
Sym=    14a
Ene=  -0.27243021552171481     
Spin= Alpha
Occup=     0.00000000
           1  -3.3919817949343558E-007
           2   8.4915075588860842E-002
           3  0.60053222836235709     
           4   1.4107551073970107E-002
           5  -1.3104298607145668E-005
           6  -7.2912938918213960E-002
           7 -0.51568989433692181     
           8  -1.2114255437300514E-002
           9  -4.3476005939334663E-006
          10  -6.5527376869524492E-002
          11 -0.46336393864219227     
          12  -1.0847713734271803E-002
          13  0.13871574084418548     
          14   6.7113039376931000E-002
          15  0.44130926595198972     
          16  0.13841764282050531     
          17 -0.13866298829692983     
          18   5.8680899210170751E-002
          19  0.44845979691096954     
          20 -0.11754414243000680     
Sym=    15a
Ene=  -0.22908978042198910     
Spin= Alpha
Occup=     0.00000000
           1   1.5744955036688841E-003
           2  -3.6129625104687257E-002
           3   1.7489593026815260E-002
           4 -0.52796529394967984     
           5 -0.10239348498355895     
           6   4.1930733078216341E-002
           7  -1.9544292535952364E-002
           8  0.58066093590279821     
           9   1.2031906746093923E-002
          10   2.9811453609093271E-002
          11  -1.9133593048243389E-002
          12  0.63489287001543593     
          13   4.8905623225800596E-002
          14  -6.4018007273648819E-003
          15  -2.7860171775926812E-002
          16 -0.43812352244224334     
          17   4.8908280881029810E-002
          18   4.4354038501289413E-003
          19   4.8673849376772202E-002
          20 -0.43622083260605438     
Sym=    16a
Ene=   -4.8145028713707516E-002
Spin= Alpha
Occup=     0.00000000
           1 -0.12464299960021778     
           2  0.43237712410996010     
           3  -6.0198733976062749E-002
           4  -3.2617305304952562E-002
           5  0.94925126073735444     
           6 -0.40451345766133001     
           7   5.4796001051048142E-002
           8   8.7003775582387005E-002
           9   6.6247770315109858E-003
          10  0.31646721141302020     
          11  -4.5535965836492810E-002
          12   4.1278255330434319E-002
          13 -0.34517388658973530     
          14 -0.38511909777186915     
          15  0.32681928950030442     
          16  -4.2896868057749692E-002
          17 -0.34541040651249882     
          18 -0.46080803256607833     
          19 -0.20537720859882713     
          20  -5.5349941517341371E-002
Sym=    17a
Ene=    7.3408513814398155E-002
Spin= Alpha
Occup=     0.00000000
           1  -1.3950381359297711E-004
           2  -3.9662094380943681E-002
           3 -0.28267822271111881     
           4  -6.6488975192049013E-003
           5   5.4695818580430733E-004
           6   9.8985383136351746E-002
           7  0.70093135449751631     
           8   1.6515851025989542E-002
           9   8.7828188377885394E-005
          10  -5.0365731337873303E-002
          11 -0.35771204846160737     
          12  -8.4133116283865647E-003
          13 -0.36308432327321399     
          14 -0.52341302652360422     
          15  0.55502016966406553     
          16   6.0539150786410353E-002
          17  0.36268589529634326     
          18  0.65680869725254309     
          19  0.39026986344684250     
          20  -3.8371978324611575E-002
Sym=    18a
Ene=   0.17068417803808633     
Spin= Alpha
Occup=     0.00000000
           1   1.8071477202694437E-005
           2   7.0121566261805121E-005
           3   6.8439510168411303E-004
           4   1.7363252842687359E-005
           5  -6.0965143532384777E-006
           6   8.2380216977416994E-003
           7   5.8404833047524175E-002
           8   1.3662340238187890E-003
           9  -1.2736977885488527E-005
          10 -0.11110798987525279     
          11 -0.78575406329572894     
          12  -1.8469058491224384E-002
          13  0.59537622709388560     
          14 -0.52821169249113609     
          15 -0.50200476341762990     
          16   6.3977327198048883E-002
          17 -0.59537369224629511     
          18  0.36881413261762747     
          19 -0.62519791508229505     
          20  -9.0469154083259923E-002
Sym=    19a
Ene=   0.38386644536376208     
Spin= Alpha
Occup=     0.00000000
           1   4.6234196538658415E-002
           2  -4.3731654630853496E-002
           3   5.9982586126403267E-003
           4   6.5719519539645744E-003
           5  0.14900262827329624     
           6 -0.12107419970728374     
           7   1.7910114829702378E-002
           8  -2.9684360243059323E-002
           9 -0.89498711573296907     
          10 -0.91525672840338901     
          11  0.12536177187384154     
          12  0.17133382897426064     
          13  0.38654337286233442     
          14 -0.64567522815486078     
          15 -0.15735940506594337     
          16   9.8033442030977525E-002
          17  0.38666245348449740     
          18 -0.57728633226227688     
          19  0.32549500792752284     
          20  0.10937806005562001     
Sym=    20a
Ene=   0.68610640799991252     
Spin= Alpha
Occup=     0.00000000
           1  0.80844935280861485     
           2 -0.97117877226128013     
           3  0.13845767581878102     
           4  -4.8636974206424863E-002
           5 -0.53153638001158499     
           6  -1.1733838244996067     
           7  0.16666772722667103     
           8  -2.8724399029970819E-002
           9   4.8501740442701648E-002
          10  0.11286354404677429     
          11  -1.5677494204348583E-002
          12  -1.2738411909129123E-002
          13 -0.23729711992952099     
          14 -0.14717606829648788     
          15  0.18383955430698554     
          16   7.6185766799726166E-003
          17 -0.23711170429410128     
          18 -0.19221118898543099     
          19 -0.13590289838781966     
          20   9.2825726320841734E-005
