5
 energy: -10.242975691175 gnorm: 0.000822884589 xtb: 6.2.2 (9d81278992624c895f80dd42a50cac0aa55982e2)
C        -1.95984453919484   -0.51175495481232   -0.08719897734928
C        -0.77647773095103   -0.05974008129589   -0.00817657942128
C         0.77729285247214   -0.04938633948204   -0.00820148619725
C        -0.00751127423823    1.10655572651358    0.19118520549275
C         1.96653969191196   -0.48567435091809   -0.08760816252145
