[Molden Format]
[Title]
[Atoms] AU
C      1     6 -0.37035690823049E+01 -0.96707661779027E+00 -0.16478217024912E+00
C      2     6 -0.14673301172296E+01 -0.11289238183797E+00 -0.15451494308888E-01
C      3     6  0.14688704735199E+01 -0.93326647260012E-01 -0.15498561289751E-01
C      4     6 -0.14194249840263E-01  0.20910870707362E+01  0.36128764394138E+00
C      5     6  0.37162210861290E+01 -0.91779142383800E+00 -0.16555541808703E+00
[GTO]
           1 0
 s           4   1.0000000000000000     
   51.049363095579913      -0.16312063210127389     
   8.7911227406887544      -0.19911024581000730     
  0.70640422258929825       0.31882047753655751     
  0.26922813413411617       0.12706504184240380     
 p           4   1.0000000000000000     
   5.8263656140800002       0.73716451545209605     
   1.5106896018720002       0.68216371614850257     
  0.53256483288000001       0.35783053929253711     
  0.21202323690600003        5.3983030275847881E-002

           2 0
 s           4   1.0000000000000000     
   51.049363095579913      -0.16312063210127389     
   8.7911227406887544      -0.19911024581000730     
  0.70640422258929825       0.31882047753655751     
  0.26922813413411617       0.12706504184240380     
 p           4   1.0000000000000000     
   5.8263656140800002       0.73716451545209605     
   1.5106896018720002       0.68216371614850257     
  0.53256483288000001       0.35783053929253711     
  0.21202323690600003        5.3983030275847881E-002

           3 0
 s           4   1.0000000000000000     
   51.049363095579913      -0.16312063210127389     
   8.7911227406887544      -0.19911024581000730     
  0.70640422258929825       0.31882047753655751     
  0.26922813413411617       0.12706504184240380     
 p           4   1.0000000000000000     
   5.8263656140800002       0.73716451545209605     
   1.5106896018720002       0.68216371614850257     
  0.53256483288000001       0.35783053929253711     
  0.21202323690600003        5.3983030275847881E-002

           4 0
 s           4   1.0000000000000000     
   51.049363095579913      -0.16312063210127389     
   8.7911227406887544      -0.19911024581000730     
  0.70640422258929825       0.31882047753655751     
  0.26922813413411617       0.12706504184240380     
 p           4   1.0000000000000000     
   5.8263656140800002       0.73716451545209605     
   1.5106896018720002       0.68216371614850257     
  0.53256483288000001       0.35783053929253711     
  0.21202323690600003        5.3983030275847881E-002

           5 0
 s           4   1.0000000000000000     
   51.049363095579913      -0.16312063210127389     
   8.7911227406887544      -0.19911024581000730     
  0.70640422258929825       0.31882047753655751     
  0.26922813413411617       0.12706504184240380     
 p           4   1.0000000000000000     
   5.8263656140800002       0.73716451545209605     
   1.5106896018720002       0.68216371614850257     
  0.53256483288000001       0.35783053929253711     
  0.21202323690600003        5.3983030275847881E-002

[MO]
Sym=     1a
Ene=  -0.73387061213166782     
Spin= Alpha
Occup=     2.00000000
           1 -0.10582386559762787     
           2  -6.2554542194852292E-002
           3  -2.9928428874074018E-002
           4  -5.1640560769378287E-003
           5 -0.35703052677336894     
           6 -0.11282585164449406     
           7  -8.1158355337958746E-002
           8  -1.3690081564198802E-002
           9 -0.35683686220896993     
          10  0.11396410303717665     
          11  -7.9604740382901704E-002
          12  -1.3675075896495978E-002
          13 -0.41867379005932442     
          14  -1.0741417893632035E-003
          15  0.16509856567541367     
          16   2.8374393641498661E-002
          17 -0.10567242188462636     
          18   6.2886006875879016E-002
          19  -2.9060302432028406E-002
          20  -5.1723931476071417E-003
Sym=     2a
Ene=  -0.69404294175848125     
Spin= Alpha
Occup=     2.00000000
           1 -0.38231239407557044     
           2 -0.11249229628458436     
           3  -5.1440303157414199E-002
           4  -8.9831980621531918E-003
           5 -0.30926928759750033     
           6  0.18931954776728355     
           7   3.0141457113051100E-002
           8   5.2559846263359068E-003
           9  0.30936375506279407     
          10  0.18940855877286597     
          11  -2.7479977799655015E-002
          12  -5.2887913100053913E-003
          13   1.7331469785893035E-004
          14  0.12023001480809835     
          15   7.6490443390387741E-004
          16  -1.6768767842068254E-005
          17  0.38201915748000087     
          18 -0.11311940200007140     
          19   4.9929688239990784E-002
          20   9.0160161477771429E-003
Sym=     3a
Ene=  -0.67482615684255998     
Spin= Alpha
Occup=     2.00000000
           1  0.41509036514554565     
           2   9.7517554242654542E-002
           3   2.2786549573070074E-002
           4   4.0322182017613339E-003
           5  0.15755261875770205     
           6 -0.22483442171890233     
           7 -0.16251241200667557     
           8  -2.8161961530988062E-002
           9  0.15783136722452801     
          10  0.22711783723158516     
          11 -0.15949177484836696     
          12  -2.8211479971383333E-002
          13 -0.25482761411943211     
          14  -8.8604671094567091E-005
          15   1.7722285927726050E-002
          16   2.8296172085949369E-003
          17  0.41538024407867508     
          18  -9.7903236706520166E-002
          19   2.1544774762726083E-002
          20   4.0765713347800320E-003
Sym=     4a
Ene=  -0.58586387490727565     
Spin= Alpha
Occup=     2.00000000
           1  0.16675888656014640     
           2  -9.4755654718926219E-002
           3  0.12052978205828772     
           4   2.0636610280834720E-002
           5 -0.16526827069808769     
           6 -0.28211850928876431     
           7  0.29852975835240975     
           8   5.1041290922748367E-002
           9 -0.16535677050290348     
          10  0.27817877510157496     
          11  0.30185615229582641     
          12   5.0940557998083294E-002
          13  0.45557479157095288     
          14  -1.6759520812668954E-003
          15  0.20931369105284797     
          16   3.5556019511031302E-002
          17  0.16706603683391452     
          18   9.3117927732992281E-002
          19  0.12159527639082843     
          20   2.0597839655352335E-002
Sym=     5a
Ene=  -0.55959667040023298     
Spin= Alpha
Occup=     2.00000000
           1 -0.28978929951388643     
           2   4.0512216940332191E-002
           3  0.17540942877670856     
           4   2.9922829905384678E-002
           5  0.18002597334165429     
           6   2.4533156234693428E-002
           7  0.31854403654339880     
           8   5.4270398222946471E-002
           9 -0.17991419499550451     
          10   2.8521793629837981E-002
          11 -0.31829310403238076     
          12  -5.5909151684734669E-002
          13  -2.9038617209002686E-004
          14 -0.50881892681337215     
          15  -3.4452923544069864E-003
          16  -7.3665988222076234E-004
          17  0.28951738561543944     
          18   4.2669823384012630E-002
          19 -0.17482995642601476     
          20  -3.0688616998526933E-002
Sym=     6a
Ene=  -0.55780406587437359     
Spin= Alpha
Occup=     2.00000000
           1  -2.0389624221681043E-004
           2  -1.2475323028526502E-004
           3  -3.6681893533902665E-002
           4  0.21562808651137017     
           5   7.2084429931941333E-004
           6  -2.6447263914689245E-004
           7  -7.6758814848103180E-002
           8  0.45101657458357908     
           9   1.6777121184305898E-004
          10   1.4518685147996762E-003
          11  -7.7850305794256697E-002
          12  0.45064872348465801     
          13   3.5375562072809791E-004
          14  -3.9430852939854725E-004
          15  -7.1656256015416420E-002
          16  0.41824165104771310     
          17   7.9997686455653041E-004
          18   8.0816003990179719E-004
          19  -3.7288530214425374E-002
          20  0.21538178230706298     
Sym=     7a
Ene=  -0.47715920454596955     
Spin= Alpha
Occup=     2.00000000
           1  0.39121309114531494     
           2 -0.46919723271257346     
           3   6.5537222317845381E-002
           4   4.5090315725401335E-003
           5 -0.19480326954895749     
           6   4.6485872398579949E-004
           7  0.22027020953953191     
           8   3.2154690651798289E-002
           9  0.19473097290267075     
          10   3.1231135306748793E-003
          11 -0.22034712780295507     
          12  -3.2191228973622275E-002
          13   3.8363688585344580E-006
          14 -0.14354480760200353     
          15  -9.9098495118483650E-004
          16  -3.3797504206601209E-005
          17 -0.39084386026937323     
          18 -0.46789580643522671     
          19  -7.2027517513167980E-002
          20  -4.4278875593626536E-003
Sym=     8a
Ene=  -0.47435710765014583     
Spin= Alpha
Occup=     2.00000000
           1  0.23679233938618149     
           2 -0.10954719908741645     
           3 -0.36747893818790517     
           4  -6.2960455134190532E-002
           5  -7.9447099055011100E-002
           6  0.16335937520063604     
           7 -0.21264142156292218     
           8  -3.6078123710126496E-002
           9  -7.9628606476744884E-002
          10 -0.16054918526197420     
          11 -0.21457860815242102     
          12  -3.7127875490600155E-002
          13  0.46669491185277301     
          14  -2.6900729995225654E-003
          15  0.40847571707565505     
          16   7.0693576616361095E-002
          17  0.23707179763414879     
          18  0.11467360599296081     
          19 -0.36576783181226735     
          20  -6.4252485031802822E-002
Sym=     9a
Ene=  -0.47231417422740807     
Spin= Alpha
Occup=     2.00000000
           1  -4.9389509765806828E-003
           2   6.7790710336070566E-003
           3   8.2998420786896898E-002
           4 -0.48842323538845922     
           5   2.1912645004461741E-003
           6   1.6092036439277892E-004
           7   6.9081495143165167E-002
           8 -0.41948947049833413     
           9  -2.2865095131306824E-003
          10   8.3111274242892645E-004
          11  -6.9751279029949528E-002
          12  0.41959868607909789     
          13   6.8977375906115971E-004
          14   1.6232469441303031E-003
          15   6.5232924410789145E-004
          16   1.3204402259929887E-004
          17   5.3047904721323395E-003
          18   8.0462968919662228E-003
          19  -8.3859883095981774E-002
          20  0.48833673108372661     
Sym=    10a
Ene=  -0.46108208920560867     
Spin= Alpha
Occup=     2.00000000
           1 -0.35142169132489670     
           2  0.43275620620737137     
           3   6.2529741145728124E-002
           4   1.1661590350388985E-002
           5   7.6157021593699192E-002
           6 -0.13661328946823931     
           7 -0.13380242222007485     
           8  -2.2838087051652384E-002
           9   7.6347224693776458E-002
          10  0.13836736465717797     
          11 -0.13204882293707701     
          12  -2.3145018823956278E-002
          13  0.27800357238995221     
          14  -2.8512077674960660E-003
          15  0.41653913957525518     
          16   7.0853903949660818E-002
          17 -0.35174705438963133     
          18 -0.43387894953333145     
          19   5.6834889847850990E-002
          20   1.1469462320682891E-002
Sym=    11a
Ene=  -0.40191267943738640     
Spin= Alpha
Occup=     0.00000000
           1   2.6813357935497582E-004
           2  -9.1265998963616687E-004
           3  -8.6039395927168749E-002
           4  0.49409977616149786     
           5   7.5113481116193418E-005
           6   3.7006241898271077E-004
           7  -1.1347253593399872E-002
           8   6.5760130217366916E-002
           9  -3.4706444004443573E-005
          10   1.9108287302364280E-005
          11  -1.1351731740396278E-002
          12   6.5827337943864792E-002
          13   1.2496581288346420E-004
          14  -1.1042206068153434E-003
          15  0.12029069118405351     
          16 -0.70274343303628273     
          17   1.5461945025331485E-004
          18   2.2342592869748429E-003
          19  -8.5261711174913393E-002
          20  0.49406048253430335     
Sym=    12a
Ene=  -0.39699271652888685     
Spin= Alpha
Occup=     0.00000000
           1   8.3961920894940339E-002
           2   1.4783162025507507E-002
           3 -0.59458643263476119     
           4 -0.10303756369959964     
           5   7.2002740442206462E-002
           6  0.16062376914759871     
           7   3.0211727685933026E-003
           8   6.6825789470049870E-004
           9  -7.2016729916263622E-002
          10  0.16066291501759145     
          11  -8.1795302608491044E-004
          12  -7.6807945875795119E-004
          13   1.4349818707574392E-005
          14 -0.46495258405519024     
          15  -3.2520042827119738E-003
          16   4.7173039807748147E-004
          17  -8.3978698856645634E-002
          18   6.9280212972991613E-003
          19  0.59464409246008443     
          20  0.10242747847738498     
Sym=    13a
Ene=  -0.32222311488833910     
Spin= Alpha
Occup=     0.00000000
           1  -3.0352457161302207E-002
           2  0.28244594994708577     
           3 -0.54489283162743296     
           4  -9.3563552940622297E-002
           5 -0.10007099821865795     
           6 -0.21552045123325997     
           7  0.27257669344794372     
           8   4.6717026514695170E-002
           9 -0.10001717188787512     
          10  0.21184494056215297     
          11  0.27539285019154558     
          12   4.6674794549706203E-002
          13  -4.5283943969358115E-002
          14   2.6732227508745568E-003
          15 -0.38425164523682731     
          16  -6.5503123903719512E-002
          17  -3.0342570661027801E-002
          18 -0.27525233496228618     
          19 -0.54870372654035637     
          20  -9.3545162236454801E-002
Sym=    14a
Ene=  -0.23648220338518233     
Spin= Alpha
Occup=     0.00000000
           1   4.8535696921003724E-005
           2   3.6034029765157858E-004
           3   8.0980854632094021E-002
           4 -0.47283585449191418     
           5   5.2691888450747835E-004
           6  -1.9937410862254520E-004
           7  -8.9512632880967169E-002
           8  0.52228485655548051     
           9   6.7100930478509720E-004
          10   1.4042949402795154E-003
          11  -8.9656444997455689E-002
          12  0.52273931634468140     
          13  -1.0946506516995930E-004
          14  -7.4200865863710303E-004
          15  0.10401505193135242     
          16 -0.60485964487633803     
          17   5.8005346075679329E-005
          18  -1.4836307224883158E-003
          19   8.1126283619412473E-002
          20 -0.47331393734855082     
Sym=    15a
Ene=  -0.20913048561268568     
Spin= Alpha
Occup=     0.00000000
           1  -2.7586177429533569E-005
           2   6.9108055620309113E-004
           3  -9.1757928462439867E-002
           4  0.52946269198604456     
           5  -1.7478831653977504E-003
           6  -9.5466887684165396E-004
           7  0.11302346264628559     
           8 -0.65290963465575824     
           9   1.8463407694305205E-003
          10   6.7584071058754956E-004
          11 -0.11294601608569652     
          12  0.65248086049842491     
          13  -1.0176038178704796E-005
          14  -8.7602843900532390E-004
          15  -4.9611083121751083E-005
          16   3.6752524088220720E-004
          17   2.9196830000928592E-005
          18  -6.3700888441851813E-004
          19   9.1706404157667357E-002
          20 -0.52915579440213256     
Sym=    16a
Ene=   -6.4105110840616902E-002
Spin= Alpha
Occup=     0.00000000
           1   5.5368749024658007E-002
           2  0.33551319833006865     
           3 -0.23749926073290153     
           4  -4.1752528070248637E-002
           5 -0.45931018431614540     
           6 -0.47325733989912211     
           7  0.53240738642729735     
           8   9.3451953686830555E-002
           9  0.45921076847609321     
          10 -0.46617205371948089     
          11 -0.53868511183608692     
          12  -9.3547634883850636E-002
          13  -1.2622232607843244E-005
          14  0.24743130462893806     
          15   1.5943187961126608E-003
          16   2.6948296894419026E-005
          17  -5.5338002770848140E-002
          18  0.33229649442654607     
          19  0.24198518301362293     
          20   4.1779978475371481E-002
Sym=    17a
Ene=    9.0565113711799330E-002
Spin= Alpha
Occup=     0.00000000
           1  -9.7419704565330792E-002
           2 -0.20271783930520981     
           3 -0.21619851918562782     
           4  -3.6775814878297827E-002
           5  0.69591600399011155     
           6  0.13721235703647458     
           7  0.44684557145348308     
           8   7.5451780926223538E-002
           9 -0.69708549389717567     
          10  0.14327385295011189     
          11 -0.44582996167206479     
          12  -7.5514066621373430E-002
          13   5.9957408129990882E-004
          14  0.82461965366836099     
          15   4.8197209286805574E-003
          16  -1.5352787889042724E-004
          17   9.7643844576387029E-002
          18 -0.20594955992588243     
          19  0.21399882727473021     
          20   3.6878647235634034E-002
Sym=    18a
Ene=   0.28833431162460194     
Spin= Alpha
Occup=     0.00000000
           1  0.18013081357940047     
           2  0.24314721577474024     
           3  0.24717452069857188     
           4   4.2538174479708236E-002
           5 -0.68626123461667154     
           6   3.0154196737878149E-002
           7 -0.42933483329342120     
           8  -7.3039148538699805E-002
           9 -0.68477665141931188     
          10  -2.4511791158628525E-002
          11 -0.42865704059707538     
          12  -7.2741860029305092E-002
          13  0.72835959114781523     
          14   4.5786305169853870E-003
          15 -0.80439965765495636     
          16 -0.13847366918846235     
          17  0.17983556607366960     
          18 -0.24596547279311856     
          19  0.24346747258227119     
          20   4.2501518094415006E-002
Sym=    19a
Ene=   0.74458616736565564     
Spin= Alpha
Occup=     0.00000000
           1 -0.58129062692411759     
           2 -0.62612718511970722     
           3 -0.18180256112202031     
           4  -3.2061637401521161E-002
           5  0.41347432878254509     
           6 -0.68423216148662402     
           7 -0.47353255617200768     
           8  -8.1769605899432121E-002
           9  0.41386025627995365     
          10  0.69109098297207527     
          11 -0.46449238466395759     
          12  -8.2009649244934188E-002
          13  0.49539622013526630     
          14   3.1631728072703557E-003
          15 -0.46354324731007618     
          16  -7.9095016123997233E-002
          17 -0.58175590104261110     
          18  0.62895663630790022     
          19 -0.17370505077482135     
          20  -3.2302931933928164E-002
Sym=    20a
Ene=   0.87722446343961358     
Spin= Alpha
Occup=     0.00000000
           1  0.63265289985082285     
           2  0.61807752272981531     
           3  0.24838093874575376     
           4   4.3547154401052300E-002
           5 -0.22083441711084634     
           6  0.98368501555361942     
           7  0.33739074613281478     
           8   5.8439109727833109E-002
           9  0.22063908127208950     
          10  0.98756232771827657     
          11 -0.32385094221189914     
          12  -5.8552711799739789E-002
          13  -2.7293433305899397E-004
          14  0.16982016381220646     
          15   1.4053787226119667E-003
          16   7.0665921128334295E-005
          17 -0.63223230178434986     
          18  0.62086498596688344     
          19 -0.24007151297848958     
          20  -4.3761646447680665E-002
