5
 energy: -10.076836195187 gnorm: 0.304976910657 xtb: 6.2.2 (9d81278992624c895f80dd42a50cac0aa55982e2)
C        -1.40680400000000   -0.88181700000000    0.24054200000000
C        -0.76940300000000    0.29290000000000   -0.49050300000000
C         0.76536000000000    0.30315700000000   -0.49061100000000
C        -0.00764000000000    1.14871300000000    0.50022800000000
C         1.41848600000000   -0.86295300000000    0.24034400000000
5
 energy: -10.169523210457 gnorm: 0.177208000903 xtb: 6.2.2 (9d81278992624c895f80dd42a50cac0aa55982e2)
C        -1.42337500922186   -0.82071257329374    0.17737699306050
C        -0.76875695643302    0.22593941505909   -0.39972560618032
C         0.76562083053223    0.23619388278806   -0.39983284538731
C        -0.00771979245396    1.16021057184905    0.44500557244886
C         1.43422992757661   -0.80163129640246    0.17717588605828
5
 energy: -10.198658945209 gnorm: 0.192584366487 xtb: 6.2.2 (9d81278992624c895f80dd42a50cac0aa55982e2)
C        -1.51260881948192   -0.72971791676436    0.10603789502330
C        -0.78081946757767    0.14408975503124   -0.29748342101563
C         0.77878787747995    0.15450914015736   -0.29759047485888
C        -0.00759231528231    1.14057038815374    0.38321239658521
C         1.52223172486195   -0.70945136657797    0.10582360426601
5
 energy: -10.223651624083 gnorm: 0.096152768178 xtb: 6.2.2 (9d81278992624c895f80dd42a50cac0aa55982e2)
C        -1.75568331372823   -0.69876085735128    0.07850890638705
C        -0.77832532544754    0.11186074841945   -0.25964570422323
C         0.77672710219611    0.12224904303812   -0.25975103350152
C        -0.00759090654419    1.13990618645025    0.36262725467634
C         1.76487144352384   -0.67525512055655    0.07826057666136
5
 energy: -10.231237573265 gnorm: 0.072438069743 xtb: 6.2.2 (9d81278992624c895f80dd42a50cac0aa55982e2)
C        -1.83032803624677   -0.64344771011396    0.05478156595783
C        -0.78458472262251    0.07424627028673   -0.22997513012523
C         0.78349365621742    0.08472124445594   -0.23008417848433
C        -0.00734593210381    1.10342588531339    0.35075382986235
C         1.83876403475566   -0.61894568994210    0.05452391278938
5
 energy: -10.235530471890 gnorm: 0.075769703227 xtb: 6.2.2 (9d81278992624c895f80dd42a50cac0aa55982e2)
C        -1.83609440181406   -0.61541445660791    0.01692517627237
C        -0.79372442690313    0.03766342351430   -0.17401399303238
C         0.79311351605186    0.04824799811327   -0.17412624731680
C        -0.00745979435666    1.12034260844854    0.31453938254056
C         1.84416410702199   -0.59083957346819    0.01667568153624
5
 energy: -10.239701931298 gnorm: 0.043275111433 xtb: 6.2.2 (9d81278992624c895f80dd42a50cac0aa55982e2)
C        -1.95235220647502   -0.55832293178021   -0.02246665759250
C        -0.79158823683652   -0.01353794487096   -0.12235583350859
C         0.79169179284039   -0.00295637204100   -0.12247875832466
C        -0.00736547698409    1.10699991897672    0.29003890874168
C         1.95961312745525   -0.53218267028454   -0.02273765931593
5
 energy: -10.240932920850 gnorm: 0.021571928548 xtb: 6.2.2 (9d81278992624c895f80dd42a50cac0aa55982e2)
C        -1.94353881219198   -0.54274192505627   -0.02011990395510
C        -0.78728506267975   -0.01451228665441   -0.12442110323496
C         0.78735269257628   -0.00403764195405   -0.12453333326755
C        -0.00717415260459    1.07802947824938    0.28944430864223
C         1.95064433490004   -0.51673762458464   -0.02036996818463
5
 energy: -10.242017183977 gnorm: 0.008250590523 xtb: 6.2.2 (9d81278992624c895f80dd42a50cac0aa55982e2)
C        -1.95216739330999   -0.52960767650909   -0.03999609864646
C        -0.78403055770930   -0.03237740194068   -0.09378771541609
C         0.78451291665107   -0.02177119806671   -0.09391097868526
C        -0.00724126876756    1.08720333962611    0.26802632282450
C         1.95892530313578   -0.50344706310963   -0.04033153007669
5
 energy: -10.242546870851 gnorm: 0.022815644823 xtb: 6.2.2 (9d81278992624c895f80dd42a50cac0aa55982e2)
C        -1.97946196663874   -0.49704603883455   -0.07599934278616
C        -0.77759603854194   -0.06595934951224   -0.03949780415482
C         0.77683229332839   -0.05718626779932   -0.03928947954996
C        -0.00736548448878    1.09131384340385    0.23043548565077
C         1.98759019634108   -0.47112218725773   -0.07564885915984
5
 energy: -10.242781758567 gnorm: 0.017157461890 xtb: 6.2.2 (9d81278992624c895f80dd42a50cac0aa55982e2)
C        -1.96080250902972   -0.50811020213459   -0.07625343678814
C        -0.77209315009480   -0.06446300500653   -0.03364342597853
C         0.77697774200292   -0.04974591659920   -0.03512393276261
C        -0.00681320544738    1.10241875222108    0.22284106244266
C         1.96273012256899   -0.48009962848075   -0.07782026691338
5
 energy: -10.242542116221 gnorm: 0.030036554396 xtb: 6.2.2 (9d81278992624c895f80dd42a50cac0aa55982e2)
C        -1.95095676864785   -0.50242084937852   -0.07879336676750
C        -0.77890885433750   -0.05686851537787   -0.03465555066419
C         0.76909852231303   -0.05735923103126   -0.03047691192372
C        -0.00931922855791    1.09861507879827    0.22022144743789
C         1.97008532923023   -0.48196648301062   -0.07629561808248
5
 energy: -10.242885350890 gnorm: 0.006318864334 xtb: 6.2.2 (9d81278992624c895f80dd42a50cac0aa55982e2)
C        -1.96883507200815   -0.49693888005959   -0.08063164821509
C        -0.77382050815172   -0.06723738490768   -0.02805284088109
C         0.77460714430771   -0.05680988987247   -0.02813107001626
C        -0.00730386404805    1.09170296690997    0.21772565673883
C         1.97535129990021   -0.47071681207023   -0.08091009762641
5
 energy: -10.242914722326 gnorm: 0.005646565042 xtb: 6.2.2 (9d81278992624c895f80dd42a50cac0aa55982e2)
C        -1.96416560581526   -0.50199938152280   -0.08251517390135
C        -0.77364036196994   -0.06648749369014   -0.02354485238358
C         0.77503709845664   -0.05544764711803   -0.02397076492231
C        -0.00719509136178    1.09936474674570    0.21292809187561
C         1.96996296069033   -0.47543022441472   -0.08289730066837
5
 energy: -10.242930650915 gnorm: 0.003777657377 xtb: 6.2.2 (9d81278992624c895f80dd42a50cac0aa55982e2)
C        -1.96378699287127   -0.50206218293259   -0.08280190852252
C        -0.77423785225076   -0.06560321396406   -0.02241995828350
C         0.77515742211427   -0.05509734291701   -0.02253044630047
C        -0.00737198456652    1.09861251730819    0.21089841808666
C         1.97023840757429   -0.47584977749453   -0.08314610498017
5
 energy: -10.242960621115 gnorm: 0.001993098617 xtb: 6.2.2 (9d81278992624c895f80dd42a50cac0aa55982e2)
C        -1.96308358185930   -0.50431928544248   -0.08567886788236
C        -0.77594320672873   -0.06352392901057   -0.01481390459743
C         0.77606648725559   -0.05387000751017   -0.01468130340231
C        -0.00747147893195    1.10012052397983    0.20094446888203
C         1.97043078026440   -0.47840730201659   -0.08577039299993
5
 energy: -10.242973055363 gnorm: 0.001354567072 xtb: 6.2.2 (9d81278992624c895f80dd42a50cac0aa55982e2)
C        -1.96068199300142   -0.51043643786848   -0.08768863688338
C        -0.77721053411971   -0.06006243952542   -0.00764301172208
C         0.77753888374329   -0.05017015326221   -0.00798378549307
C        -0.00721609902078    1.10472904818476    0.19091585151040
C         1.96756874239861   -0.48406001752865   -0.08760041741187
5
 energy: -10.242975691672 gnorm: 0.000823217549 xtb: 6.2.2 (9d81278992624c895f80dd42a50cac0aa55982e2)
C        -1.95984155523151   -0.51176506432367   -0.08720671168608
C        -0.77647738959568   -0.05974413264732   -0.00817939411193
C         0.77729313967161   -0.04938225527587   -0.00819885912070
C        -0.00751773551258    1.10655535348670    0.19118711055579
C         1.96654254066816   -0.48566390123984   -0.08760214563709
