$hessian                                                                        
        0.6186152594   0.2217266228   0.0387165491  -0.5386040212  -0.1582373735
       -0.0278425269  -0.0251706650  -0.0450675058  -0.0077559185  -0.0546115519
       -0.0199893873  -0.0033771725  -0.0002290213   0.0015676438   0.0002590689
        0.2217266228   0.0908273752   0.0144463490  -0.1843059258  -0.0655386360
       -0.0085680081  -0.0072075311  -0.0180926310  -0.0046443859  -0.0286268679
       -0.0113081455  -0.0023272493  -0.0015862980   0.0041120372   0.0010932944
        0.0387165491   0.0144463490   0.0106297738  -0.0322172026  -0.0084761341
       -0.0185584050  -0.0011496292  -0.0047329703   0.0079607315  -0.0050198790
       -0.0023386073   0.0018926540  -0.0003298384   0.0011013628  -0.0019247544
       -0.5386040212  -0.1843059258  -0.0322172026   0.7227497027   0.2844334263
        0.0491572921  -0.1228045701   0.0722957698   0.0125286532  -0.0355141650
       -0.1794753968  -0.0307884663  -0.0258269464   0.0070521265   0.0013197236
       -0.1582373735  -0.0655386360  -0.0084761341   0.2844334263   0.2543813119
        0.0370524362  -0.0746093841   0.0523432150   0.0138290801  -0.0965569182
       -0.2237411167  -0.0377322810   0.0449702495  -0.0174447743  -0.0046731011
       -0.0278425269  -0.0085680081  -0.0185584050   0.0491572921   0.0370524362
        0.0447359080  -0.0128701012   0.0137384080  -0.0245427446  -0.0163606291
       -0.0376543028  -0.0096079621   0.0079159651  -0.0045685332   0.0079732037
       -0.0251706650  -0.0072075311  -0.0011496292  -0.1228045701  -0.0746093841
       -0.0128701012   0.7301766938  -0.2779244888  -0.0499312128  -0.0392433777
        0.1818810965   0.0313680273  -0.5429580810   0.1778603075   0.0325829159
       -0.0450675058  -0.0180926310  -0.0047329703   0.0722957698   0.0523432150
        0.0137384080  -0.2779244888   0.2466317697   0.0364780157   0.0988232590
       -0.2198062088  -0.0373287895   0.1518729658  -0.0610761449  -0.0081546638
       -0.0077559185  -0.0046443859   0.0079607315   0.0125286532   0.0138290801
       -0.0245427446  -0.0499312128   0.0364780157   0.0448362852   0.0169492176
       -0.0373954150  -0.0096297311   0.0282092605  -0.0082672948  -0.0186245410
       -0.0546115519  -0.0286268679  -0.0050198790  -0.0355141650  -0.0965569182
       -0.0163606291  -0.0392433777   0.0988232590   0.0169492176   0.1846446536
       -0.0017430222  -0.0005509306  -0.0552755589   0.0281035494   0.0049822212
       -0.0199893873  -0.0113081455  -0.0023386073  -0.1794753968  -0.2237411167
       -0.0376543028   0.1818810965  -0.2198062088  -0.0373954150  -0.0017430222
        0.4654772837   0.0796578332   0.0193267099  -0.0106218128  -0.0022695080
       -0.0033771725  -0.0023272493   0.0018926540  -0.0307884663  -0.0377322810
       -0.0096079621   0.0313680273  -0.0373287895  -0.0096297311  -0.0005509306
        0.0796578332   0.0154430518   0.0033485422  -0.0022695133   0.0019019874
       -0.0002290213  -0.0015862980  -0.0003298384  -0.0258269464   0.0449702495
        0.0079159651  -0.5429580810   0.1518729658   0.0282092605  -0.0552755589
        0.0193267099   0.0033485422   0.6242896076  -0.2145836272  -0.0391439294
        0.0015676438   0.0041120372   0.0011013628   0.0070521265  -0.0174447743
       -0.0045685332   0.1778603075  -0.0610761449  -0.0082672948   0.0281035494
       -0.0106218128  -0.0022695133  -0.2145836272   0.0850306948   0.0140039786
        0.0002590689   0.0010932944  -0.0019247544   0.0013197236  -0.0046731011
        0.0079732037   0.0325829159  -0.0081546638  -0.0186245410   0.0049822212
       -0.0022695080   0.0019019874  -0.0391439294   0.0140039786   0.0106741043
