5
 energy: -8.798081475788 gnorm: 0.165939553862 xtb: 6.2.2 (9d81278992624c895f80dd42a50cac0aa55982e2)
N        -0.30601600000000   -0.00613200000000   -0.07978000000000
C         0.98823700000000   -0.11575900000000   -0.65507300000000
N         0.86433800000000    0.09508100000000    0.74897500000000
H        -0.75605000000000    0.93416200000000   -0.14392700000000
H        -0.79050800000000   -0.90735200000000    0.12980500000000
5
 energy: -8.822209118752 gnorm: 0.077921956568 xtb: 6.2.2 (9d81278992624c895f80dd42a50cac0aa55982e2)
N        -0.31301324325381   -0.00163761947143   -0.05038574950987
C         1.02469085806757   -0.10911377769730   -0.60555503886621
N         0.92208477445209    0.08673636744044    0.69986908260175
H        -0.80026103014963    0.90032483998585   -0.15398689741577
H        -0.83350035911622   -0.87630981025757    0.11005860319010
5
 energy: -8.825962328838 gnorm: 0.074144347108 xtb: 6.2.2 (9d81278992624c895f80dd42a50cac0aa55982e2)
N        -0.31886653624906   -0.00068013193017   -0.04466718543263
C         1.07422048401417   -0.10432594798686   -0.56701228487240
N         0.95102641863010    0.07891289604308    0.65080175898341
H        -0.83721993875350    0.86696043097258   -0.14646419803586
H        -0.86915942764171   -0.84086724709863    0.10734190935748
5
 energy: -8.827618873443 gnorm: 0.008190311099 xtb: 6.2.2 (9d81278992624c895f80dd42a50cac0aa55982e2)
N        -0.31500738551997   -0.00045565808728   -0.04267904388071
C         1.07262748308088   -0.10708817554173   -0.58572861151196
N         0.94645966637432    0.08167258130530    0.66871720481202
H        -0.83605570856452    0.86756136585104   -0.14715378789401
H        -0.86802305537070   -0.84169011352733    0.10684423847465
5
 energy: -8.827725226986 gnorm: 0.003890593681 xtb: 6.2.2 (9d81278992624c895f80dd42a50cac0aa55982e2)
N        -0.31437753052666   -0.00003374426768   -0.03976824296048
C         1.07985827432193   -0.10727224796572   -0.58603065940086
N         0.94942665937472    0.08131867157533    0.66669230609912
H        -0.84154797553701    0.86350648615016   -0.14683203095294
H        -0.87335842763297   -0.83751916549210    0.10593862721517
5
 energy: -8.827748945045 gnorm: 0.001035589552 xtb: 6.2.2 (9d81278992624c895f80dd42a50cac0aa55982e2)
N        -0.31394939203428    0.00035833201308   -0.03708590788737
C         1.08464802864094   -0.10746302551947   -0.58669811802691
N         0.95055801885695    0.08108368233959    0.66525314857442
H        -0.84476498821517    0.86134672507377   -0.14679570117868
H        -0.87649066724843   -0.83532571390698    0.10532657851854
5
 energy: -8.827750541752 gnorm: 0.000285549625 xtb: 6.2.2 (9d81278992624c895f80dd42a50cac0aa55982e2)
N        -0.31405990357364    0.00053057628020   -0.03594565195832
C         1.08489609973458   -0.10751224706156   -0.58699866398371
N         0.95012870672201    0.08104703043374    0.66495975561682
H        -0.84461520044879    0.86155017888385   -0.14710602033901
H        -0.87634870243415   -0.83561553853622    0.10509058066423
