 Entering Gaussian System
 *********************************************
 Gaussian 98:
 frequency output generated by the xtb code
 *********************************************
                         Standard orientation:
 --------------------------------------------------------------------
  Center     Atomic     Atomic              Coordinates (Angstroms)
  Number     Number      Type              X           Y           Z
 --------------------------------------------------------------------
    1          7             0       -0.314060    0.000532   -0.035945
    2          6             0        1.084893   -0.107519   -0.587002
    3          7             0        0.950131    0.081043    0.664956
    4          1             0       -0.844611    0.861554   -0.147105
    5          1             0       -0.876353   -0.835611    0.105095
 --------------------------------------------------------------------
     1 basis functions        1 primitive gaussians
     1 alpha electrons        1 beta electrons

 Harmonic frequencies (cm**-1), IR intensities (KM/Mole),
 Raman scattering activities (A**4/amu), Raman depolarization ratios,
 reduced masses (AMU), force constants (mDyne/A) and normal coordinates:
                      1                      2                      3
                        a                      a                      a 
 Frequencies --   788.8173               824.4897               858.1737
 Red. masses --     5.2658                 2.6197                11.1597
 Frc consts  --     0.0000                 0.0000                 0.0000
 IR Inten    --     0.5425                 0.0185                 0.5245
 Raman Activ --     0.0000                 0.0000                 0.0000
 Depolar     --     0.0000                 0.0000                 0.0000
 Atom AN      X      Y      Z        X      Y      Z        X      Y      Z
   1   7     0.24   0.02   0.14    -0.00  -0.13   0.02     0.24  -0.09  -0.56
   2   6    -0.48   0.01  -0.01     0.01   0.28  -0.04    -0.54   0.03   0.13
   3   7     0.17   0.02   0.17    -0.00  -0.19   0.03     0.24   0.04   0.29
   4   1     0.06  -0.07  -0.56     0.21   0.02  -0.62     0.03   0.03   0.29
   5   1     0.06  -0.10  -0.55    -0.21   0.21   0.59     0.03   0.06   0.29
                      4                      5                      6
                        a                      a                      a 
 Frequencies --   999.2892              1043.2743              1471.4320
 Red. masses --    13.1831                 3.3882                 1.7802
 Frc consts  --     0.0000                 0.0000                 0.0000
 IR Inten    --     0.5337                 0.1073                 0.2491
 Raman Activ --     0.0000                 0.0000                 0.0000
 Depolar     --     0.0000                 0.0000                 0.0000
 Atom AN      X      Y      Z        X      Y      Z        X      Y      Z
   1   7    -0.67  -0.01  -0.18     0.01   0.37  -0.05     0.20  -0.00   0.01
   2   6     0.11   0.03   0.22    -0.00  -0.05   0.01     0.05  -0.01  -0.08
   3   7     0.63  -0.00   0.05    -0.00  -0.20   0.03     0.06   0.01   0.09
   4   1    -0.10   0.01  -0.13    -0.54  -0.27  -0.21    -0.59  -0.35   0.02
   5   1    -0.10  -0.04  -0.12     0.53  -0.21   0.29    -0.57   0.36  -0.09
                      7                      8                      9
                        a                      a                      a 
 Frequencies --  1708.5605              3299.5485              3306.4929
 Red. masses --    12.8287                 1.3787                 2.1836
 Frc consts  --     0.0000                 0.0000                 0.0000
 IR Inten    --     0.5134                 0.0584                 0.0537
 Raman Activ --     0.0000                 0.0000                 0.0000
 Depolar     --     0.0000                 0.0000                 0.0000
 Atom AN      X      Y      Z        X      Y      Z        X      Y      Z
   1   7    -0.17   0.00  -0.02     0.17  -0.00  -0.00     0.01   0.30  -0.04
   2   6     0.15  -0.11  -0.70     0.01   0.00   0.01     0.00   0.00  -0.00
   3   7     0.00   0.10   0.66     0.01  -0.00  -0.01    -0.00   0.00  -0.00
   4   1     0.05   0.06   0.00    -0.34   0.60  -0.08     0.36  -0.57   0.07
   5   1     0.04  -0.06   0.02    -0.36  -0.59   0.09    -0.38  -0.55   0.09
