[Molden Format]
[Title]
[Atoms] AU
C      1     6 -0.99769043167969E+00  0.15968191859705E+01  0.29730793325261E+00
C      2     6  0.12865920317062E+01 -0.14125140500911E-01  0.64842575312948E-01
C      3     6 -0.10278410273413E+01 -0.15927488351446E+01  0.20082172333464E+00
C      4     6  0.36816177060893E+01 -0.31594695787591E-01 -0.10557128682053E+00
C      5     6 -0.29426782787811E+01  0.41649485459299E-01 -0.45740283480562E+00
[GTO]
           1 0
 s           4   1.0000000000000000     
   51.049363095579913      -0.16312063210127389     
   8.7911227406887544      -0.19911024581000730     
  0.70640422258929825       0.31882047753655751     
  0.26922813413411617       0.12706504184240380     
 p           4   1.0000000000000000     
   5.8263656140800002       0.73716451545209605     
   1.5106896018720002       0.68216371614850257     
  0.53256483288000001       0.35783053929253711     
  0.21202323690600003        5.3983030275847881E-002

           2 0
 s           4   1.0000000000000000     
   51.049363095579913      -0.16312063210127389     
   8.7911227406887544      -0.19911024581000730     
  0.70640422258929825       0.31882047753655751     
  0.26922813413411617       0.12706504184240380     
 p           4   1.0000000000000000     
   5.8263656140800002       0.73716451545209605     
   1.5106896018720002       0.68216371614850257     
  0.53256483288000001       0.35783053929253711     
  0.21202323690600003        5.3983030275847881E-002

           3 0
 s           4   1.0000000000000000     
   51.049363095579913      -0.16312063210127389     
   8.7911227406887544      -0.19911024581000730     
  0.70640422258929825       0.31882047753655751     
  0.26922813413411617       0.12706504184240380     
 p           4   1.0000000000000000     
   5.8263656140800002       0.73716451545209605     
   1.5106896018720002       0.68216371614850257     
  0.53256483288000001       0.35783053929253711     
  0.21202323690600003        5.3983030275847881E-002

           4 0
 s           4   1.0000000000000000     
   51.049363095579913      -0.16312063210127389     
   8.7911227406887544      -0.19911024581000730     
  0.70640422258929825       0.31882047753655751     
  0.26922813413411617       0.12706504184240380     
 p           4   1.0000000000000000     
   5.8263656140800002       0.73716451545209605     
   1.5106896018720002       0.68216371614850257     
  0.53256483288000001       0.35783053929253711     
  0.21202323690600003        5.3983030275847881E-002

           5 0
 s           4   1.0000000000000000     
   51.049363095579913      -0.16312063210127389     
   8.7911227406887544      -0.19911024581000730     
  0.70640422258929825       0.31882047753655751     
  0.26922813413411617       0.12706504184240380     
 p           4   1.0000000000000000     
   5.8263656140800002       0.73716451545209605     
   1.5106896018720002       0.68216371614850257     
  0.53256483288000001       0.35783053929253711     
  0.21202323690600003        5.3983030275847881E-002

[MO]
Sym=     1a
Ene=  -0.73808573496596086     
Spin= Alpha
Occup=     2.00000000
           1 -0.34708715161487708     
           2   4.9654043450057155E-003
           3  0.15396873610409667     
           4   2.9480128267261898E-002
           5 -0.25175880279977247     
           6  0.12978618568311034     
           7  -1.1484995044799267E-003
           8  -2.5938202677140147E-003
           9 -0.34708709170129559     
          10   2.0398246214733246E-003
          11 -0.15553529772674979     
          12   2.0117463529339782E-002
          13  -4.5082471487977567E-002
          14   3.9654256057022309E-002
          15  -3.0337217830806075E-004
          16  -2.3585760100975771E-003
          17 -0.29483571278386689     
          18 -0.15033865297988755     
          19   2.8115737035759145E-003
          20  -4.5963153238451029E-002
Sym=     2a
Ene=  -0.67895494568373183     
Spin= Alpha
Occup=     2.00000000
           1   4.1600403904955285E-002
           2 -0.16480288253028880     
           3  -1.2701798679532507E-002
           4  -1.2177554474095464E-002
           5 -0.46110041699104531     
           6 -0.19300288442313793     
           7   1.7258777951722950E-003
           8   3.1987719070661418E-003
           9   4.1602304632469549E-002
          10 -0.16452574120744448     
          11   1.6524537763208811E-002
          12  -1.1293565100669912E-002
          13 -0.45889141369457664     
          14  0.16820203899062594     
          15  -1.1149138151744353E-003
          16  -1.5675882979086269E-002
          17  0.21883969742470688     
          18   3.4287598720019671E-002
          19  -1.1873973847357695E-003
          20   2.8527873587284501E-002
Sym=     3a
Ene=  -0.61916152137993896     
Spin= Alpha
Occup=     2.00000000
           1  -6.2668800314673395E-002
           2 -0.29587699714083693     
           3   1.8072105256204601E-002
           4  -5.9039657515593223E-002
           5 -0.11990730999557053     
           6  0.34981846998485133     
           7  -1.3485241002157429E-003
           8  -6.4584707091873639E-002
           9  -6.2679601909952962E-002
          10 -0.29613235984763631     
          11  -8.8765129630617185E-003
          12  -5.9854075381457317E-002
          13  0.39962472589755760     
          14  -2.3608753198917545E-002
          15   4.3838471479749539E-004
          16  -7.1029538767189600E-003
          17  0.43450795834099670     
          18  -2.5587804327896712E-002
          19  -4.0042470043769740E-004
          20   2.1335994454509045E-002
Sym=     4a
Ene=  -0.61591959774488958     
Spin= Alpha
Occup=     2.00000000
           1  0.50624266580668309     
           2  -7.2345383871380156E-003
           3  0.13061720401068580     
           4  -3.4439175150842119E-002
           5  -1.2224631501730737E-007
           6   2.7644606175869380E-003
           7  0.29298928246736822     
           8   8.8638290116503475E-003
           9 -0.50624154009274125     
          10   9.6859755933981426E-003
          11  0.12813698222135500     
          12   4.2267900506187998E-002
          13  -5.3681330297781384E-006
          14   7.5414871675728683E-004
          15   7.9779407447145623E-002
          16   2.4134424332957734E-003
          17  -4.2916693365342835E-006
          18   3.0750709166281849E-003
          19  0.32527787119299656     
          20   9.8396516534033831E-003
Sym=     5a
Ene=  -0.55528535986096794     
Spin= Alpha
Occup=     2.00000000
           1   7.5678086088940125E-002
           2  -7.4650454812879352E-002
           3  -3.4448954734213541E-002
           4  0.41372045036277422     
           5  -4.0298328671513318E-002
           6   6.7534280012985448E-002
           7  -1.2306727802306941E-002
           8  0.38575831624103679     
           9   7.5678149375058984E-002
          10  -7.4224322777814877E-002
          11   1.0784274655231865E-002
          12  0.41508841082784748     
          13   7.2630166455742884E-002
          14   2.7598372971092775E-002
          15  -5.1968758005258809E-003
          16  0.16318337714932710     
          17  -5.7585550372705491E-002
          18  -7.7015631423760542E-002
          19  -1.0089211520752822E-002
          20  0.35756295960902229     
Sym=     6a
Ene=  -0.54565968996783809     
Spin= Alpha
Occup=     2.00000000
           1   2.0364036664890464E-002
           2 -0.37294610967141806     
           3   6.7485992194482930E-003
           4  -4.5303193851622812E-002
           5   1.5498648887038214E-006
           6  -4.3038392709667693E-003
           7 -0.45552275852625485     
           8  -1.3779225591340708E-002
           9  -2.0364633509285305E-002
          10  0.37298063622772670     
          11  -3.0454978846449006E-003
          12   4.5416869515072657E-002
          13   7.6980060428259718E-007
          14  -2.1056851205931062E-003
          15 -0.22288352247897375     
          16  -6.7421042328068559E-003
          17   3.5316976720394995E-007
          18   3.6438154210080191E-003
          19  0.38549252326423117     
          20   1.1662165304857726E-002
Sym=     7a
Ene=  -0.47391470598309293     
Spin= Alpha
Occup=     2.00000000
           1  0.32820055548519239     
           2  -2.7713935779563940E-002
           3  0.26516104536077933     
           4   3.6820850606231276E-002
           5 -0.21521111111290711     
           6  -2.2312669917057930E-002
           7   7.4484824328140244E-003
           8 -0.23923794724475170     
           9  0.32820213118234842     
          10  -3.2736106264002945E-002
          11 -0.26633214381147996     
          12   2.0744297768543488E-002
          13  0.37093555818738611     
          14  0.30761577946226110     
          15   4.3347076011989536E-003
          16 -0.23933011700587034     
          17 -0.37537383299739946     
          18  0.28722512714105075     
          19  -7.8187600317506829E-003
          20  0.16874943605925297     
Sym=     8a
Ene=  -0.46278651975311963     
Spin= Alpha
Occup=     2.00000000
           1  0.31465015192585510     
           2   1.5869536011104482E-002
           3  0.47425354488889443     
           4  -4.5651952674450269E-002
           5   7.8319061110028065E-002
           6   6.4553486347811509E-002
           7  -6.5965997443316491E-003
           8  0.19789316314957103     
           9  0.31465072990438392     
          10   6.9368124824778984E-003
          11 -0.47084292517932225     
          12  -7.4241781060431403E-002
          13 -0.21366510863734481     
          14 -0.20303456946603018     
          15  -4.8470818236864355E-003
          16  0.22364366843144998     
          17  0.19855784095752949     
          18 -0.19106632864038200     
          19   7.7008956166209411E-003
          20 -0.19484445307092588     
Sym=     9a
Ene=  -0.45602736326604110     
Spin= Alpha
Occup=     1.99999999
           1  -2.0302791928833174E-002
           2   6.6813883350291578E-002
           3  -5.9236572948010685E-002
           4 -0.15157043593102934     
           5 -0.15029900380820083     
           6  -6.8847776602001892E-002
           7  -1.1835552599466047E-002
           8  0.41276553029610002     
           9  -2.0302423974081590E-002
          10   6.8008410197200234E-002
          11   6.7016549272909745E-002
          12 -0.14775248193426793     
          13  0.36651991524038724     
          14  0.42267876767556811     
          15  -1.6904104346678401E-002
          16  0.42682297001924435     
          17  -3.0221497515977618E-002
          18  0.17768992440976597     
          19   8.6852725818841094E-003
          20 -0.34262487159477906     
Sym=    10a
Ene=  -0.42058956659270741     
Spin= Alpha
Occup=     1.00000001
           1  -8.8541094657868507E-003
           2 -0.18646530479047091     
           3  -2.2043129952176849E-002
           4 -0.11006841769469522     
           5  -4.4205955866985863E-002
           6  0.25413011569816307     
           7  -5.1134919896518834E-003
           8   8.9597308125961492E-002
           9  -8.8582788939571763E-003
          10 -0.18595561984103179     
          11   3.2177105928118559E-002
          12 -0.10843310371278134     
          13 -0.28176427459743236     
          14 -0.37895746733696950     
          15  -3.9669346399511599E-003
          16  0.24928984574349444     
          17 -0.41063290377925776     
          18  0.61924914682866716     
          19  -7.6419281840259690E-003
          20   5.9041081233143632E-002
Sym=    11a
Ene=  -0.40541349102733509     
Spin= Alpha
Occup=     1.00000000
           1 -0.25763825594804241     
           2 -0.12613032552448528     
           3 -0.23361734875866588     
           4 -0.37745967483803916     
           5  -6.4227751223266008E-007
           6   1.8171403811909038E-003
           7  0.19205124925076414     
           8   5.8105492201392384E-003
           9  0.25763583353957298     
          10  0.12147681587455278     
          11 -0.25834205196409077     
          12  0.36257609851229111     
          13  -2.5837229604030960E-006
          14   5.5599406592348145E-003
          15  0.58904060555156779     
          16   1.7821723717186211E-002
          17  -2.4668364390887419E-006
          18   2.7051722759853089E-003
          19  0.28570019468149332     
          20   8.6430958657047526E-003
Sym=    12a
Ene=  -0.36362725202014062     
Spin= Alpha
Occup=     0.00000000
           1  -1.4275836091994091E-002
           2 -0.22613317359246912     
           3  -2.8657191682672625E-002
           4  0.58115579037358756     
           5   9.1656252613990928E-008
           6  -2.4771569039318720E-004
           7  -2.6267413836365560E-002
           8  -7.9494998137479478E-004
           9   1.4275028417388541E-002
          10  0.22588276962487161     
          11   2.2550426673542037E-003
          12 -0.58195518201004137     
          13  -1.2516980158070082E-007
          14   5.2982568115615943E-003
          15  0.56100421561580560     
          16   1.6970425892057901E-002
          17  -3.6429060690402303E-007
          18   2.6014567193830207E-004
          19   2.7465735566177825E-002
          20   8.3213360085604014E-004
Sym=    13a
Ene=  -0.30377271429093028     
Spin= Alpha
Occup=     0.00000000
           1   3.8318971873726182E-002
           2  -4.1318805101572542E-002
           3  -4.4502036806322275E-002
           4  0.31259595154499920     
           5  -8.0626948802643789E-002
           6  0.10383072235537504     
           7  -9.8380499808670679E-003
           8  0.29279743450885037     
           9   3.8319369445708629E-002
          10  -4.0649186042995361E-002
          11   2.6298613062412005E-002
          12  0.31473675839054882     
          13  -1.5565806008183520E-002
          14 -0.11653007383219977     
          15   1.8245649059588736E-002
          16 -0.56675686396628877     
          17   3.9331997347688011E-002
          18  0.24177744938239221     
          19   1.9322138506693280E-002
          20 -0.71427332220478645     
Sym=    14a
Ene=  -0.26237433915391667     
Spin= Alpha
Occup=     0.00000000
           1  -4.3866916731987678E-002
           2   6.3511849678641541E-002
           3 -0.59026655284037410     
           4  0.23251500811106404     
           5  -1.1322931875277626E-006
           6   3.7464028393585859E-003
           7  0.39647370712961966     
           8   1.1993285423953184E-002
           9   4.3866782978563765E-002
          10  -7.4514767506099575E-002
          11 -0.57382828551655540     
          12 -0.26773044575769367     
          13  -2.8858799270443039E-007
          14  -4.3351378547333693E-003
          15 -0.45886337278682227     
          16  -1.3880797325898690E-002
          17   6.5877087836912677E-008
          18   3.5016643476173366E-003
          19  0.37052559628381565     
          20   1.1209461282167908E-002
Sym=    15a
Ene=  -0.18330207563005088     
Spin= Alpha
Occup=     0.00000000
           1  -5.8405790117252172E-002
           2   3.5295785240928301E-002
           3   6.1826216885771487E-002
           4 -0.40990665234638379     
           5   4.6955374343665125E-002
           6   2.2755098877647473E-002
           7  -2.3468836363767561E-002
           8  0.76869409169491820     
           9  -5.8405846517484199E-002
          10   3.4355395587729105E-002
          11  -3.7593908305141581E-002
          12 -0.41291291599207891     
          13  -6.3359161357677976E-003
          14  -2.8509250225660192E-003
          15   1.8171904989627233E-002
          16 -0.59981541051174669     
          17  -4.5641417789890320E-003
          18  -2.9875744344856500E-002
          19  -1.2708813922052607E-002
          20  0.42945772839624080     
Sym=    16a
Ene=    8.0001853879764884E-002
Spin= Alpha
Occup=     0.00000000
           1 -0.52117754507913960     
           2 -0.39036296020361511     
           3  0.47659738478720304     
           4   6.3719443994504452E-002
           5  -3.4232251375806991E-005
           6   8.1409724931087481E-003
           7  0.86034357570030107     
           8   2.6025349228258301E-002
           9  0.52119507740108040     
          10  0.39936371551658367     
          11  0.47213411753691908     
          12  -3.5024044178769954E-002
          13   6.0215662818712412E-006
          14  -3.4378060307631514E-003
          15 -0.36227869001653729     
          16  -1.0958226528705976E-002
          17   3.4326311902231121E-006
          18   6.9362621250808830E-004
          19   7.3845236588229224E-002
          20   2.2368131479033504E-003
Sym=    17a
Ene=   0.13866606252173719     
Spin= Alpha
Occup=     0.00000000
           1 -0.29625434968358927     
           2 -0.54187384728835386     
           3  0.23196331869656181     
           4   6.3182997628439333E-002
           5   1.0696499527826160     
           6 -0.40877218009573640     
           7   2.8548739251506540E-003
           8   3.4199237240659833E-002
           9 -0.29620967065766596     
          10 -0.54618308120655457     
          11 -0.22504494275091330     
          12   4.9350706244517026E-002
          13 -0.17592199937383304     
          14  0.42886721820201318     
          15  -3.0794460053373122E-003
          16  -3.2483249084802747E-002
          17 -0.13669604930948409     
          18  0.10280867017969905     
          19   1.8922493505911168E-003
          20  -9.4211970181752050E-002
Sym=    18a
Ene=   0.18343789981818853     
Spin= Alpha
Occup=     0.00000000
           1  0.41919815570866781     
           2 -0.61852353785511260     
           3 -0.32802828874951551     
           4 -0.17543223684718048     
           5   1.2885994731415003E-005
           6   2.7325686927317018E-003
           7  0.28978620306884501     
           8   8.7669612694309326E-003
           9 -0.41920606067404104     
          10  0.61210337930683711     
          11 -0.34966066248740690     
          12  0.15493292394313099     
          13  -1.6527915523931009E-006
          14  -8.2016906007600801E-004
          15  -8.7273501084256133E-002
          16  -2.6404687401931320E-003
          17  -1.9010866043402356E-006
          18  -8.8767235813204861E-003
          19 -0.93916478796511760     
          20  -2.8411414037073750E-002
Sym=    19a
Ene=   0.42364692994537062     
Spin= Alpha
Occup=     0.00000000
           1 -0.42589851196883477     
           2  0.50552091689042722     
           3  0.32244763077364497     
           4  0.19981140063281702     
           5  0.18107180407932238     
           6  0.23737801697380490     
           7   4.1768400596996300E-004
           8  -8.7892308949821321E-002
           9 -0.42589713688315589     
          10  0.49922827293103211     
          11 -0.34342401036999959     
          12  0.17966826556636176     
          13 -0.22950698838040021     
          14  0.28732920979540361     
          15  -2.7244011600661817E-003
          16   3.1097161851970697E-004
          17  0.91698133460870546     
          18  0.84804239249263569     
          19  -1.7249974577896520E-002
          20  0.30522742729783375     
Sym=    20a
Ene=   0.83548458428984673     
Spin= Alpha
Occup=     0.00000000
           1 -0.36508083626169641     
           2  -8.5362435058045097E-002
           3  0.26692070925327172     
           4   7.3465048264861249E-002
           5 -0.44585813986163625     
           6  -1.2713851578126749     
           7   9.5871534649721174E-003
           8   8.0129404631756870E-002
           9 -0.36508245029726644     
          10  -9.0433543036804342E-002
          11 -0.26921367967144971     
          12   5.7246699871590159E-002
          13  0.83624528303330059     
          14 -0.90151205236962384     
          15   6.5072716944849229E-003
          16   6.6399752029337039E-002
          17  0.23040631073662129     
          18  0.26301711966271873     
          19  -4.8928362638440874E-003
          20   7.9575258666998508E-002
