 Entering Gaussian System
 *********************************************
 Gaussian 98:
 frequency output generated by the xtb code
 *********************************************
                         Standard orientation:
 --------------------------------------------------------------------
  Center     Atomic     Atomic              Coordinates (Angstroms)
  Number     Number      Type              X           Y           Z
 --------------------------------------------------------------------
    1          6             0       -0.527955    0.845000    0.157329
    2          6             0        0.680835   -0.007475    0.034313
    3          6             0       -0.543910   -0.842846    0.106270
    4          6             0        1.948228   -0.016719   -0.055866
    5          6             0       -1.557198    0.022040   -0.242047
 --------------------------------------------------------------------
     1 basis functions        1 primitive gaussians
     1 alpha electrons        1 beta electrons

 Harmonic frequencies (cm**-1), IR intensities (KM/Mole),
 Raman scattering activities (A**4/amu), Raman depolarization ratios,
 reduced masses (AMU), force constants (mDyne/A) and normal coordinates:
                      1                      2                      3
                        a                      a                      a 
 Frequencies --   223.6628               301.0847               441.1319
 Red. masses --    12.0107                12.0107                12.0107
 Frc consts  --     0.0000                 0.0000                 0.0000
 IR Inten    --     0.3133                 0.1909                 0.1786
 Raman Activ --     0.0000                 0.0000                 0.0000
 Depolar     --     0.0000                 0.0000                 0.0000
 Atom AN      X      Y      Z        X      Y      Z        X      Y      Z
   1   6     0.03  -0.06  -0.30    -0.32   0.14   0.09    -0.03  -0.07  -0.34
   2   6     0.11   0.01  -0.41     0.01   0.56   0.02     0.22  -0.03   0.74
   3   6     0.03   0.08  -0.29     0.33   0.14  -0.08    -0.03   0.10  -0.33
   4   6     0.15  -0.02   0.46    -0.01  -0.60  -0.02     0.08   0.01  -0.26
   5   6    -0.32  -0.01   0.54    -0.00  -0.25  -0.01    -0.24  -0.00   0.19
                      4                      5                      6
                        a                      a                      a 
 Frequencies --   540.4733               555.5055               937.4584
 Red. masses --    12.0107                12.0107                12.0107
 Frc consts  --     0.0000                 0.0000                 0.0000
 IR Inten    --     0.2615                 1.0205                 1.2844
 Raman Activ --     0.0000                 0.0000                 0.0000
 Depolar     --     0.0000                 0.0000                 0.0000
 Atom AN      X      Y      Z        X      Y      Z        X      Y      Z
   1   6     0.12   0.47  -0.21     0.38  -0.36  -0.07    -0.41  -0.31  -0.15
   2   6    -0.32  -0.01   0.11     0.00   0.66   0.02     0.00   0.01   0.00
   3   6     0.13  -0.44  -0.24    -0.38  -0.37   0.04     0.41  -0.33   0.13
   4   6    -0.32   0.00   0.04    -0.01  -0.03  -0.00     0.00  -0.02  -0.00
   5   6     0.38  -0.01   0.29     0.01   0.09   0.01     0.01   0.65   0.02
                      7                      8                      9
                        a                      a                      a 
 Frequencies --   977.6473              1486.8375              1713.0836
 Red. masses --    12.0107                12.0107                12.0107
 Frc consts  --     0.0000                 0.0000                 0.0000
 IR Inten    --     0.5471                 0.5249                 1.2833
 Raman Activ --     0.0000                 0.0000                 0.0000
 Depolar     --     0.0000                 0.0000                 0.0000
 Atom AN      X      Y      Z        X      Y      Z        X      Y      Z
   1   6    -0.41   0.40   0.05    -0.33  -0.29  -0.10    -0.03  -0.17  -0.06
   2   6     0.28  -0.00  -0.05     0.20  -0.00  -0.05    -0.72   0.00   0.07
   3   6    -0.42  -0.40   0.03    -0.33   0.31  -0.09    -0.03   0.17  -0.05
   4   6     0.51  -0.00  -0.03    -0.21   0.00   0.02     0.61  -0.00  -0.05
   5   6     0.03  -0.00   0.00     0.67  -0.01   0.22     0.18  -0.00   0.08
