$hessian                                                                        
        0.2805739446   0.0737171989   0.0457724369  -0.0880114788   0.0264918454
        0.0225400110   0.0952415531  -0.0156495015   0.0043859831  -0.0545210277
        0.0096803699   0.0024974158  -0.2332829913  -0.0942399127  -0.0751958468
        0.0737171989   0.2810522368   0.0652526117   0.1290709512  -0.0320190272
       -0.0076088437   0.0103738312  -0.1662671467   0.0097258721  -0.0058517199
       -0.0002919609   0.0021816997  -0.2073102614  -0.0824741020  -0.0695513397
        0.0457724369   0.0652526117   0.0444753426   0.0447493795  -0.0041339147
       -0.0238418125   0.0049339202  -0.0211403240   0.0228927733  -0.0106154164
       -0.0011397831   0.0042150037  -0.0848403202  -0.0388385900  -0.0477413071
       -0.0880114788   0.1290709512   0.0447493795   0.7832041845  -0.0044263786
       -0.0769158735  -0.0909267389  -0.1303516345   0.0369458192  -0.5479573536
        0.0038450240   0.0388688056  -0.0563086132   0.0018620378  -0.0436481309
        0.0264918454  -0.0320190272  -0.0041339147  -0.0044263786   0.0735725300
        0.0010887104  -0.0267082717  -0.0296878336   0.0027487062   0.0032812842
       -0.0161792761  -0.0000861854   0.0013615207   0.0043136070   0.0003826835
        0.0225400110  -0.0076088437  -0.0238418125  -0.0769158735   0.0010887104
        0.0643591402   0.0209953078   0.0066293506  -0.0231781433   0.0582386392
       -0.0002621125  -0.0257062409  -0.0248580846   0.0001528952   0.0083670564
        0.0952415531   0.0103738312   0.0049339202  -0.0909267389  -0.0267082717
        0.0209953078   0.2777377127  -0.0762227975   0.0402195678  -0.0545822311
       -0.0087578002   0.0019018795  -0.2274702957   0.1013150383  -0.0680506753
       -0.0156495015  -0.1662671467  -0.0211403240  -0.1303516345  -0.0296878336
        0.0066293506  -0.0762227975   0.2909288827  -0.0510954605   0.0075217442
       -0.0001775038  -0.0024896037   0.2147021893  -0.0947963986   0.0680960376
        0.0043859831   0.0097258721   0.0228927733   0.0369458192   0.0027487062
       -0.0231781433   0.0402195678  -0.0510954605   0.0373669978  -0.0101996055
        0.0010673350   0.0041421225  -0.0713517645   0.0375535472  -0.0412237504
       -0.0545210277  -0.0058517199  -0.0106154164  -0.5479573536   0.0032812842
        0.0582386392  -0.0545822311   0.0075217442  -0.0101996055   0.6628559586
       -0.0045993414  -0.0507463819  -0.0057953462  -0.0003519671   0.0133227646
        0.0096803699  -0.0002919609  -0.0011397831   0.0038450240  -0.0161792761
       -0.0002621125  -0.0087578002  -0.0001775038   0.0010673350  -0.0045993414
        0.0149185749   0.0004849978  -0.0001682523   0.0017301659  -0.0001504372
        0.0024974158   0.0021816997   0.0042150037   0.0388688056  -0.0000861854
       -0.0257062409   0.0019018795  -0.0024896037   0.0041421225  -0.0507463819
        0.0004849978   0.0148197767   0.0074782810  -0.0000909083   0.0025293380
       -0.2332829913  -0.2073102614  -0.0848403202  -0.0563086132   0.0013615207
       -0.0248580846  -0.2274702957   0.2147021893  -0.0713517645  -0.0057953462
       -0.0001682523   0.0074782810   0.5228572463  -0.0085851963   0.1735718884
       -0.0942399127  -0.0824741020  -0.0388385900   0.0018620378   0.0043136070
        0.0001528952   0.1013150383  -0.0947963986   0.0375535472  -0.0003519671
        0.0017301659  -0.0000909083  -0.0085851963   0.1712267276   0.0012230559
       -0.0751958468  -0.0695513397  -0.0477413071  -0.0436481309   0.0003826835
        0.0083670564  -0.0680506753   0.0680960376  -0.0412237504   0.0133227646
       -0.0001504372   0.0025293380   0.1735718884   0.0012230559   0.0780686630
