5
 energy: -10.081981624439 gnorm: 0.260449943176 xtb: 6.2.2 (9d81278992624c895f80dd42a50cac0aa55982e2)
C        -0.42815000000000    1.07096900000000    0.12035700000000
C         0.53308200000000   -0.02146200000000    0.54300700000000
C        -0.44835500000000   -1.06801700000000    0.05564500000000
C         1.75513800000000   -0.00580200000000   -0.35618300000000
C        -1.41171500000000    0.02431200000000   -0.36282700000000
5
 energy: -10.156767090284 gnorm: 0.151317072714 xtb: 6.2.2 (9d81278992624c895f80dd42a50cac0aa55982e2)
C        -0.48797246471167    0.98553936245002    0.19759886291012
C         0.60329626790903   -0.01868001508346    0.42912669266437
C        -0.50659890190669   -0.98629820325499    0.13794317828664
C         1.75218739905517   -0.00650511009683   -0.33201923818520
C        -1.36091230034583    0.02594396598526   -0.43265049567593
5
 energy: -10.179198004544 gnorm: 0.171007931514 xtb: 6.2.2 (9d81278992624c895f80dd42a50cac0aa55982e2)
C        -0.52863808297629    0.86702242315006    0.17008893677419
C         0.66182842340732   -0.01418130503756    0.26215940276375
C        -0.54500445861137   -0.86558732033351    0.11766994104518
C         1.79653967532780   -0.01063991729173   -0.20921588177049
C        -1.38472555714746    0.02338611951273   -0.34070339881262
5
 energy: -10.192531980585 gnorm: 0.065553435512 xtb: 6.2.2 (9d81278992624c895f80dd42a50cac0aa55982e2)
C        -0.55640100622433    0.87245577388877    0.20249390053059
C         0.67020282290210   -0.01214029243070    0.19207330314251
C        -0.57288286118155   -0.87244488685937    0.14970323866037
C         1.93045170650402   -0.01244894680841   -0.19122772549753
C        -1.47137066200024    0.02457835220971   -0.35304371683594
5
 energy: -10.195617172465 gnorm: 0.030254152541 xtb: 6.2.2 (9d81278992624c895f80dd42a50cac0aa55982e2)
C        -0.53313650002077    0.86235088770299    0.19898879469789
C         0.67554456818688   -0.01202969716022    0.18673883243314
C        -0.54943061620181   -0.86258844124121    0.14680272784205
C         1.89728308535603   -0.01253889750963   -0.17787386746924
C        -1.49026053732033    0.02480614820808   -0.35465748750384
5
 energy: -10.197886322847 gnorm: 0.031900513232 xtb: 6.2.2 (9d81278992624c895f80dd42a50cac0aa55982e2)
C        -0.52404653706899    0.84121887948379    0.15278171549479
C         0.67904584695151   -0.00983579150868    0.11314889413108
C        -0.53991272131306   -0.83887458966847    0.10195084927605
C         1.94250915410333   -0.01529613889013   -0.10094550377513
C        -1.55759574267279    0.02278764058349   -0.26693695512679
5
 energy: -10.198649415532 gnorm: 0.019858202548 xtb: 6.2.2 (9d81278992624c895f80dd42a50cac0aa55982e2)
C        -0.53954690379167    0.83130782772287    0.17213522970927
C         0.69051192615754   -0.00809569528510    0.05205353217255
C        -0.55522935562359   -0.82985679533734    0.12187523981424
C         1.95738499364442   -0.01617680353466   -0.07657608585288
C        -1.55312066038671    0.02282146643423   -0.26948891584319
5
 energy: -10.199097563071 gnorm: 0.003706215666 xtb: 6.2.2 (9d81278992624c895f80dd42a50cac0aa55982e2)
C        -0.53058596008492    0.84150435064860    0.16184668593911
C         0.68400840095238   -0.00806619344196    0.05304379268341
C        -0.54646231342447   -0.83958322020328    0.11098695032332
C         1.94754499143672   -0.01627776032061   -0.07003173613777
C        -1.55450511887970    0.02242282331725   -0.25584669280806
5
 energy: -10.199156196496 gnorm: 0.003716780307 xtb: 6.2.2 (9d81278992624c895f80dd42a50cac0aa55982e2)
C        -0.52815542660445    0.84529680430993    0.15662718855521
C         0.68126251139618   -0.00758784299804    0.03808446286349
C        -0.54409924951029   -0.84309697976374    0.10554595173274
C         1.94969107911746   -0.01667299466860   -0.05766664544356
C        -1.55869891439891    0.02206101312045   -0.24259195770787
5
 energy: -10.199164939811 gnorm: 0.001049949774 xtb: 6.2.2 (9d81278992624c895f80dd42a50cac0aa55982e2)
C        -0.52769383063340    0.84591641715411    0.15737694038669
C         0.68038163740615   -0.00751303095440    0.03584418947914
C        -0.54365444272367   -0.84377215556052    0.10625875547626
C         1.94679257133626   -0.01666655998355   -0.05686940213601
C        -1.55582593538535    0.02203532934436   -0.24261148320609
5
 energy: -10.199165794047 gnorm: 0.000448727019 xtb: 6.2.2 (9d81278992624c895f80dd42a50cac0aa55982e2)
C        -0.52796006254619    0.84499736258108    0.15732822936641
C         0.68083516542440   -0.00747119819427    0.03431557985907
C        -0.54390605637283   -0.84284949781714    0.10626691966333
C         1.94822865258761   -0.01670889615470   -0.05585915285640
C        -1.55719769909300    0.02203222958503   -0.24205257603241
