[Molden Format]
[Title]
[Atoms] AU
C      1     6 -0.77686114213346E-03  0.82960656584696E+00 -0.14452096802030E-05
H      2     1  0.16667864796340E+01 -0.41324189714622E+00 -0.50969620129831E-05
H      3     1 -0.16660096184819E+01 -0.41636277897478E+00  0.65421683949915E-05
[GTO]
           1 0
 s           4   1.0000000000000000     
   51.049363095579913      -0.16312063210127389     
   8.7911227406887544      -0.19911024581000730     
  0.70640422258929825       0.31882047753655751     
  0.26922813413411617       0.12706504184240380     
 p           4   1.0000000000000000     
   5.8263656140800002       0.73716451545209605     
   1.5106896018720002       0.68216371614850257     
  0.53256483288000001       0.35783053929253711     
  0.21202323690600003        5.3983030275847881E-002

           2 0
 s           3   1.0000000000000000     
   3.3702276975336001       0.27359110588908298     
  0.61389118221497996       0.26460540653860526     
  0.16614291148415999        8.2465947534082318E-002

           3 0
 s           3   1.0000000000000000     
   3.3702276975336001       0.27359110588908298     
  0.61389118221497996       0.26460540653860526     
  0.16614291148415999        8.2465947534082318E-002

[MO]
Sym=     1a
Ene=  -0.60205037563078989     
Spin= Alpha
Occup=     2.00000000
           1 -0.68206792993918541     
           2  -7.2564983639635284E-005
           3   7.7512187822434589E-002
           4  -1.2207083136503513E-007
           5 -0.28090415950160391     
           6 -0.28090418104718795     
Sym=     2a
Ene=  -0.48263486536245470     
Spin= Alpha
Occup=     2.00000000
           1  -3.4735642636482413E-008
           2 -0.60028215172667110     
           3  -5.6213106510519164E-004
           4   2.1031263732831573E-006
           5 -0.41597868129160936     
           6  0.41597867791673110     
Sym=     3a
Ene=  -0.40278890359713765     
Spin= Alpha
Occup=     1.99999998
           1  0.49180097683535634     
           2  -7.5282666276670518E-004
           3  0.80392205688231655     
           4  -1.3766627788811840E-006
           5 -0.21114880047229764     
           6 -0.21114878762311026     
Sym=     4a
Ene=  -0.36779226871380527     
Spin= Alpha
Occup=     0.00000002
           1   5.5037090697364822E-009
           2  -3.4880743541208196E-006
           3  -1.7273596558647985E-006
           4  -1.0000000000418603     
           5  -1.9145141432074083E-008
           6  -2.7670394534479839E-009
Sym=     5a
Ene=   0.14437446713819790     
Spin= Alpha
Occup=     0.00000000
           1 -0.89392764276876102     
           2  -6.9603418955949928E-004
           3  0.74324329372213693     
           4  -1.2977097751575177E-006
           5  0.77656686565469102     
           6  0.77656678650462596     
Sym=     6a
Ene=   0.16536840624138147     
Spin= Alpha
Occup=     0.00000000
           1   4.5040901984222808E-008
           2  -1.0406241939940619     
           3  -9.7450059359698504E-004
           4   3.6277664299309141E-006
           5  0.83918119194773300     
           6 -0.83918127114288088     
