$hessian                                                                        
        0.3773835696   0.0001251440  -0.0000013175  -0.1889186006   0.1408458120
        0.0000004136  -0.1884649691  -0.1409709559   0.0000009039
        0.0001251440   0.2442351213  -0.0000004267   0.1021723867  -0.1218897043
       -0.0000001439  -0.1022975307  -0.1223454170   0.0000005706
       -0.0000013175  -0.0000004267   0.0000000000   0.0000004811  -0.0000002789
       -0.0000000000   0.0000008364   0.0000007056  -0.0000000000
       -0.1889186006   0.1021723867   0.0000004811   0.2142471693  -0.1214772636
       -0.0000005359  -0.0253285688   0.0193048769   0.0000000547
        0.1408458120  -0.1218897043  -0.0000002789  -0.1214772636   0.1134438367
        0.0000002260  -0.0193685484   0.0084458676   0.0000000529
        0.0000004136  -0.0000001439  -0.0000000000  -0.0000005359   0.0000002260
        0.0000000000   0.0000001222  -0.0000000821  -0.0000000000
       -0.1884649691  -0.1022975307   0.0000008364  -0.0253285688  -0.0193685484
        0.0000001222   0.2137935379   0.1216660790  -0.0000009586
       -0.1409709559  -0.1223454170   0.0000007056   0.0193048769   0.0084458676
       -0.0000000821   0.1216660790   0.1138995494  -0.0000006235
        0.0000009039   0.0000005706  -0.0000000000   0.0000000547   0.0000000529
       -0.0000000000  -0.0000009586  -0.0000006235   0.0000000000
