3
 energy: -2.967162605776 gnorm: 0.010342257926 xtb: 6.2.2 (9d81278992624c895f80dd42a50cac0aa55982e2)
C        -0.00040200000000    0.42701500000000    0.00000000000000
H         0.90601600000000   -0.21265400000000    0.00000000000000
H        -0.90561400000000   -0.21436000000000    0.00000000000000
3
 energy: -2.967466433611 gnorm: 0.002077645168 xtb: 6.2.2 (9d81278992624c895f80dd42a50cac0aa55982e2)
C        -0.00041786059478    0.44378230513136   -0.00000000000000
H         0.87761407037651   -0.22106443264545    0.00000000000000
H        -0.87719620978173   -0.22271687248590    0.00000000000000
3
 energy: -2.967481123247 gnorm: 0.000587292600 xtb: 6.2.2 (9d81278992624c895f80dd42a50cac0aa55982e2)
C        -0.00041409021001    0.43975972007069   -0.00000000000000
H         0.88198628259517   -0.21904902691000    0.00000000000000
H        -0.88157219238516   -0.22070969316069    0.00000000000000
3
 energy: -2.967481477396 gnorm: 0.000096811521 xtb: 6.2.2 (9d81278992624c895f80dd42a50cac0aa55982e2)
C        -0.00041339589330    0.43900892723505   -0.00000000000000
H         0.88202664728615   -0.21867359657164    0.00000000000000
H        -0.88161325139285   -0.22033433066341    0.00000000000000
