 Entering Gaussian System
 *********************************************
 Gaussian 98:
 frequency output generated by the xtb code
 *********************************************
                         Standard orientation:
 --------------------------------------------------------------------
  Center     Atomic     Atomic              Coordinates (Angstroms)
  Number     Number      Type              X           Y           Z
 --------------------------------------------------------------------
    1          6             0       -0.000411    0.439009   -0.000001
    2          1             0        0.882026   -0.218678   -0.000003
    3          1             0       -0.881614   -0.220330    0.000003
 --------------------------------------------------------------------
     1 basis functions        1 primitive gaussians
     1 alpha electrons        1 beta electrons

 Harmonic frequencies (cm**-1), IR intensities (KM/Mole),
 Raman scattering activities (A**4/amu), Raman depolarization ratios,
 reduced masses (AMU), force constants (mDyne/A) and normal coordinates:
                      1                      2                      3
                        a                      a                      a 
 Frequencies --  1358.3075              2858.0938              2921.5996
 Red. masses --     2.1157                 1.4815                 2.0782
 Frc consts  --     0.0000                 0.0000                 0.0000
 IR Inten    --     0.1720                 0.0514                 0.3169
 Raman Activ --     0.0000                 0.0000                 0.0000
 Depolar     --     0.0000                 0.0000                 0.0000
 Atom AN      X      Y      Z        X      Y      Z        X      Y      Z
   1   6     0.00  -0.32   0.00    -0.00   0.21  -0.00     0.31   0.00  -0.00
   2   1     0.39   0.55  -0.00     0.59  -0.36  -0.00    -0.54   0.40   0.00
   3   1    -0.39   0.55   0.00    -0.59  -0.36   0.00    -0.54  -0.40   0.00
