5
 energy: -7.075275263227 gnorm: 0.186717132445 xtb: 6.2.2 (9d81278992624c895f80dd42a50cac0aa55982e2)
C        -0.77120000000000    0.09464000000000    0.41454000000000
C         0.74710900000000    0.10724200000000    0.45373300000000
C        -0.00070900000000    1.15437400000000   -0.34368500000000
H        -1.12311500000000   -0.68754800000000   -0.29161300000000
H         1.14791500000000   -0.66870900000000   -0.23297600000000
5
 energy: -7.115789154649 gnorm: 0.110612847691 xtb: 6.2.2 (9d81278992624c895f80dd42a50cac0aa55982e2)
C        -0.77830656506767    0.10244810113575    0.34338110241096
C         0.75774578112922    0.11519600354976    0.38303336062567
C        -0.00224067423806    1.12954222717288   -0.27628206811268
H        -1.25368896306643   -0.68408993531901   -0.25772990385954
H         1.27649042124293   -0.66309739653937   -0.19240349106440
5
 energy: -7.133034994437 gnorm: 0.096923685227 xtb: 6.2.2 (9d81278992624c895f80dd42a50cac0aa55982e2)
C        -0.78545361349104    0.10682443343966    0.26802812114026
C         0.76869784898016    0.11972271657498    0.30814655169676
C        -0.00353939647502    1.06838067845536   -0.20630913720647
H        -1.38077030220110   -0.65900456816235   -0.22084574683663
H         1.40106546318699   -0.63592426030764   -0.14902078879392
5
 energy: -7.139698925589 gnorm: 0.038886274051 xtb: 6.2.2 (9d81278992624c895f80dd42a50cac0aa55982e2)
C        -0.79717506645582    0.08934048184291    0.22806661182596
C         0.78275736920513    0.10245012655657    0.26885455624095
C        -0.00440107906104    1.11442611678251   -0.18786950101392
H        -1.47081696213856   -0.66538917497117   -0.19274459535737
H         1.48963573845029   -0.64082855021082   -0.11630807169563
5
 energy: -7.142161479849 gnorm: 0.019273738344 xtb: 6.2.2 (9d81278992624c895f80dd42a50cac0aa55982e2)
C        -0.80437666840484    0.07401874471429    0.19903534514124
C         0.79170063512321    0.08725518533714    0.24025360627529
C        -0.00470847304226    1.11094776978514   -0.17481091338524
H        -1.50739557325845   -0.64869242864820   -0.17137930975966
H         1.52478007958234   -0.62353027118837   -0.09309972827163
5
 energy: -7.143334107652 gnorm: 0.012400016078 xtb: 6.2.2 (9d81278992624c895f80dd42a50cac0aa55982e2)
C        -0.80772214071768    0.05403395282109    0.17360290864236
C         0.79668148343149    0.06733931578107    0.21504908227187
C        -0.00470680677029    1.08846215745111   -0.16744832035182
H        -1.57629760906125   -0.61806719982989   -0.15149455568509
H         1.59204507311773   -0.59176922622338   -0.06971011487732
5
 energy: -7.143579895642 gnorm: 0.010040294617 xtb: 6.2.2 (9d81278992624c895f80dd42a50cac0aa55982e2)
C        -0.80587057342998    0.04609824557216    0.15847895433425
C         0.79574608723549    0.05939086746534    0.19985247331967
C        -0.00488713483819    1.08921157209932   -0.16062774053587
H        -1.57843713578304   -0.61051318204542   -0.13979095682325
H         1.59344875681572   -0.58418850309141   -0.05791373029481
5
 energy: -7.143662953509 gnorm: 0.003169850410 xtb: 6.2.2 (9d81278992624c895f80dd42a50cac0aa55982e2)
C        -0.80333713126504    0.04147085380680    0.15069166787942
C         0.79369854816131    0.05473124860578    0.19194227842794
C        -0.00497731996962    1.09014605676051   -0.15752512646488
H        -1.59431578829787   -0.60646440456156   -0.13390113011297
H         1.60893169137122   -0.57988475461152   -0.05120868972952
5
 energy: -7.143673608222 gnorm: 0.000964362518 xtb: 6.2.2 (9d81278992624c895f80dd42a50cac0aa55982e2)
C        -0.80151009497381    0.04091039141559    0.15014297061689
C         0.79191274117044    0.05413401735860    0.19130044300519
C        -0.00498693133296    1.09048410494011   -0.15747410902953
H        -1.59338018009806   -0.60604483457464   -0.13330723373991
H         1.60796446523438   -0.57948467913965   -0.05066307085264
5
 energy: -7.143675297422 gnorm: 0.000557141293 xtb: 6.2.2 (9d81278992624c895f80dd42a50cac0aa55982e2)
C        -0.79989766631411    0.04095629996379    0.15084810763133
C         0.79025560060239    0.05414413475899    0.19193744299886
C        -0.00496221508599    1.09144892567723   -0.15806588334411
H        -1.59058341225250   -0.60654581102008   -0.13360145965817
H         1.60518769305021   -0.58000454937993   -0.05111920762792
