5
 energy: -7.143675298378 gnorm: 0.000557300571 xtb: 6.2.2 (9d81278992624c895f80dd42a50cac0aa55982e2)
C        -0.79989692529123    0.04096075149441    0.15085082831755
C         0.79025655407426    0.05414033198004    0.19193458998563
C        -0.00495705203480    1.09144867576858   -0.15806777095925
H        -1.59058705444204   -0.60653771591166   -0.13359484885149
H         1.60518447768508   -0.58001304333312   -0.05112379849069
