$hessian                                                                        
        0.5328463579   0.3363037341   0.0350019918  -0.2359406541   0.0744011968
       -0.0593890418  -0.0943075505  -0.2553034027   0.0836166780  -0.1972509912
       -0.1524691216  -0.0773042578  -0.0053471621  -0.0029324066   0.0180746298
        0.3363037341   0.4171791779   0.0181025569  -0.0763688353   0.0444041285
       -0.0539906006  -0.1325458010  -0.3201787393   0.0971684859  -0.1421143104
       -0.1460159187  -0.0723620926   0.0147252127   0.0046113516   0.0110816504
        0.0350019918   0.0181025569   0.0280388330   0.0462100463  -0.0492089996
        0.0337513541  -0.0165399160   0.0792519748  -0.0311984618  -0.0641498194
       -0.0488578494  -0.0219249899  -0.0005223027   0.0007123173  -0.0086667354
       -0.2359406541  -0.0763688353   0.0462100463   0.5462377088  -0.3346463762
       -0.0086542793  -0.0969974927   0.2545142769  -0.0884798842  -0.0042660845
        0.0027257427  -0.0179799870  -0.2090334776   0.1537751920   0.0689041041
        0.0744011968   0.0444041285  -0.0492089996  -0.3346463762   0.4060164370
        0.0005014646   0.1310262720  -0.3137484588   0.1025139198  -0.0154025999
        0.0044157526   0.0099928073   0.1446215073  -0.1410878594  -0.0637991921
       -0.0593890418  -0.0539906006   0.0337513541  -0.0086542793   0.0005014646
        0.0256701518   0.0119545933   0.0925850270  -0.0348478665   0.0007189225
        0.0008676271  -0.0095588009   0.0553698052  -0.0399635182  -0.0150148385
       -0.0943075505  -0.1325458010  -0.0165399160  -0.0969974927   0.1310262720
        0.0119545933   0.2166826592   0.0013257155   0.0054909897  -0.0132291940
       -0.0101953413   0.0268799276  -0.0121484221   0.0103891548  -0.0277855946
       -0.2553034027  -0.3201787393   0.0792519748   0.2545142769  -0.3137484588
        0.0925850270   0.0013257155   0.6505513511  -0.1899464093  -0.0007895854
       -0.0083994199   0.0092505569   0.0002529956  -0.0082247330   0.0088588506
        0.0836166780   0.0971684859  -0.0311984618  -0.0884798842   0.1025139198
       -0.0348478665   0.0054909897  -0.1899464093   0.0638956600  -0.0025870527
       -0.0051504059   0.0017346315   0.0019592692  -0.0045855905   0.0004160368
       -0.1972509912  -0.1421143104  -0.0641498194  -0.0042660845  -0.0154025999
        0.0007189225  -0.0132291940  -0.0007895854  -0.0025870527   0.2145894136
        0.1591530829   0.0672840412   0.0001568559  -0.0008465872  -0.0012660916
       -0.1524691216  -0.1460159187  -0.0488578494   0.0027257427   0.0044157526
        0.0008676271  -0.0101953413  -0.0083994199  -0.0051504059   0.1591530829
        0.1487338180   0.0523380670   0.0007856373   0.0012657679   0.0008025611
       -0.0773042578  -0.0723620926  -0.0219249899  -0.0179799870   0.0099928073
       -0.0095588009   0.0268799276   0.0092505569   0.0017346315   0.0672840412
        0.0523380670   0.0269529386   0.0011202760   0.0007806614   0.0027962206
       -0.0053471621   0.0147252127  -0.0005223027  -0.2090334776   0.1446215073
        0.0553698052  -0.0121484221   0.0002529956   0.0019592692   0.0001568559
        0.0007856373   0.0011202760   0.2263722059  -0.1603853529  -0.0579270478
       -0.0029324066   0.0046113516   0.0007123173   0.1537751920  -0.1410878594
       -0.0399635182   0.0103891548  -0.0082247330  -0.0045855905  -0.0008465872
        0.0012657679   0.0007806614  -0.1603853529   0.1434354728   0.0430561300
        0.0180746298   0.0110816504  -0.0086667354   0.0689041041  -0.0637991921
       -0.0150148385  -0.0277855946   0.0088588506   0.0004160368  -0.0012660916
        0.0008025611   0.0027962206  -0.0579270478   0.0430561300   0.0204693165
