 Entering Gaussian System
 *********************************************
 Gaussian 98:
 frequency output generated by the xtb code
 *********************************************
                         Standard orientation:
 --------------------------------------------------------------------
  Center     Atomic     Atomic              Coordinates (Angstroms)
  Number     Number      Type              X           Y           Z
 --------------------------------------------------------------------
    1          6             0       -0.799897    0.040961    0.150851
    2          6             0        0.790257    0.054140    0.191935
    3          6             0       -0.004957    1.091449   -0.158068
    4          1             0       -1.590587   -0.606538   -0.133595
    5          1             0        1.605184   -0.580013   -0.051124
 --------------------------------------------------------------------
     1 basis functions        1 primitive gaussians
     1 alpha electrons        1 beta electrons

 Harmonic frequencies (cm**-1), IR intensities (KM/Mole),
 Raman scattering activities (A**4/amu), Raman depolarization ratios,
 reduced masses (AMU), force constants (mDyne/A) and normal coordinates:
                      1                      2                      3
                        a                      a                      a 
 Frequencies --  -438.7003               501.3241               751.5221
 Red. masses --     5.2824                 3.5346                 1.4593
 Frc consts  --     0.0000                 0.0000                 0.0000
 IR Inten    --     0.8305                 0.3441                 0.1400
 Raman Activ --     0.0000                 0.0000                 0.0000
 Depolar     --     0.0000                 0.0000                 0.0000
 Atom AN      X      Y      Z        X      Y      Z        X      Y      Z
   1   6     0.16   0.11  -0.37     0.10  -0.01   0.28     0.02   0.09  -0.04
   2   6     0.14  -0.10   0.37    -0.12  -0.02   0.28    -0.02   0.09  -0.04
   3   6    -0.22  -0.00  -0.01     0.01  -0.00  -0.22    -0.00   0.13   0.05
   4   1    -0.15   0.01   0.53     0.19   0.06  -0.59     0.44  -0.53   0.06
   5   1    -0.12  -0.02  -0.54    -0.16   0.06  -0.60    -0.43  -0.54   0.04
                      4                      5                      6
                        a                      a                      a 
 Frequencies --   785.5628               816.4244              1128.4111
 Red. masses --     3.5814                11.4515                10.0997
 Frc consts  --     0.0000                 0.0000                 0.0000
 IR Inten    --     0.1414                 0.6092                 0.6841
 Raman Activ --     0.0000                 0.0000                 0.0000
 Depolar     --     0.0000                 0.0000                 0.0000
 Atom AN      X      Y      Z        X      Y      Z        X      Y      Z
   1   6    -0.21   0.22  -0.02    -0.59   0.21  -0.02    -0.24  -0.42  -0.02
   2   6    -0.20  -0.23   0.00     0.58   0.22   0.01    -0.24   0.42   0.01
   3   6     0.22   0.00   0.01     0.00  -0.40   0.08     0.60   0.00   0.02
   4   1     0.34  -0.49   0.16    -0.02  -0.07  -0.14    -0.21  -0.04   0.20
   5   1     0.34   0.50  -0.14     0.03  -0.07  -0.14    -0.20   0.04  -0.21
                      7                      8                      9
                        a                      a                      a 
 Frequencies --  1683.2838              3219.9536              3230.0228
 Red. masses --    11.4109                 1.8730                 2.0862
 Frc consts  --     0.0000                 0.0000                 0.0000
 IR Inten    --     0.2686                 0.0403                 0.1751
 Raman Activ --     0.0000                 0.0000                 0.0000
 Depolar     --     0.0000                 0.0000                 0.0000
 Atom AN      X      Y      Z        X      Y      Z        X      Y      Z
   1   6     0.34   0.31  -0.10     0.15   0.12   0.05    -0.17  -0.14  -0.04
   2   6    -0.34   0.31  -0.12     0.15  -0.12  -0.04     0.17  -0.14  -0.03
   3   6     0.00  -0.68   0.20    -0.00  -0.00  -0.00     0.00   0.04  -0.02
   4   1     0.13   0.11   0.02    -0.51  -0.42  -0.17     0.50   0.41   0.16
   5   1    -0.13   0.10   0.01    -0.52   0.40   0.14    -0.52   0.40   0.14
