[Molden Format]
[Title]
[Atoms] AU
C      1     6 -0.15115859764859E+01  0.77404595001701E-01  0.28506672474465E+00
C      2     6  0.14933683168363E+01  0.10231039024625E+00  0.36270377526356E+00
C      3     6 -0.93674698621727E-02  0.20625388849260E+01 -0.29870476852926E+00
H      4     1 -0.30057736313954E+01 -0.11461900609857E+01 -0.25245765256709E+00
H      5     1  0.30333587608906E+01 -0.10960656989174E+01 -0.96609968634506E-01
[GTO]
           1 0
 s           4   1.0000000000000000     
   51.049363095579913      -0.16312063210127389     
   8.7911227406887544      -0.19911024581000730     
  0.70640422258929825       0.31882047753655751     
  0.26922813413411617       0.12706504184240380     
 p           4   1.0000000000000000     
   5.8263656140800002       0.73716451545209605     
   1.5106896018720002       0.68216371614850257     
  0.53256483288000001       0.35783053929253711     
  0.21202323690600003        5.3983030275847881E-002

           2 0
 s           4   1.0000000000000000     
   51.049363095579913      -0.16312063210127389     
   8.7911227406887544      -0.19911024581000730     
  0.70640422258929825       0.31882047753655751     
  0.26922813413411617       0.12706504184240380     
 p           4   1.0000000000000000     
   5.8263656140800002       0.73716451545209605     
   1.5106896018720002       0.68216371614850257     
  0.53256483288000001       0.35783053929253711     
  0.21202323690600003        5.3983030275847881E-002

           3 0
 s           4   1.0000000000000000     
   51.049363095579913      -0.16312063210127389     
   8.7911227406887544      -0.19911024581000730     
  0.70640422258929825       0.31882047753655751     
  0.26922813413411617       0.12706504184240380     
 p           4   1.0000000000000000     
   5.8263656140800002       0.73716451545209605     
   1.5106896018720002       0.68216371614850257     
  0.53256483288000001       0.35783053929253711     
  0.21202323690600003        5.3983030275847881E-002

           4 0
 s           3   1.0000000000000000     
   3.3702276975336001       0.27359110588908298     
  0.61389118221497996       0.26460540653860526     
  0.16614291148415999        8.2465947534082318E-002

           5 0
 s           3   1.0000000000000000     
   3.3702276975336001       0.27359110588908298     
  0.61389118221497996       0.26460540653860526     
  0.16614291148415999        8.2465947534082318E-002

[MO]
Sym=     1a
Ene=  -0.65856953167620902     
Spin= Alpha
Occup=     2.00000000
           1  0.34889781579907614     
           2  0.15107273781278346     
           3   8.5668703891054784E-002
           4  -2.7094360212292341E-002
           5  0.34889903787516779     
           6 -0.15086934404747065     
           7   8.3166443900564907E-002
           8  -3.4896033248757244E-002
           9  0.41275358942041485     
          10   9.1526464409501338E-005
          11 -0.16467949233770948     
          12   4.9293173088800525E-002
          13   5.3995726292303710E-002
          14   5.3998769754862806E-002
Sym=     2a
Ene=  -0.56918534778889551     
Spin= Alpha
Occup=     2.00000000
           1 -0.41090935116868810     
           2  0.17674173850967093     
           3  -9.7874360482198795E-003
           4   4.3635578903012263E-002
           5  0.41090272506654907     
           6  0.17857917270640891     
           7   1.2732825075329092E-002
           8  -3.4468424441880828E-002
           9  -2.5765529093521718E-007
          10  0.26050538294206743     
          11   2.1592485227525569E-003
          12   6.7265843173141453E-003
          13 -0.27142020162756364     
          14  0.27142438794659063     
Sym=     3a
Ene=  -0.54623415322532609     
Spin= Alpha
Occup=     2.00000000
           1  0.25143705138853711     
           2 -0.12047920227664236     
           3 -0.28196714114753235     
           4  -1.4351304688732216E-002
           5  0.25143501077644587     
           6  0.12571148354568967     
           7 -0.27992043207113870     
           8  -8.0010118559916080E-003
           9 -0.35051048687632380     
          10   1.6182608704050825E-003
          11  -9.7291221772417613E-002
          12  -3.1279608316709701E-002
          13  0.30839487077337663     
          14  0.30838822169815222     
Sym=     4a
Ene=  -0.48473256859191510     
Spin= Alpha
Occup=     2.00000000
           1   7.7624230048524978E-002
           2  0.24906727489229599     
           3 -0.10713591320732715     
           4  0.35896405227727646     
           5   7.7653819789800294E-002
           6 -0.26545753982650305     
           7 -0.11137059991769332     
           8  0.34567547630927192     
           9 -0.36704154203801220     
          10  -8.1632313368448575E-003
          11 -0.15168582665947866     
          12  0.36566741001036901     
          13 -0.15111704478879850     
          14 -0.15114090614226749     
Sym=     5a
Ene=  -0.46762192319426971     
Spin= Alpha
Occup=     2.00000000
           1  -6.3104851827797778E-002
           2  -8.7236546969778186E-002
           3 -0.38461294067556245     
           4   3.1739251587813017E-002
           5   6.3119434283748707E-002
           6  -9.1708699419047759E-002
           7  0.38321507820030465     
           8  -3.6275260492790291E-002
           9   6.7611427606848666E-005
          10  0.53218012810000315     
          11   4.4786809157571356E-003
          12   1.3795398961257978E-002
          13  0.26247430715078002     
          14 -0.26240538367597538     
Sym=     6a
Ene=  -0.45976059886114407     
Spin= Alpha
Occup=     2.00000000
           1   8.5421939596055527E-002
           2 -0.32370390322749881     
           3  0.18817757829460158     
           4  0.29228400550395212     
           5   8.5407434544106542E-002
           6  0.30505887334977383     
           7  0.19323587177877835     
           8  0.30853105729165820     
           9  0.21623028543820355     
          10  -1.1778163770976641E-002
          11  0.31093060799803823     
          12  0.35218450788446337     
          13  0.14959020904672760     
          14  0.14968815654712361     
Sym=     7a
Ene=  -0.35207065082822248     
Spin= Alpha
Occup=     1.00000000
           1  -2.8065973979010082E-002
           2  0.23952119531350946     
           3 -0.36781734730811144     
           4  0.12622654695513863     
           5  -2.8055977907046680E-002
           6 -0.23958498231798633     
           7 -0.37179765768513917     
           8  0.11384368427624839     
           9  0.45748876292507334     
          10  -9.8083687737111013E-004
          11  0.62938411006494743     
          12 -0.16416610850981708     
          13   3.9019170456058884E-002
          14   3.9017370307579291E-002
Sym=     8a
Ene=  -0.30057708687742052     
Spin= Alpha
Occup=     1.00000000
           1  0.19599129990538691     
           2 -0.10463803000249403     
           3   6.5229796960619243E-002
           4  0.70643215309173690     
           5 -0.19602828305987674     
           6  -6.6961714691497976E-002
           7  -6.6641613614621356E-002
           8 -0.71086781378949127     
           9  -4.1523136183343765E-006
          10   9.9725315116075117E-002
          11   8.2343688230049577E-004
          12   2.5921859578505809E-003
          13 -0.10694639676662829     
          14  0.10696502175818040     
Sym=     9a
Ene=  -0.22510010862323743     
Spin= Alpha
Occup=     0.00000000
           1  0.14930750725333441     
           2 -0.12084415541355119     
           3   8.7603308013909933E-002
           4  0.45027823594224342     
           5  0.14932617287044223     
           6   9.5967131292203009E-002
           7   8.9373189595584601E-002
           8  0.45584408396470322     
           9   1.0847136421137602E-002
          10   2.3864464096157761E-002
          11 -0.19989232441053442     
          12 -0.85949176146588768     
          13 -0.10784356963692650     
          14 -0.10785785922262808     
Sym=    10a
Ene=   -7.9969749105895632E-002
Spin= Alpha
Occup=     0.00000000
           1  0.37038988320615596     
           2  0.57298987078435637     
           3 -0.52070082087057246     
           4   5.7630901906504474E-002
           5 -0.37039141357241745     
           6  0.56649373667268699     
           7  0.53015198843891820     
           8  -2.8168035682712110E-002
           9  -2.8427365488477838E-006
          10 -0.35947669286908251     
          11  -2.9806128270944273E-003
          12  -9.2991977128949257E-003
          13 -0.17285699752823089     
          14  0.17286123491579383     
Sym=    11a
Ene=   0.11017838945351396     
Spin= Alpha
Occup=     0.00000000
           1 -0.70235384500972398     
           2  0.13448218039937951     
           3 -0.10855857316168473     
           4  0.29873058328696872     
           5  0.70192458544258085     
           6  0.14774607907584172     
           7  0.11096818611849221     
           8 -0.29133412052494190     
           9   8.0968703661133879E-005
          10 -0.72676491499324480     
          11  -6.1582447104537516E-003
          12  -1.8776948954238745E-002
          13  0.55032267050707440     
          14 -0.54989931272916692     
Sym=    12a
Ene=   0.16230276970943053     
Spin= Alpha
Occup=     0.00000000
           1 -0.70968737469584398     
           2  0.26640183846712090     
           3  0.11290471358269191     
           4  0.24399836955824306     
           5 -0.71011165546958055     
           6 -0.28055506712835199     
           7  0.10827838262753160     
           8  0.23010426381877844     
           9  0.27154850664569707     
          10   4.6021877463833438E-003
          11 -0.43316066527640351     
          12  -3.0501268565353117E-002
          13  0.72176880977168301     
          14  0.72209394612752620     
Sym=    13a
Ene=   0.48440407898262799     
Spin= Alpha
Occup=     0.00000000
           1  0.15641991100878042     
           2  0.76882661078572390     
           3  0.58490282538714300     
           4   5.5570471122358620E-002
           5 -0.15641477617007965     
           6  0.78028286951232717     
           7 -0.57208951871467761     
           8  -1.5585703016406452E-002
           9   1.9091951758452504E-005
          10  0.59411062260478809     
          11   4.9084339553222694E-003
          12   1.5364782987858264E-002
          13  0.62674304616522414     
          14 -0.62677702576437344     
Sym=    14a
Ene=   0.68068410474451646     
Spin= Alpha
Occup=     0.00000000
           1 -0.21266608498392728     
           2 -0.50323927275062019     
           3 -0.64481127932880900     
           4   7.2947865721790364E-002
           5 -0.21267169461837832     
           6  0.50937833264074028     
           7 -0.63638619052577250     
           8   9.9087320239011456E-002
           9  0.96395596141934703     
          10  -1.1635375503573691E-003
          11 -0.84195758490825412     
          12  0.31459955847438548     
          13 -0.41674305274657253     
          14 -0.41670078416743539     
