5
 energy: -9.472113599555 gnorm: 0.192221062289 xtb: 6.2.2 (9d81278992624c895f80dd42a50cac0aa55982e2)
N        -1.32031000000000   -0.11274700000000    0.61508200000000
C        -0.47281900000000    0.76403000000000   -0.20699000000000
C         0.85358100000000    0.08390500000000   -0.46862100000000
C        -0.45393500000000   -0.67722700000000   -0.43064400000000
H         1.39348300000000   -0.05796100000000    0.49117400000000
5
 energy: -9.528849170734 gnorm: 0.158194503949 xtb: 6.2.2 (9d81278992624c895f80dd42a50cac0aa55982e2)
N        -1.46027178756136   -0.08895984906416    0.44997591072983
C        -0.42064898742324    0.76430997566577   -0.05860371367840
C         0.82529940662862    0.08787216963877   -0.49657254668706
C        -0.40118611177209   -0.72112136685453   -0.28911286036836
H         1.45680748012807   -0.04210092938585    0.39431421000399
5
 energy: -9.557635810841 gnorm: 0.048325192274 xtb: 6.2.2 (9d81278992624c895f80dd42a50cac0aa55982e2)
N        -1.40253846560672   -0.06748746720722    0.31648216346573
C        -0.41221886990166    0.77174405781328    0.01862653687419
C         0.74401589987510    0.08243497618621   -0.46839178215106
C        -0.39226145009066   -0.75138992967165   -0.21773325423822
H         1.46300288572393   -0.03530163712061    0.35101733604936
5
 energy: -9.567673976731 gnorm: 0.075053167252 xtb: 6.2.2 (9d81278992624c895f80dd42a50cac0aa55982e2)
N        -1.51024271298639   -0.05318770121132    0.21523712825121
C        -0.42009565395691    0.76573144376454    0.08117592943566
C         0.72356093855823    0.07479771163548   -0.42090871289875
C        -0.40004190733317   -0.76481635791833   -0.15633556132419
H         1.60681933571825   -0.02252509627037    0.28083221653607
5
 energy: -9.572732789866 gnorm: 0.053452176901 xtb: 6.2.2 (9d81278992624c895f80dd42a50cac0aa55982e2)
N        -1.52644541778025   -0.04660117441197    0.17139973253423
C        -0.43075169309081    0.75847972931364    0.10113379834432
C         0.72072499904600    0.06770004908055   -0.37547210566666
C        -0.41081185161298   -0.76422319977608   -0.13516816735238
H         1.64728396343805   -0.01535540420614    0.23810774214048
5
 energy: -9.577433566478 gnorm: 0.024218199462 xtb: 6.2.2 (9d81278992624c895f80dd42a50cac0aa55982e2)
N        -1.53229017377995   -0.03939462120706    0.12448280496286
C        -0.44412254940054    0.74727089410484    0.11899769018227
C         0.72719605749352    0.05591405732077   -0.29879524237758
C        -0.42436795327113   -0.75930665399767   -0.11476714644517
H         1.67358461895810   -0.00448367622088    0.17008289367762
5
 energy: -9.578420135256 gnorm: 0.030715568155 xtb: 6.2.2 (9d81278992624c895f80dd42a50cac0aa55982e2)
N        -1.56612962482515   -0.03097640916265    0.06735438533044
C        -0.45716390622371    0.74333262166145    0.14161751644964
C         0.71138173677495    0.04455323777450   -0.22698155528156
C        -0.43743499870751   -0.76274066987876   -0.09208091397506
H         1.74934679298142    0.00583121960545    0.11009156747655
5
 energy: -9.579253074621 gnorm: 0.014544831427 xtb: 6.2.2 (9d81278992624c895f80dd42a50cac0aa55982e2)
N        -1.55489151295234   -0.03267574528457    0.07922102011053
C        -0.45464050989323    0.74625331414707    0.13447367851411
C         0.71510801162596    0.04410811425019   -0.22392382959859
C        -0.43489937770780   -0.76329054564266   -0.09978832508919
H         1.72932338892741    0.00560486252996    0.11001845606314
5
 energy: -9.579737549210 gnorm: 0.010615131862 xtb: 6.2.2 (9d81278992624c895f80dd42a50cac0aa55982e2)
N        -1.55479214368723   -0.03199133858351    0.07475117050719
C        -0.45643144562636    0.74952644934588    0.13256326664521
C         0.71428973958498    0.03913654523166   -0.19198327116659
C        -0.43667408683185   -0.76588183346508   -0.10262099807018
H         1.73360793656046    0.00921017747105    0.08729083208436
5
 energy: -9.580083740805 gnorm: 0.006370990333 xtb: 6.2.2 (9d81278992624c895f80dd42a50cac0aa55982e2)
N        -1.56028417900988   -0.03064092507057    0.06529999356819
C        -0.46104216316087    0.75325306700310    0.13059234964228
C         0.71110993473221    0.03187068545998   -0.14560285362515
C        -0.44145373036767   -0.76897618859850   -0.10571205172225
H         1.75167013780621    0.01449336120598    0.05542356213693
5
 energy: -9.580182342989 gnorm: 0.004791712001 xtb: 6.2.2 (9d81278992624c895f80dd42a50cac0aa55982e2)
N        -1.56560195450232   -0.03001743086275    0.05979981377753
C        -0.46104778429162    0.75530604486001    0.13034655207001
C         0.71018976385994    0.02699017395004   -0.11515829995282
C        -0.44237176828764   -0.77093199979586   -0.10686308647915
H         1.75883174322164    0.01865321184856    0.03187602058443
5
 energy: -9.580220196559 gnorm: 0.006341648488 xtb: 6.2.2 (9d81278992624c895f80dd42a50cac0aa55982e2)
N        -1.56583861350737   -0.03048616395352    0.05969051212806
C        -0.46086079171238    0.75564452635172    0.12784479801458
C         0.71001298527082    0.02393928219289   -0.09881999020346
C        -0.44513280835962   -0.77069593666896   -0.11033301460254
H         1.76181922830855    0.02159829207786    0.02161869466336
5
 energy: -9.580670072136 gnorm: 0.037692912937 xtb: 6.2.2 (9d81278992624c895f80dd42a50cac0aa55982e2)
N        -1.56792404501868   -0.03407071952591    0.05584178080588
C        -0.45172553921847    0.75517672385023    0.12245428136568
C         0.70963856715893    0.00888627297071   -0.03079844878537
C        -0.46161627355377   -0.77018166636893   -0.12393999884271
H         1.77162729063199    0.04018938907391   -0.02355661454349
5
 energy: -9.582104611178 gnorm: 0.079557070342 xtb: 6.2.2 (9d81278992624c895f80dd42a50cac0aa55982e2)
N        -1.56872009323788   -0.04575758802680    0.05220669825925
C        -0.42001007455057    0.75416810552708    0.11177487052294
C         0.70869384805696   -0.02762691231217    0.11286684322780
C        -0.50730096127289   -0.77070061716218   -0.16104464046772
H         1.78733728100438    0.08991701197407   -0.11580277154228
5
 energy: -9.583289365726 gnorm: 0.080498248499 xtb: 6.2.2 (9d81278992624c895f80dd42a50cac0aa55982e2)
N        -1.54149575274577   -0.07246459995739    0.08872517994138
C        -0.34190736368434    0.74769777265437    0.09924652506908
C         0.71218808611261   -0.05266256756937    0.15322126990329
C        -0.56963115847502   -0.77272138377385   -0.21542189429747
H         1.74084618879253    0.15015077864624   -0.12577008061629
5
 energy: -9.586686621151 gnorm: 0.096965104584 xtb: 6.2.2 (9d81278992624c895f80dd42a50cac0aa55982e2)
N        -1.53537352896945   -0.06287361533778    0.08925379698134
C        -0.34279307482833    0.74582215448016    0.11422568289501
C         0.71445670180843    0.01315962747900   -0.01386268664415
C        -0.53152214995815   -0.79097593101242   -0.16305216273033
H         1.69523205194751    0.09486776439103   -0.02656363050186
5
 energy: -9.592506162645 gnorm: 0.059976775840 xtb: 6.2.2 (9d81278992624c895f80dd42a50cac0aa55982e2)
N        -1.55570137596271   -0.04699148513603    0.02645046897834
C        -0.37618369403433    0.75592804505456    0.14356532017800
C         0.70128606503664    0.03628195895228   -0.02685578287642
C        -0.52471933420764   -0.81372710343969   -0.11134209597785
H         1.75531833916804    0.06850858456888   -0.03181691030207
5
 energy: -9.595640306891 gnorm: 0.031124700176 xtb: 6.2.2 (9d81278992624c895f80dd42a50cac0aa55982e2)
N        -1.54950779384505   -0.05811276414236    0.02703788058986
C        -0.35700549111297    0.76295621664202    0.13402595632528
C         0.70331621643362    0.04525559713505   -0.01125492802520
C        -0.55948138537393   -0.82727069845555   -0.11658583142316
H         1.76267845389833    0.07717164882084   -0.03322207746679
5
 energy: -9.596771800336 gnorm: 0.008702235241 xtb: 6.2.2 (9d81278992624c895f80dd42a50cac0aa55982e2)
N        -1.54989000754489   -0.06712288187836    0.02477154564108
C        -0.35671869566819    0.77823984360668    0.11762510691818
C         0.71123840367018    0.06804637907814   -0.00038225473300
C        -0.57817928244206   -0.84315048422002   -0.10494562269766
H         1.77354958198496    0.06398714341355   -0.03706777512860
5
 energy: -9.596926676448 gnorm: 0.006159725301 xtb: 6.2.2 (9d81278992624c895f80dd42a50cac0aa55982e2)
N        -1.54955826601822   -0.06895504882591    0.02369927526892
C        -0.36064488579468    0.78446463496938    0.10798986677342
C         0.71221065596956    0.08424966306312    0.00039300601042
C        -0.57572805594354   -0.84897910813679   -0.09364112066922
H         1.77372055178688    0.04921985893020   -0.03844002738353
5
 energy: -9.596974693997 gnorm: 0.005824427026 xtb: 6.2.2 (9d81278992624c895f80dd42a50cac0aa55982e2)
N        -1.54821845816643   -0.07172537139174    0.02600300354411
C        -0.36374887937931    0.78832814963866    0.10223641796169
C         0.71340790118681    0.08982014006072   -0.00673939352025
C        -0.57309017035123   -0.84822743897830   -0.08845318862871
H         1.77164960671016    0.04180452067066   -0.03304583935684
5
 energy: -9.597013931842 gnorm: 0.004316987098 xtb: 6.2.2 (9d81278992624c895f80dd42a50cac0aa55982e2)
N        -1.54777848048128   -0.07383255117145    0.02539890447405
C        -0.36371710428164    0.79000535574755    0.10230078450802
C         0.71202706949044    0.09112527181948   -0.00522433511033
C        -0.57010944374513   -0.84618952251109   -0.08826724767785
H         1.76957795901761    0.03889144611552   -0.03420710619390
5
 energy: -9.597129306793 gnorm: 0.008182849425 xtb: 6.2.2 (9d81278992624c895f80dd42a50cac0aa55982e2)
N        -1.54759328280106   -0.08531261430632    0.02340952243046
C        -0.36579914255925    0.80009966934066    0.10304100176557
C         0.70666884164702    0.09684278932032   -0.00115208599128
C        -0.55550201042195   -0.83538232114319   -0.08744180619816
H         1.76222559413525    0.02375247678853   -0.03785563200660
5
 energy: -9.597194164887 gnorm: 0.008925113469 xtb: 6.2.2 (9d81278992624c895f80dd42a50cac0aa55982e2)
N        -1.54852670250429   -0.09454469364743    0.02219513700029
C        -0.36805591576501    0.80885191787876    0.10411136632481
C         0.70359723500408    0.09947690859479   -0.00038729015434
C        -0.54526651123992   -0.82684901506096   -0.08661231143896
H         1.75825189450514    0.01306488223484   -0.03930590173180
5
 energy: -9.597277827284 gnorm: 0.006716817104 xtb: 6.2.2 (9d81278992624c895f80dd42a50cac0aa55982e2)
N        -1.55071093787589   -0.10728819763258    0.02106229025956
C        -0.37043350614611    0.82146743250002    0.10586149459794
C         0.70032236779268    0.09977846891656   -0.00184530906678
C        -0.53352509038206   -0.81525586786635   -0.08543778862498
H         1.75434716661138    0.00129816408235   -0.03963968716575
5
 energy: -9.597350997688 gnorm: 0.004536663024 xtb: 6.2.2 (9d81278992624c895f80dd42a50cac0aa55982e2)
N        -1.55320443946725   -0.11638871421077    0.02044753202032
C        -0.37020242388847    0.83088052832930    0.10731094729466
C         0.69857398751811    0.09571149086853   -0.00449889272551
C        -0.52809444245304   -0.80720488745597   -0.08449237088516
H         1.75292731829065   -0.00299841753109   -0.03876621570431
5
 energy: -9.597413247636 gnorm: 0.005138718198 xtb: 6.2.2 (9d81278992624c895f80dd42a50cac0aa55982e2)
N        -1.55606389711939   -0.12342912304888    0.01996748036828
C        -0.36697597028368    0.83856724393129    0.10831288481416
C         0.69698652962932    0.08785671349193   -0.00666909481880
C        -0.52651941046169   -0.80122722009959   -0.08380480413314
H         1.75257274823545   -0.00176761427476   -0.03780546623050
5
 energy: -9.597439790498 gnorm: 0.003795659866 xtb: 6.2.2 (9d81278992624c895f80dd42a50cac0aa55982e2)
N        -1.55780820132902   -0.12693737306976    0.01948638348182
C        -0.36325082566736    0.84259146311248    0.10860189720094
C         0.69532366838427    0.08209231046662   -0.00666054232024
C        -0.52615687303352   -0.79842208092033   -0.08353447334773
H         1.75189223164563    0.00067568041099   -0.03789226501479
5
 energy: -9.597448113396 gnorm: 0.001310334109 xtb: 6.2.2 (9d81278992624c895f80dd42a50cac0aa55982e2)
N        -1.55836589341638   -0.12739490961352    0.01926031084874
C        -0.36067702418173    0.84328052234465    0.10851149737840
C         0.69443928875000    0.07973356017233   -0.00603994697952
C        -0.52679721543490   -0.79840864943452   -0.08355180674467
H         1.75140084428301    0.00278947653106   -0.03817905450296
5
 energy: -9.597448998580 gnorm: 0.000557067641 xtb: 6.2.2 (9d81278992624c895f80dd42a50cac0aa55982e2)
N        -1.55819803460790   -0.12727569968112    0.01919463611356
C        -0.35988134196264    0.84327245018033    0.10845012294150
C         0.69401500655508    0.07990457866713   -0.00566802183864
C        -0.52683101632510   -0.79889661537444   -0.08361695741833
H         1.75089538634055    0.00299528620810   -0.03835877979810
