$hessian                                                                        
        0.5808416885  -0.0482086930   0.1076030808  -0.3752696190   0.0701974937
       -0.1324091665  -0.1026034283  -0.1098383541  -0.0085798509  -0.0671680194
        0.0815061862   0.0412136491  -0.0358006218   0.0063433673  -0.0078277125
       -0.0482086930   0.3860326212   0.0665866401   0.0731876103  -0.0520301184
        0.0313757025  -0.1186811828  -0.1778858631  -0.0026654592   0.0906529601
       -0.1658873993  -0.0930232808   0.0030493053   0.0097707595  -0.0022736025
        0.1076030808   0.0665866401   0.1512057462  -0.1422363746   0.0322074869
       -0.1006655778  -0.0131909010  -0.0174331412  -0.0113030107   0.0446714234
       -0.0781399705  -0.0582634723   0.0031527714  -0.0032210153   0.0190263146
       -0.3752696190   0.0731876103  -0.1422363746   0.6565758296  -0.0481542597
       -0.0185299925  -0.0357498012  -0.0034147303  -0.0090220809  -0.0316306804
        0.0127114315  -0.0014087566  -0.2139257289  -0.0343300518   0.1711972046
        0.0701974937  -0.0520301184   0.0322074869  -0.0481542597   0.0719565332
       -0.0599171892  -0.0112060345   0.0076613648  -0.0145277537   0.0180376945
       -0.0055324228   0.0124220080  -0.0288748940  -0.0220553569   0.0298154481
       -0.1324091665   0.0313757025  -0.1006655778  -0.0185299925  -0.0599171892
        0.2524586273  -0.0056796188  -0.0008925302   0.0015003153   0.0034722809
       -0.0019765254   0.0105347733   0.1531464970   0.0314105424  -0.1638281381
       -0.1026034283  -0.1186811828  -0.0131909010  -0.0357498012  -0.0112060345
       -0.0056796188   0.1375628998   0.1254183611   0.0186868178   0.0048017117
        0.0063798356   0.0024240931  -0.0040113820  -0.0019109794  -0.0022403911
       -0.1098383541  -0.1778858631  -0.0174331412  -0.0034147303   0.0076613648
       -0.0008925302   0.1254183611   0.2004570536   0.0238342316  -0.0120275287
       -0.0269678277  -0.0044070247  -0.0001377479  -0.0032647276  -0.0011015356
       -0.0085798509  -0.0026654592  -0.0113030107  -0.0090220809  -0.0145277537
        0.0015003153   0.0186868178   0.0238342316   0.0137944024  -0.0038188753
       -0.0116846587  -0.0029973372   0.0027339891   0.0050436401  -0.0009943698
       -0.0671680194   0.0906529601   0.0446714234  -0.0316306804   0.0180376945
        0.0034722809   0.0048017117  -0.0120275287  -0.0038188753   0.0976454448
       -0.0997315636  -0.0437634573  -0.0036484567   0.0030684377  -0.0005613718
        0.0815061862  -0.1658873993  -0.0781399705   0.0127114315  -0.0055324228
       -0.0019765254   0.0063798356  -0.0269678277  -0.0116846587  -0.0997315636
        0.1994118833   0.0903467078  -0.0008658897  -0.0010242336   0.0014544468
        0.0412136491  -0.0930232808  -0.0582634723  -0.0014087566   0.0124220080
        0.0105347733   0.0024240931  -0.0044070247  -0.0029973372  -0.0437634573
        0.0903467078   0.0542857817   0.0015344717  -0.0053384103  -0.0035597456
       -0.0358006218   0.0030493053   0.0031527714  -0.2139257289  -0.0288748940
        0.1531464970  -0.0040113820  -0.0001377479   0.0027339891  -0.0036484567
       -0.0008658897   0.0015344717   0.2573861894   0.0268292263  -0.1605677293
        0.0063433673   0.0097707595  -0.0032210153  -0.0343300518  -0.0220553569
        0.0314105424  -0.0019109794  -0.0032647276   0.0050436401   0.0030684377
       -0.0010242336  -0.0053384103   0.0268292263   0.0165735585  -0.0278947568
       -0.0078277125  -0.0022736025   0.0190263146   0.1711972046   0.0298154481
       -0.1638281381  -0.0022403911  -0.0011015356  -0.0009943698  -0.0005613718
        0.0014544468  -0.0035597456  -0.1605677293  -0.0278947568   0.1493559388
