5
 energy: -6.411596360663 gnorm: 0.000890787069 xtb: 6.2.2 (9d81278992624c895f80dd42a50cac0aa55982e2)
C        -0.41101652884324    0.07783608532435   -0.13657534241670
N         0.80793630274022   -0.17283897918413    0.33426988730982
H        -1.07766235763574   -0.78003471210494   -0.21671238180989
H        -0.92657069450849    0.93109721379754    0.30325071021242
H         1.60731427825248   -0.05605860783805   -0.28423287330089
