[Molden Format]
[Title]
[Atoms] AU
C      1     6 -0.77670860014513E+00  0.14708887022913E+00 -0.25808996859899E+00
N      2     7  0.15267781966674E+01 -0.32661830401429E+00  0.63167848011803E+00
H      3     1 -0.20364865218051E+01 -0.14740518368173E+01 -0.40952701144015E+00
H      4     1 -0.17509646852710E+01  0.17595185662315E+01  0.57306073623123E+00
H      5     1  0.30373835002896E+01 -0.10593540591303E+00 -0.53712223632001E+00
[GTO]
           1 0
 s           4   1.0000000000000000     
   51.049363095579913      -0.16312063210127389     
   8.7911227406887544      -0.19911024581000730     
  0.70640422258929825       0.31882047753655751     
  0.26922813413411617       0.12706504184240380     
 p           4   1.0000000000000000     
   5.8263656140800002       0.73716451545209605     
   1.5106896018720002       0.68216371614850257     
  0.53256483288000001       0.35783053929253711     
  0.21202323690600003        5.3983030275847881E-002

           2 0
 s           4   1.0000000000000000     
   63.594024466941008      -0.19234388414721629     
   10.951417231523665      -0.23478107924953728     
  0.87999310257376984       0.37593753901700888     
  0.33538715296521110       0.14982889271862770     
 p           4   1.0000000000000000     
   7.2965040481495080       0.97658666315667420     
   1.8918745450712575       0.90372226730345739     
  0.66694432110824120       0.47404958461536373     
  0.26552202674130870        7.1516067715011844E-002

           3 0
 s           3   1.0000000000000000     
   3.3702276975336001       0.27359110588908298     
  0.61389118221497996       0.26460540653860526     
  0.16614291148415999        8.2465947534082318E-002

           4 0
 s           3   1.0000000000000000     
   3.3702276975336001       0.27359110588908298     
  0.61389118221497996       0.26460540653860526     
  0.16614291148415999        8.2465947534082318E-002

           5 0
 s           3   1.0000000000000000     
   3.3702276975336001       0.27359110588908298     
  0.61389118221497996       0.26460540653860526     
  0.16614291148415999        8.2465947534082318E-002

[MO]
Sym=     1a
Ene=  -0.62023394123485365     
Spin= Alpha
Occup=     2.00000000
           1  0.41446091710330762     
           2  0.17627302579813570     
           3  -3.4300398958286113E-002
           4   6.1586571796865865E-002
           5  0.54357640092602633     
           6 -0.16263961501162025     
           7   4.9540691545475114E-002
           8 -0.11592894658410971     
           9  0.10157256036581276     
          10  0.10152121452715271     
          11  0.14131067060796809     
Sym=     2a
Ene=  -0.56246878027808012     
Spin= Alpha
Occup=     2.00000000
           1  0.36994971020193518     
           2 -0.18827674996488947     
           3   4.4270020766957107E-003
           4   4.0121811739883821E-002
           5 -0.36757236586710629     
           6 -0.29851828291432653     
           7  -1.6116533818206153E-003
           8   9.2332087926662115E-002
           9  0.23588131598062970     
          10  0.23580700701501894     
          11 -0.30402954689751926     
Sym=     3a
Ene=  -0.49878872666028123     
Spin= Alpha
Occup=     2.00000000
           1  -7.2252325148483001E-004
           2   4.5117757174370929E-002
           3  0.48554632202829406     
           4  0.14888794488609272     
           5   8.2136738200407284E-004
           6   3.4488908920646093E-002
           7  0.42274700845874374     
           8  0.12951704082684298     
           9 -0.33398970461002525     
          10  0.33123053418739007     
          11  -2.1412805682514417E-003
Sym=     4a
Ene=  -0.49611817963421512     
Spin= Alpha
Occup=     2.00000000
           1 -0.12427347798778998     
           2  0.36184861651788530     
           3  -9.6419199170122927E-002
           4  0.20144649584202265     
           5  0.11829633118360625     
           6 -0.48149731811789026     
           7  -1.5275685033016627E-002
           8  0.18126881599463721     
           9 -0.23344866458908661     
          10 -0.23750617127612927     
          11 -0.34773012986422580     
Sym=     5a
Ene=  -0.44633216405214693     
Spin= Alpha
Occup=     2.00000000
           1 -0.16066419527229245     
           2 -0.26910951176212178     
           3  -8.2228910246677195E-002
           4  0.34881849733943204     
           5  0.40327331527650251     
           6  0.17970030651221722     
           7 -0.20781138393562790     
           8  0.63178429254383384     
           9  0.10690004146183027     
          10  0.10689174252928504     
          11  -2.0263653726946308E-002
Sym=     6a
Ene=  -0.36963761218120789     
Spin= Alpha
Occup=     1.00000000
           1  -4.6944338915190783E-005
           2   1.8467455381754198E-002
           3  0.20886115733047542     
           4   6.3708293629809551E-002
           5  -2.4758693290357004E-004
           6  -7.4943318816873689E-002
           7 -0.84606168078870692     
           8 -0.25701766290363004     
           9 -0.33033539322286604     
          10  0.33041506204603749     
          11   1.6158448024963017E-004
Sym=     7a
Ene=  -0.28542930731403576     
Spin= Alpha
Occup=     1.00000000
           1 -0.24945282337849164     
           2  -9.9692944372145820E-002
           3 -0.23833727212822314     
           4  0.81322067436591772     
           5 -0.27981075488500395     
           6  -6.6649440312473440E-002
           7  0.14566113846172796     
           8 -0.45900870941424071     
           9   7.4897369593220783E-002
          10   7.4748472592726253E-002
          11  0.23860375485298838     
Sym=     8a
Ene=    9.7236382424579437E-002
Spin= Alpha
Occup=     0.00000000
           1 -0.65076624084263324     
           2  -1.0398645648759422E-003
           3   3.3660004053276474E-002
           4 -0.11312277786610898     
           5  0.71585351443091905     
           6  0.24550610010419727     
           7  0.14183997920788649     
           8 -0.53884696168685109     
           9  0.38646104197389169     
          10  0.38758604576429229     
          11 -0.91490025881315462     
Sym=     9a
Ene=   0.20163442387755656     
Spin= Alpha
Occup=     0.00000000
           1 -0.79674622485883251     
           2  0.66250989218685585     
           3   1.0877818239157896E-002
           4 -0.24098433753804716     
           5 -0.38459104086410473     
           6 -0.31462142125153258     
           7  -7.1156866233439267E-002
           8  0.32905373298830543     
           9  0.65810971016353781     
          10  0.66333892308209497     
          11  0.51051911384911552     
Sym=    10a
Ene=   0.24807825286016294     
Spin= Alpha
Occup=     0.00000000
           1   3.5599660074810981E-003
           2  -9.5017050582567195E-002
           3  -1.0559050015556752     
           4 -0.31971228227579135     
           5   5.5604388945465716E-004
           6   2.0835842144311556E-002
           7  0.21997205070090717     
           8   6.6159417819759425E-002
           9 -0.82485921636827420     
          10  0.81992336879788918     
          11  -1.2817265436767433E-003
Sym=    11a
Ene=   0.35677026353549884     
Spin= Alpha
Occup=     0.00000000
           1  0.51494043743423834     
           2  0.90463421857569104     
           3 -0.17770094271939468     
           4  0.32418514747768046     
           5 -0.42115158380704565     
           6  0.98310603517700923     
           7 -0.12397942609617048     
           8  0.12143883419351434     
           9  0.12590436969674504     
          10  0.12493627584266041     
          11 -0.43441665415710201     
