      -----------------------------------------------------------      
     |                   =====================                   |     
     |                           x T B                           |     
     |                   =====================                   |     
     |                         S. Grimme                         |     
     |          Mulliken Center for Theoretical Chemistry        |     
     |                    University of Bonn                     |     
      -----------------------------------------------------------      

   * xtb version 6.2.2 (9d81278992624c895f80dd42a50cac0aa55982e2) compiled by '@Darwin' on 04/03/2020

   xtb is free software: you can redistribute it and/or modify it under
   the terms of the GNU Lesser General Public License as published by
   the Free Software Foundation, either version 3 of the License, or
   (at your option) any later version.
   
   xtb is distributed in the hope that it will be useful,
   but WITHOUT ANY WARRANTY; without even the implied warranty of
   MERCHANTABILITY or FITNESS FOR A PARTICULAR PURPOSE.  See the
   GNU Lesser General Public License for more details.
   
   Cite this work as:
   * S. Grimme, C. Bannwarth, P. Shushkov, J. Chem. Theory Comput., 2017,
     13, 1989-2009. DOI: 10.1021/acs.jctc.7b00118
   * C. Bannwarth, S. Ehlert and S. Grimme., J. Chem. Theory Comput., 2019,
     15, 1652-1671. DOI: 10.1021/acs.jctc.8b01176
   * P. Pracht, E. Caldeweyher, S. Ehlert, S. Grimme, ChemRxiv, 2019, preprint.
     DOI: 10.26434/chemrxiv.8326202.v1
   
   for DFT-D4:
   * E. Caldeweyher, C. Bannwarth and S. Grimme, J. Chem. Phys., 2017,
     147, 034112. DOI: 10.1063/1.4993215
   * E. Caldeweyher, S. Ehlert, A. Hansen, H. Neugebauer, S. Spicher,
     C. Bannwarth and S. Grimme, J. Chem. Phys., 2019, 150, 154122.
     DOI: 10.1063/1.5090222
   
   for sTDA-xTB:
   * S. Grimme and C. Bannwarth, J. Chem. Phys., 2016, 145, 054103.
     DOI: 10.1063/1.4959605
   
   in the mass-spec context:
   * V. Asgeirsson, C. Bauer and S. Grimme, Chem. Sci., 2017, 8, 4879.
     DOI: 10.1039/c7sc00601b
   
   for metadynamics refer to:
   * S. Grimme, J. Chem. Theory Comput., 2019, 155, 2847-2862
     DOI: 10.1021/acs.jctc.9b00143
   
   with help from (in alphabetical order)
   C. Bannwarth, F. Bohle, G. Brandenburg, E. Caldeweyher, M. Checinski,
   S. Dohm, S. Ehlert, S. Ehrlich, F. März, H. Neugebauer, J. Pisarek,
   P. Pracht, P. Shushkov, and S. Spicher.
   
 * started run on 2020/05/12 at 11:44:28.248     

           -------------------------------------------------
          |                Calculation Setup                |
           -------------------------------------------------

          program call               : xtb --input H3C1N1_1_S_2.input H3C1N1_1_S_2.xyz --ohess --molden --namespace H3C1N1_1_S_2 output.out
          calculation namespace      : H3C1N1_1_S_2
          coordinate file            : H3C1N1_1_S_2.xyz
          number of atoms            :                     5
          number of electrons        :                    12
          charge                     :                     0
          spin                       :                   1.0
          first test random number   :      0.99108553745098

   ID    Z sym.   atoms
    1    6 C      1
    2    7 N      2
    3    1 H      3-5

           -------------------------------------------------
          |                 G F N 2 - x T B                 |
           -------------------------------------------------

        Reference                      10.1021/acs.jctc.8b01176
      * Hamiltonian:
        H0-scaling (s, p, d)           1.850000    2.230000    2.230000
        zeta-weighting                 0.500000
      * Dispersion:
        s8                             2.700000
        a1                             0.520000
        a2                             5.000000
        s9                             5.000000
      * Repulsion:
        kExp                           1.500000    1.000000
        rExp                           1.000000
      * Coulomb:
        alpha                          2.000000
        third order                    shell-resolved
        anisotropic                    true
        a3                             3.000000
        a5                             4.000000
        cn-shift                       1.200000
        cn-exp                         4.000000
        max-rad                        5.000000


          ...................................................
          :                      SETUP                      :
          :.................................................:
          :  # basis functions                  11          :
          :  # atomic orbitals                  11          :
          :  # shells                            7          :
          :  # electrons                        12          :
          :  max. iterations                   250          :
          :  Hamiltonian                  GFN2-xTB          :
          :  restarted?                      false          :
          :  GBSA solvation                  false          :
          :  PC potential                    false          :
          :  electronic temp.          300.0000000     K    :
          :  accuracy                    1.0000000          :
          :  -> integral cutoff          0.2500000E+02      :
          :  -> integral neglect         0.1000000E-07      :
          :  -> SCF convergence          0.1000000E-05 Eh   :
          :  -> wf. convergence          0.1000000E-03 e    :
          :  Broyden damping             0.4000000          :
          ...................................................

 iter      E             dE          RMSdq      gap      omega  full diag
   1     -6.4095216 -0.640952E+01  0.409E+00   11.18       0.0  T
   2     -6.4288021 -0.192805E-01  0.279E+00   10.37       1.0  T
   3     -6.4405751 -0.117730E-01  0.153E+00   10.91       1.0  T
   4     -6.4416093 -0.103419E-02  0.236E-01   10.78       1.0  T
   5     -6.4416894 -0.801396E-04  0.126E-01   10.76       1.0  T
   6     -6.4416948 -0.531838E-05  0.543E-02   10.77       1.0  T
   7     -6.4416957 -0.995323E-06  0.133E-02   10.77       3.4  T
   8     -6.4416963 -0.571900E-06  0.431E-03   10.77      10.4  T
   9     -6.4416964 -0.100250E-06  0.310E-04   10.77     144.3  T
  10     -6.4416964 -0.631344E-10  0.151E-04   10.77     296.5  T

   *** convergence criteria satisfied after 10 iterations ***

         #    Occupation            Energy/Eh            Energy/eV
      -------------------------------------------------------------
         1        2.0000           -0.6190703             -16.8458
         2        2.0000           -0.5614964             -15.2791
         3        2.0000           -0.5106429             -13.8953
         4        2.0000           -0.5018143             -13.6551
         5        2.0000           -0.4242679             -11.5449
         6        1.0000           -0.3848486             -10.4723
         7        1.0000           -0.3390001              -9.2247 (HOMO)
         8                          0.0568384               1.5467 (LUMO)
         9                          0.1035066               2.8166
        10                          0.1647879               4.4841
        11                          0.1817686               4.9462
      -------------------------------------------------------------
                  HL-Gap            0.3958384 Eh           10.7713 eV
             Fermi-level           -0.2728195 Eh           -7.4238 eV

 transition dipole moment (au) for excitation:           6           7
     X       Y       Z   
   0.0014   0.0161   0.0049  total (au/Debye):    0.017   0.043
 dE (eV)             :    1.248
 oscillator strength :  0.12298E-04

 SCC (total)                   0 d,  0 h,  0 min,  0.002 sec
 SCC setup                      ...        0 min,  0.000 sec (  3.657%)
 Dispersion                     ...        0 min,  0.000 sec (  0.529%)
 integral evaluation            ...        0 min,  0.000 sec ( 20.403%)
 zeroth order Hamiltonian       ...        0 min,  0.000 sec (  0.529%)
 iterations                     ...        0 min,  0.001 sec ( 36.239%)
 molecular gradient             ...        0 min,  0.000 sec ( 20.874%)
 printout                       ...        0 min,  0.000 sec ( 17.263%)

         :::::::::::::::::::::::::::::::::::::::::::::::::::::
         ::                     SUMMARY                     ::
         :::::::::::::::::::::::::::::::::::::::::::::::::::::
         :: total energy              -6.388215077048 Eh    ::
         :: gradient norm              0.110076451557 Eh/a0 ::
         :: HOMO-LUMO gap             10.771311810174 eV    ::
         ::.................................................::
         :: SCC energy                -6.441696418768 Eh    ::
         :: -> isotropic ES            0.007550266340 Eh    ::
         :: -> anisotropic ES          0.002819363680 Eh    ::
         :: -> anisotropic XC          0.011728149287 Eh    ::
         :: -> dispersion             -0.000995843639 Eh    ::
         :: repulsion energy           0.053481320409 Eh    ::
         :: add. restraining           0.000000000000 Eh    ::
         :::::::::::::::::::::::::::::::::::::::::::::::::::::

      ----------------------------------------------------------- 
     |                   =====================                   |
     |                        A N C O P T                        |
     |                   =====================                   |
     |               Approximate Normal Coordinate               |
     |                Rational Function Optimizer                |
      ----------------------------------------------------------- 

          ...................................................
          :                      SETUP                      :
          :.................................................:
          :   optimization level            normal          :
          :   max. optcycles                   200          :
          :   ANC micro-cycles                  20          :
          :   degrees of freedom                 9          :
          :.................................................:
          :   RF solver                   davidson          :
          :   write xtbopt.log                true          :
          :   linear?                        false          :
          :   energy convergence         0.5000000E-05 Eh   :
          :   grad. convergence          0.1000000E-02 Eh/α :
          :   maximium RF displ.         1.0000000          :
          :   Hlow (freq-cutoff)         0.1000000E-01      :
          :   Hmax (freq-cutoff)         5.0000000          :
          :   S6 in model hess.         20.0000000          :
          ...................................................

generating ANC from model Hessian ...
Using Lindh-Hessian (1995)
 Shifting diagonal of input Hessian by    0.0000000000000000     
 Lowest  eigenvalues of input Hessian
   -0.000000   -0.000000   -0.000000   -0.000000    0.000000    0.000000
    0.016171    0.043354    0.099456    0.104597    0.193755    0.566747
    0.953037    0.985660    1.229425
 Highest eigenvalues
    0.104597    0.193755    0.566747    0.953037    0.985660    1.229425


........................................................................
.............................. CYCLE    1 ..............................
........................................................................
   1     -6.4416964 -0.644170E+01  0.577E-05   10.77       0.0  T
   2     -6.4416964 -0.582467E-11  0.425E-05   10.77    1053.3  T
   3     -6.4416964 -0.106288E-10  0.890E-06   10.77    5025.4  T
     SCC iter.                  ...        0 min,  0.000 sec
     gradient                   ...        0 min,  0.000 sec
 * total energy  :    -6.3882151 Eh     change       -0.4161656E-08 Eh
   gradient norm :     0.1100763 Eh/α   predicted     0.0000000E+00 (-100.00%)
   displ. norm   :     0.2830601 α      lambda       -0.1896936E-01
   maximum displ.:     0.2189201 α      in ANC's #2, #6, #3, ...

........................................................................
.............................. CYCLE    2 ..............................
........................................................................
   1     -6.4664810 -0.646648E+01  0.888E-01   11.30       0.0  T
   2     -6.4666454 -0.164345E-03  0.520E-01   11.19       1.0  T
   3     -6.4665168  0.128548E-03  0.304E-01   11.28       1.0  T
   4     -6.4667663 -0.249413E-03  0.182E-02   11.22       2.5  T
   5     -6.4667665 -0.249477E-06  0.735E-03   11.22       6.1  T
   6     -6.4667665  0.512146E-08  0.148E-03   11.22      30.1  T
   7     -6.4667665 -0.758113E-08  0.263E-04   11.22     170.1  T
   8     -6.4667665 -0.624798E-10  0.438E-05   11.22    1020.3  T
     SCC iter.                  ...        0 min,  0.000 sec
     gradient                   ...        0 min,  0.000 sec
 * total energy  :    -6.4021057 Eh     change       -0.1389061E-01 Eh
   gradient norm :     0.0588557 Eh/α   predicted    -0.1024462E-01 ( -26.25%)
   displ. norm   :     0.2672919 α      lambda       -0.1095618E-01
   maximum displ.:     0.2016733 α      in ANC's #2, #6, #9, ...

........................................................................
.............................. CYCLE    3 ..............................
........................................................................
   1     -6.4902808 -0.649028E+01  0.771E-01   10.79       0.0  T
   2     -6.4903291 -0.483135E-04  0.456E-01   10.75       1.0  T
   3     -6.4902653  0.638266E-04  0.153E-01   10.82       1.0  T
   4     -6.4903527 -0.873871E-04  0.209E-02   10.78       2.1  T
   5     -6.4903528 -0.416900E-07  0.306E-03   10.78      14.6  T
   6     -6.4903528 -0.279805E-07  0.123E-03   10.78      36.5  T
   7     -6.4903528 -0.304614E-08  0.135E-04   10.78     332.2  T
   8     -6.4903528 -0.120099E-10  0.307E-05   10.78    1456.5  T
     SCC iter.                  ...        0 min,  0.000 sec
     gradient                   ...        0 min,  0.000 sec
 * total energy  :    -6.4069007 Eh     change       -0.4795048E-02 Eh
   gradient norm :     0.0426146 Eh/α   predicted    -0.5869472E-02 (  22.41%)
   displ. norm   :     0.1613271 α      lambda       -0.2381799E-02
   maximum displ.:     0.1580560 α      in ANC's #2, #9, #3, ...

........................................................................
.............................. CYCLE    4 ..............................
........................................................................
   1     -6.4830337 -0.648303E+01  0.310E-01   10.35       0.0  T
   2     -6.4830438 -0.101653E-04  0.172E-01   10.34       1.0  T
   3     -6.4830371  0.674544E-05  0.554E-02   10.35       1.0  T
   4     -6.4830483 -0.111741E-04  0.113E-02   10.34       4.0  T
   5     -6.4830483 -0.232699E-07  0.311E-03   10.34      14.4  T
   6     -6.4830483 -0.168755E-08  0.567E-04   10.34      78.8  T
   7     -6.4830483 -0.152227E-09  0.110E-04   10.34     405.7  T
     SCC iter.                  ...        0 min,  0.000 sec
     gradient                   ...        0 min,  0.000 sec
 * total energy  :    -6.4079753 Eh     change       -0.1074533E-02 Eh
   gradient norm :     0.0203996 Eh/α   predicted    -0.1221892E-02 (  13.71%)
   displ. norm   :     0.0308582 α      lambda       -0.5928116E-03
   maximum displ.:     0.0214363 α      in ANC's #6, #9, #2, ...

........................................................................
.............................. CYCLE    5 ..............................
........................................................................
   1     -6.4869395 -0.648694E+01  0.899E-02   10.70       0.0  T
   2     -6.4869464 -0.683695E-05  0.450E-02   10.69       1.0  T
   3     -6.4869467 -0.346473E-06  0.151E-02   10.68       3.0  T
   4     -6.4869468 -0.311171E-07  0.212E-03   10.68      21.1  T
   5     -6.4869468  0.419091E-09  0.658E-04   10.68      68.0  T
   6     -6.4869468 -0.155203E-08  0.167E-04   10.68     267.3  T
     SCC iter.                  ...        0 min,  0.000 sec
     gradient                   ...        0 min,  0.000 sec
 * total energy  :    -6.4083642 Eh     change       -0.3889039E-03 Eh
   gradient norm :     0.0077426 Eh/α   predicted    -0.2966894E-03 ( -23.71%)
   displ. norm   :     0.0748283 α      lambda       -0.4046245E-03
   maximum displ.:     0.0556474 α      in ANC's #2, #6, #3, ...

........................................................................
.............................. CYCLE    6 ..............................
........................................................................
   1     -6.4899175 -0.648992E+01  0.222E-01   10.65       0.0  T
   2     -6.4899232 -0.567598E-05  0.130E-01   10.63       1.0  T
   3     -6.4899181  0.511131E-05  0.441E-02   10.64       1.0  T
   4     -6.4899251 -0.703328E-05  0.641E-03   10.63       7.0  T
   5     -6.4899251 -0.198575E-07  0.242E-03   10.64      18.4  T
   6     -6.4899251 -0.531582E-09  0.171E-04   10.64     261.9  T
   7     -6.4899251 -0.467626E-11  0.673E-05   10.64     664.4  T
     SCC iter.                  ...        0 min,  0.000 sec
     gradient                   ...        0 min,  0.000 sec
 * total energy  :    -6.4086324 Eh     change       -0.2682388E-03 Eh
   gradient norm :     0.0046536 Eh/α   predicted    -0.2034440E-03 ( -24.16%)
   displ. norm   :     0.0639764 α      lambda       -0.1680162E-03
   maximum displ.:     0.0476131 α      in ANC's #2, #3, #6, ...

........................................................................
.............................. CYCLE    7 ..............................
........................................................................
   1     -6.4902815 -0.649028E+01  0.202E-01   10.49       0.0  T
   2     -6.4902853 -0.378193E-05  0.118E-01   10.48       1.0  T
   3     -6.4902805  0.475440E-05  0.434E-02   10.49       1.0  T
   4     -6.4902870 -0.648580E-05  0.459E-03   10.48       9.7  T
   5     -6.4902870 -0.328701E-08  0.133E-03   10.48      33.7  T
   6     -6.4902870 -0.437733E-09  0.105E-04   10.48     425.6  T
   7     -6.4902870 -0.527578E-12  0.546E-05   10.48     818.6  T
     SCC iter.                  ...        0 min,  0.000 sec
     gradient                   ...        0 min,  0.000 sec
 * total energy  :    -6.4087607 Eh     change       -0.1282914E-03 Eh
   gradient norm :     0.0059525 Eh/α   predicted    -0.8435183E-04 ( -34.25%)
   displ. norm   :     0.0979531 α      lambda       -0.2117911E-03
   maximum displ.:     0.0679009 α      in ANC's #2, #6, #3, ...

........................................................................
.............................. CYCLE    8 ..............................
........................................................................
   1     -6.4900975 -0.649010E+01  0.350E-01   10.25       0.0  T
   2     -6.4901071 -0.963723E-05  0.205E-01   10.23       1.0  T
   3     -6.4900946  0.125172E-04  0.698E-02   10.24       1.0  T
   4     -6.4901116 -0.169441E-04  0.793E-03   10.23       5.6  T
   5     -6.4901116 -0.750448E-08  0.132E-03   10.23      33.9  T
   6     -6.4901116 -0.956759E-09  0.201E-04   10.23     222.0  T
   7     -6.4901116 -0.102505E-10  0.878E-05   10.23     509.6  T
     SCC iter.                  ...        0 min,  0.000 sec
     gradient                   ...        0 min,  0.000 sec
 * total energy  :    -6.4089431 Eh     change       -0.1823511E-03 Eh
   gradient norm :     0.0068622 Eh/α   predicted    -0.1069117E-03 ( -41.37%)
   displ. norm   :     0.4207416 α      lambda       -0.8797653E-03
   maximum displ.:     0.2781791 α      in ANC's #2, #6, #3, ...

........................................................................
.............................. CYCLE    9 ..............................
........................................................................
   1     -6.4798091 -0.647981E+01  0.156E+00    9.48       0.0  T
   2     -6.4798696 -0.604837E-04  0.929E-01    9.48       1.0  T
   3     -6.4798525  0.170766E-04  0.100E-01    9.50       1.0  T
   4     -6.4798918 -0.392693E-04  0.365E-02    9.48       1.2  T
   5     -6.4798928 -0.101794E-05  0.106E-02    9.48       4.2  T
   6     -6.4798928 -0.259998E-07  0.567E-04    9.49      78.9  T
   7     -6.4798928 -0.229122E-09  0.302E-04    9.49     148.3  T
     SCC iter.                  ...        0 min,  0.000 sec
     gradient                   ...        0 min,  0.000 sec
 * total energy  :    -6.4096412 Eh     change       -0.6981731E-03 Eh
   gradient norm :     0.0275363 Eh/α   predicted    -0.5177497E-03 ( -25.84%)
   displ. norm   :     0.1182908 α      lambda       -0.1197838E-02
   maximum displ.:     0.0977207 α      in ANC's #2, #3, #6, ...

........................................................................
.............................. CYCLE   10 ..............................
........................................................................
   1     -6.4880200 -0.648802E+01  0.401E-01    9.90       0.0  T
   2     -6.4880364 -0.164159E-04  0.234E-01    9.88       1.0  T
   3     -6.4880327  0.374428E-05  0.479E-02    9.89       1.0  T
   4     -6.4880388 -0.612527E-05  0.128E-02    9.88       3.5  T
   5     -6.4880392 -0.401470E-06  0.405E-03    9.88      11.0  T
   6     -6.4880392 -0.207315E-08  0.489E-04    9.88      91.5  T
   7     -6.4880392 -0.121670E-09  0.150E-04    9.88     297.9  T
     SCC iter.                  ...        0 min,  0.000 sec
     gradient                   ...        0 min,  0.000 sec
 * total energy  :    -6.4101601 Eh     change       -0.5189068E-03 Eh
   gradient norm :     0.0110521 Eh/α   predicted    -0.6072987E-03 (  17.03%)
   displ. norm   :     0.2949400 α      lambda       -0.2044175E-02
   maximum displ.:     0.2337855 α      in ANC's #6, #2, #3, ...

........................................................................
.............................. CYCLE   11 ..............................
........................................................................
   1     -6.4852226 -0.648522E+01  0.114E+00   10.37       0.0  T
   2     -6.4852764 -0.537759E-04  0.667E-01   10.41       1.0  T
   3     -6.4852067  0.696731E-04  0.148E-01   10.39       1.0  T
   4     -6.4852986 -0.918521E-04  0.280E-02   10.41       1.6  T
   5     -6.4852989 -0.294260E-06  0.896E-03   10.41       5.0  T
   6     -6.4852989 -0.215745E-07  0.112E-03   10.41      40.1  T
   7     -6.4852989 -0.376861E-08  0.413E-04   10.41     108.3  T
   8     -6.4852989 -0.956035E-10  0.510E-05   10.41     876.3  T
     SCC iter.                  ...        0 min,  0.000 sec
     gradient                   ...        0 min,  0.000 sec
 * total energy  :    -6.4113108 Eh     change       -0.1150653E-02 Eh
   gradient norm :     0.0156454 Eh/α   predicted    -0.1110999E-02 (  -3.45%)
   displ. norm   :     0.0681390 α      lambda       -0.6499580E-03
   maximum displ.:     0.0578561 α      in ANC's #3, #5, #6, ...

........................................................................
.............................. CYCLE   12 ..............................
........................................................................
   1     -6.4909013 -0.649090E+01  0.288E-01   10.26       0.0  T
   2     -6.4909129 -0.115986E-04  0.162E-01   10.24       1.0  T
   3     -6.4909037  0.913223E-05  0.661E-02   10.26       1.0  T
   4     -6.4909170 -0.132315E-04  0.991E-03   10.25       4.5  T
   5     -6.4909170 -0.464187E-07  0.372E-03   10.25      12.0  T
   6     -6.4909170 -0.122785E-08  0.485E-04   10.25      92.1  T
   7     -6.4909170 -0.188280E-09  0.131E-04   10.25     340.6  T
     SCC iter.                  ...        0 min,  0.000 sec
     gradient                   ...        0 min,  0.000 sec
 * total energy  :    -6.4115064 Eh     change       -0.1956276E-03 Eh
   gradient norm :     0.0064949 Eh/α   predicted    -0.3264885E-03 (  66.89%)
   displ. norm   :     0.0564507 α      lambda       -0.1668060E-03
   maximum displ.:     0.0405444 α      in ANC's #6, #2, #1, ...

........................................................................
.............................. CYCLE   13 ..............................
........................................................................
   1     -6.4900867 -0.649009E+01  0.201E-01   10.39       0.0  T
   2     -6.4900908 -0.411079E-05  0.115E-01   10.40       1.0  T
   3     -6.4900857  0.504501E-05  0.461E-02   10.39       1.0  T
   4     -6.4900927 -0.693438E-05  0.602E-03   10.40       7.4  T
   5     -6.4900927 -0.136410E-07  0.181E-03   10.40      24.7  T
   6     -6.4900927 -0.665319E-09  0.289E-04   10.40     154.5  T
   7     -6.4900927 -0.229212E-10  0.727E-05   10.40     615.4  T
     SCC iter.                  ...        0 min,  0.000 sec
     gradient                   ...        0 min,  0.000 sec
 * total energy  :    -6.4115795 Eh     change       -0.7308559E-04 Eh
   gradient norm :     0.0038551 Eh/α   predicted    -0.8366827E-04 (  14.48%)
   displ. norm   :     0.0576230 α      lambda       -0.7889536E-04
   maximum displ.:     0.0529562 α      in ANC's #1, #6, #3, ...

........................................................................
.............................. CYCLE   14 ..............................
........................................................................
   1     -6.4895303 -0.648953E+01  0.139E-01   10.51       0.0  T
   2     -6.4895335 -0.319720E-05  0.771E-02   10.51       1.0  T
   3     -6.4895320  0.142659E-05  0.287E-02   10.51       1.6  T
   4     -6.4895347 -0.265683E-05  0.683E-03   10.51       6.5  T
   5     -6.4895347 -0.142997E-07  0.107E-03   10.51      41.7  T
   6     -6.4895347 -0.327846E-09  0.285E-04   10.51     156.9  T
   7     -6.4895347 -0.276890E-10  0.510E-05   10.51     877.3  T
     SCC iter.                  ...        0 min,  0.001 sec
     gradient                   ...        0 min,  0.001 sec
 * total energy  :    -6.4115163 Eh     change        0.6319078E-04 Eh
   gradient norm :     0.0078337 Eh/α   predicted    -0.3957923E-04 (-162.63%)
   displ. norm   :     0.0445583 α      lambda       -0.1565200E-03
   maximum displ.:     0.0363743 α      in ANC's #1, #6, #2, ...

........................................................................
.............................. CYCLE   15 ..............................
........................................................................
   1     -6.4903169 -0.649032E+01  0.122E-01   10.45       0.0  T
   2     -6.4903189 -0.205812E-05  0.687E-02   10.45       1.0  T
   3     -6.4903177  0.124915E-05  0.248E-02   10.45       1.8  T
   4     -6.4903197 -0.202346E-05  0.524E-03   10.45       8.5  T
   5     -6.4903197 -0.100034E-07  0.119E-03   10.45      37.6  T
   6     -6.4903197 -0.379357E-09  0.251E-04   10.45     178.1  T
   7     -6.4903197 -0.211280E-10  0.421E-05   10.45    1062.8  T
     SCC iter.                  ...        0 min,  0.000 sec
     gradient                   ...        0 min,  0.000 sec
 * total energy  :    -6.4115942 Eh     change       -0.7786238E-04 Eh
   gradient norm :     0.0007890 Eh/α   predicted    -0.7841446E-04 (   0.71%)
   displ. norm   :     0.0147041 α      lambda       -0.4893285E-05
   maximum displ.:     0.0107752 α      in ANC's #2, #6, #5, ...

........................................................................
.............................. CYCLE   16 ..............................
........................................................................
   1     -6.4900029 -0.649000E+01  0.333E-02   10.37       0.0  T
   2     -6.4900031 -0.127744E-06  0.191E-02   10.38       2.3  T
   3     -6.4900029  0.126806E-06  0.731E-03   10.38       6.1  T
   4     -6.4900031 -0.177066E-06  0.105E-03   10.38      42.7  T
   5     -6.4900031 -0.562200E-09  0.377E-04   10.38     118.6  T
   6     -6.4900031 -0.201181E-10  0.468E-05   10.38     955.3  T
     SCC iter.                  ...        0 min,  0.000 sec
     gradient                   ...        0 min,  0.000 sec
 * total energy  :    -6.4115931 Eh     change        0.1084449E-05 Eh
   gradient norm :     0.0023017 Eh/α   predicted    -0.2446368E-05 (-325.59%)
   displ. norm   :     0.0040147 α      lambda       -0.4772433E-05
   maximum displ.:     0.0032987 α      in ANC's #2, #6, #1, ...

........................................................................
.............................. CYCLE   17 ..............................
........................................................................
   1     -6.4902000 -0.649020E+01  0.821E-03   10.41       0.0  T
   2     -6.4902000 -0.183126E-07  0.465E-03   10.41       9.6  T
   3     -6.4902000 -0.132632E-08  0.925E-04   10.41      48.4  T
   4     -6.4902000 -0.198622E-09  0.353E-04   10.41     126.9  T
     SCC iter.                  ...        0 min,  0.000 sec
     gradient                   ...        0 min,  0.000 sec
 * total energy  :    -6.4115964 Eh     change       -0.3262213E-05 Eh
   gradient norm :     0.0008876 Eh/α   predicted    -0.2385209E-05 ( -26.88%)
   displ. norm   :     0.0038000 α      lambda       -0.1165372E-05
   maximum displ.:     0.0025263 α      in ANC's #2, #6, #1, ...

   *** GEOMETRY OPTIMIZATION CONVERGED AFTER 17 ITERATIONS ***

------------------------------------------------------------------------
 total energy gain   :        -0.0233813 Eh      -14.6720 kcal/mol
 total RMSD          :         0.6269694 a0        0.3318 Å
 total power (kW/mol):        -3.6110321 (step)-2729.3141 (real)
------------------------------------------------------------------------

 ANCopt (total)                0 d,  0 h,  0 min,  0.022 sec
 optimizer setup                ...        0 min,  0.000 sec (  0.303%)
 model hessian                  ...        0 min,  0.000 sec (  0.427%)
 ANC generation                 ...        0 min,  0.000 sec (  0.236%)
 coordinate transformation      ...        0 min,  0.000 sec (  0.166%)
 single point calculation       ...        0 min,  0.021 sec ( 92.840%)
 optimization log               ...        0 min,  0.000 sec (  1.898%)
 hessian update                 ...        0 min,  0.000 sec (  0.182%)
 rational function              ...        0 min,  0.000 sec (  1.621%)

================
 final structure:
================
5
 xtb: 6.2.2 (9d81278992624c895f80dd42a50cac0aa55982e2)
C        -0.41101645964601    0.07783417161709   -0.13657664128959
N         0.80793604088498   -0.17283533225284    0.33427240588662
H        -1.07765751689328   -0.78003997647894   -0.21671750497250
H        -0.92657662824842    0.93109183300385    0.30324910091396
H         1.60731556390273   -0.05604969588916   -0.28422736053849

 Bond Distances (Angstroems)
 ---------------------------
C1-N2=1.3306         C1-H3=1.0894         C1-H4=1.0896         N2-C1=1.3306         N2-H5=1.0174         H3-C1=1.0894         
H4-C1=1.0896         H5-N2=1.0174         
 C  H  Rav=1.0895 sigma=0.0001  Rmin=1.0894  Rmax=1.0896     2
 N  H  Rav=1.0174 sigma=0.0000  Rmin=1.0174  Rmax=1.0174     1
 N  C  Rav=1.3306 sigma=0.0000  Rmin=1.3306  Rmax=1.3306     1

 selected bond angles (degree)
 --------------------
H3-C1-N2=115.99                H4-C1-N2=115.99                H4-C1-H3=110.90                H5-N2-C1=118.88                

 selected dihedral angles (degree)
 ---------------------------------
H5-N2-C1-H3=113.57            H5-N2-C1-H4=246.36            
           -------------------------------------------------
          |                Final Singlepoint                |
           -------------------------------------------------

          ...................................................
          :                      SETUP                      :
          :.................................................:
          :  # basis functions                  11          :
          :  # atomic orbitals                  11          :
          :  # shells                            7          :
          :  # electrons                        12          :
          :  max. iterations                   250          :
          :  Hamiltonian                  GFN2-xTB          :
          :  restarted?                      false          :
          :  GBSA solvation                  false          :
          :  PC potential                    false          :
          :  electronic temp.          300.0000000     K    :
          :  accuracy                    1.0000000          :
          :  -> integral cutoff          0.2500000E+02      :
          :  -> integral neglect         0.1000000E-07      :
          :  -> SCF convergence          0.1000000E-05 Eh   :
          :  -> wf. convergence          0.1000000E-03 e    :
          :  Broyden damping             0.4000000          :
          ...................................................

 iter      E             dE          RMSdq      gap      omega  full diag
   1     -6.4902000 -0.649020E+01  0.913E-05   10.41       0.0  T
   2     -6.4902000 -0.356692E-11  0.450E-05   10.41     994.4  T
   3     -6.4902000  0.357048E-12  0.239E-05   10.41    1873.4  T

   *** convergence criteria satisfied after 3 iterations ***

         #    Occupation            Energy/Eh            Energy/eV
      -------------------------------------------------------------
         1        2.0000           -0.6202340             -16.8774
         2        2.0000           -0.5624688             -15.3056
         3        2.0000           -0.4987886             -13.5727
         4        2.0000           -0.4961182             -13.5001
         5        2.0000           -0.4463322             -12.1453
         6        1.0000           -0.3696377             -10.0584
         7        1.0000           -0.2854292              -7.7669 (HOMO)
         8                          0.0972363               2.6459 (LUMO)
         9                          0.2016345               5.4868
        10                          0.2480784               6.7506
        11                          0.3567703               9.7082
      -------------------------------------------------------------
                  HL-Gap            0.3826655 Eh           10.4129 eV
             Fermi-level           -0.2510407 Eh           -6.8312 eV

 transition dipole moment (au) for excitation:           6           7
     X       Y       Z   
  -0.0110  -0.1278  -0.0386  total (au/Debye):    0.134   0.340
 dE (eV)             :    2.291
 oscillator strength :  0.14238E-02

 SCC (total)                   0 d,  0 h,  0 min,  0.001 sec
 SCC setup                      ...        0 min,  0.000 sec (  4.570%)
 Dispersion                     ...        0 min,  0.000 sec (  0.693%)
 integral evaluation            ...        0 min,  0.000 sec ( 28.791%)
 zeroth order Hamiltonian       ...        0 min,  0.000 sec (  0.561%)
 iterations                     ...        0 min,  0.000 sec ( 12.044%)
 molecular gradient             ...        0 min,  0.000 sec ( 28.048%)
 printout                       ...        0 min,  0.000 sec ( 24.913%)

         :::::::::::::::::::::::::::::::::::::::::::::::::::::
         ::                     SUMMARY                     ::
         :::::::::::::::::::::::::::::::::::::::::::::::::::::
         :: total energy              -6.411596360663 Eh    ::
         :: gradient norm              0.000890787069 Eh/a0 ::
         :: HOMO-LUMO gap             10.412859266680 eV    ::
         ::.................................................::
         :: SCC energy                -6.490200025496 Eh    ::
         :: -> isotropic ES            0.007368478220 Eh    ::
         :: -> anisotropic ES          0.001034828954 Eh    ::
         :: -> anisotropic XC          0.009591183207 Eh    ::
         :: -> dispersion             -0.000986527663 Eh    ::
         :: repulsion energy           0.078603651935 Eh    ::
         :: add. restraining           0.000000000000 Eh    ::
         :::::::::::::::::::::::::::::::::::::::::::::::::::::

           ------------------------------------------------- 
          |                Numerical Hessian                |
           ------------------------------------------------- 
step length          :   0.00500
SCC accuracy         :   0.30000
Hessian scale factor :   1.00000
frozen atoms in %    :   0.00000    0
RMS gradient         :   0.00089
estimated CPU  time      0.00 min
estimated wall time      0.00 min

writing file <hessian>.

 projected vibrational frequencies (cm-1)
eigval :       -0.00    -0.00    -0.00     0.00     0.00     0.00
eigval :      615.64   633.28   916.41  1059.58  1283.38  1422.52
eigval :     2890.55  2921.32  3246.55
           -------------------------------------------------
          |                Property Printout                |
           -------------------------------------------------

    * Orbital Energies and Occupations

         #    Occupation            Energy/Eh            Energy/eV
      -------------------------------------------------------------
         1        2.0000           -0.6202339             -16.8774
         2        2.0000           -0.5624688             -15.3056
         3        2.0000           -0.4987887             -13.5727
         4        2.0000           -0.4961182             -13.5001
         5        2.0000           -0.4463322             -12.1453
         6        1.0000           -0.3696376             -10.0584
         7        1.0000           -0.2854293              -7.7669 (HOMO)
         8                          0.0972364               2.6459 (LUMO)
         9                          0.2016344               5.4868
        10                          0.2480783               6.7506
        11                          0.3567703               9.7082
      -------------------------------------------------------------
                  HL-Gap            0.3826657 Eh           10.4129 eV
             Fermi-level           -0.2510407 Eh           -6.8312 eV

     #   Z        covCN         q      C6AA      α(0)
     1   6 C      2.759    -0.084    30.084     8.982
     2   7 N      1.770    -0.236    26.981     7.691
     3   1 H      0.925     0.079     1.985     2.204
     4   1 H      0.925     0.079     1.986     2.204
     5   1 H      0.860     0.161     1.328     1.805

 Mol. C6AA /au·bohr⁶  :        214.093537
 Mol. C8AA /au·bohr⁸  :       4572.587339
 Mol. α(0) /au        :         22.885693


Wiberg/Mayer (AO) data.
largest (>0.10) Wiberg bond orders for each atom
          total WBO             WBO to atom ...
     1  C   3.095        N    2 1.377    H    3 0.858    H    4 0.858
     2  N   2.333        C    1 1.377    H    5 0.920
     3  H   0.884        C    1 0.858
     4  H   0.884        C    1 0.858
     5  H   0.930        N    2 0.920

MOs/occ written to file <molden.input>


molecular dipole:
                 x           y           z       tot (Debye)
 q only:       -0.106       0.070      -0.201
   full:       -0.180       0.109      -0.308       0.949
molecular quadrupole (traceless):
                xx          xy          yy          xz          yz          zz
 q only:        1.269       0.104      -0.329      -0.781       0.283      -0.940
  q+dip:        2.065       0.418      -0.139      -1.939       0.800      -1.926
   full:        1.830       0.453       0.030      -1.934       0.835      -1.860

           -------------------------------------------------
          |                Geometry Summary                 |
           -------------------------------------------------

      molecular mass/u    :       29.0412614
   center of mass at/Å    :        0.2059085      -0.0478725       0.0978740
  moments of inertia/u·Å² :        0.2475574E+01   0.1660456E+02   0.1737573E+02
rotational constants/cm⁻¹ :        0.6809586E+01   0.1015241E+01   0.9701827E+00

 * 3 selected distances

     #   Z        #   Z                                     value/Å
     1   6 C      2   7 N                                 1.3305560 (max)
     1   6 C      3   1 H                                 1.0893947 (min)
     1   6 C      4   1 H                                 1.0896319

 * 2 distinct bonds (by element types)

   Z      Z             #   av. dist./Å        max./Å        min./Å
   1 H    6 C           2     1.0895133     1.0896319     1.0893947
   6 C    7 N           1     1.3305560     1.3305560     1.3305560

           -------------------------------------------------
          |               Frequency Printout                |
           -------------------------------------------------
 projected vibrational frequencies (cm-1)
eigval :       -0.00    -0.00    -0.00     0.00     0.00     0.00
eigval :      615.64   633.28   916.41  1059.58  1283.38  1422.52
eigval :     2890.55  2921.32  3246.55
Molecule has the following symmetry elements: (sigma) 
It seems to be the Cs point group
 reduced masses (amu)
   1:  8.98   2:  7.64   3: 11.71   4: 10.61   5:  8.43   6:  8.31   7:  1.69   8:  3.28
   9:  3.67  10:  3.41  11:  1.55  12: 12.56  13:  2.02  14:  1.41  15:  1.85
 IR intensities (amu)
   1:  0.09   2:  0.12   3:  0.18   4:  0.29   5:  0.24   6:  0.10   7:  0.35   8:  0.43
   9:  0.09  10:  0.36  11:  0.15  12:  0.17  13:  0.01  14:  0.06  15:  0.13
 Raman intensities (amu)
   1:  0.00   2:  0.00   3:  0.00   4:  0.00   5:  0.00   6:  0.00   7:  0.00   8:  0.00
   9:  0.00  10:  0.00  11:  0.00  12:  0.00  13:  0.00  14:  0.00  15:  0.00
 output can be read by thermo (or use thermo option).
 writing <g98.out> molden fake output.
 recommended (thermochemical) frequency scaling factor: 1.0
           -------------------------------------------------
          |             Thermodynamic Functions             |
           -------------------------------------------------

cs  symmetry found (for desy threshold:  0.10E+00) used in thermo

          ...................................................
          :                      SETUP                      :
          :.................................................:
          :  # frequencies                           9      :
          :  # imaginary freq.                       0      :
          :  linear?                             false      :
          :  only rotor calc.                    false      :
          :  symmetry                               cs      :
          :  rotational number                       1      :
          :  scaling factor                  1.0000000      :
          :  rotor cutoff                   50.0000000 cm⁻¹ :
          :  imag. cutoff                  -20.0000000 cm⁻¹ :
          :.................................................:

    mode    ω/cm⁻¹     T·S(HO)/kcal·mol⁻¹    T·S(FR)/kcal·mol⁻¹   T·S(vib)
   ------------------------------------------------------------------------
   ------------------------------------------------------------------------

   temp. (K)  partition function   enthalpy   heat capacity  entropy
                                   cal/mol     cal/K/mol   cal/K/mol   J/K/mol
 298.15  VIB   1.13                  246.510      3.010      1.069
         ROT  0.204E+04              888.752      2.981     18.127
         INT  0.231E+04             1135.262      5.991     19.196
         TR   0.151E+27             1481.254      4.968     36.016
         TOT                        2616.5163    10.9595    55.2122   231.0078

   temp. (K)  partition function   enthalpy   heat capacity  entropy
                                   cal/mol     cal/K/mol   cal/K/mol   J/K/mol
 120.00  VIB   1.00                    2.064      0.130      0.019
         ROT   521.                  357.707      2.981     15.414
         INT   522.                  359.771      3.111     15.433
         TR   0.387E+26              596.178      4.968     31.497
         TOT                         955.9491     8.0795    46.9300   196.3553

   temp. (K)  partition function   enthalpy   heat capacity  entropy
                                   cal/mol     cal/K/mol   cal/K/mol   J/K/mol
 100.00  VIB   1.00                    0.456      0.041      0.005
         ROT   397.                  298.089      2.981     14.870
         INT   397.                  298.545      3.022     14.875
         TR   0.294E+26              496.815      4.968     30.591
         TOT                         795.3601     7.9902    45.4668   190.2329

   temp. (K)  partition function   enthalpy   heat capacity  entropy
                                   cal/mol     cal/K/mol   cal/K/mol   J/K/mol
  80.00  VIB   1.00                    0.048      0.007      0.001
         ROT   284.                  238.471      2.981     14.205
         INT   284.                  238.519      2.988     14.206
         TR   0.210E+26              397.452      4.968     29.483
         TOT                         635.9712     7.9558    43.6891   182.7952

   temp. (K)  partition function   enthalpy   heat capacity  entropy
                                   cal/mol     cal/K/mol   cal/K/mol   J/K/mol
  60.00  VIB   1.00                    0.001      0.000     -0.000
         ROT   184.                  178.853      2.981     13.348
         INT   184.                  178.855      2.981     13.348
         TR   0.137E+26              298.089      4.968     28.055
         TOT                         476.9435     7.9493    41.4023   173.2273

   temp. (K)  partition function   enthalpy   heat capacity  entropy
                                   cal/mol     cal/K/mol   cal/K/mol   J/K/mol
  40.00  VIB   1.00                    0.000      0.000     -0.000
         ROT   100.                  119.236      2.981     12.139
         INT   100.                  119.236      2.981     12.139
         TR   0.744E+25              198.726      4.968     26.041
         TOT                         317.9616     7.9490    38.1802   159.7459

   temp. (K)  partition function   enthalpy   heat capacity  entropy
                                   cal/mol     cal/K/mol   cal/K/mol   J/K/mol
  20.00  VIB   1.00                    0.000      0.000     -0.000
         ROT   35.5                   59.618      2.981     10.073
         INT   35.5                   59.618      2.981     10.073
         TR   0.263E+25               99.363      4.968     22.599
         TOT                         158.9808     7.9490    32.6720   136.6994

   temp. (K)  partition function   enthalpy   heat capacity  entropy
                                   cal/mol     cal/K/mol   cal/K/mol   J/K/mol
  10.00  VIB   1.00                    0.000      0.000     -0.000
         ROT   12.5                   29.809      2.981      8.007
         INT   12.5                   29.809      2.981      8.006
         TR   0.930E+24               49.681      4.968     19.157
         TOT                          79.4904     7.9490    27.1637   113.6530

       T/K    H(0)-H(T)+PV         H(T)/Eh          T*S/Eh         G(T)/Eh
   ------------------------------------------------------------------------
    298.15    0.416968E-02    0.383177E-01    0.262331E-01    0.120846E-01
    120.00    0.152340E-02    0.356714E-01    0.897453E-02    0.266968E-01
    100.00    0.126749E-02    0.354155E-01    0.724559E-02    0.281699E-01
     80.00    0.101348E-02    0.351615E-01    0.556984E-02    0.295916E-01
     60.00    0.760058E-03    0.349080E-01    0.395873E-02    0.309493E-01
     40.00    0.506704E-03    0.346547E-01    0.243376E-02    0.322209E-01
     20.00    0.253352E-03    0.344013E-01    0.104132E-02    0.333600E-01
     10.00    0.126676E-03    0.342747E-01    0.432881E-03    0.338418E-01 (used)
   ------------------------------------------------------------------------

         :::::::::::::::::::::::::::::::::::::::::::::::::::::
         ::                  THERMODYNAMIC                  ::
         :::::::::::::::::::::::::::::::::::::::::::::::::::::
         :: total free energy          -6.377754587318 Eh   ::
         ::.................................................::
         :: total energy               -6.411596360654 Eh   ::
         :: zero point energy           0.034147978609 Eh   ::
         :: G(RRHO) w/o ZPVE           -0.000306205273 Eh   ::
         :: G(RRHO) contrib.            0.033841773336 Eh   ::
         :::::::::::::::::::::::::::::::::::::::::::::::::::::

optimized geometry written to: xtbopt.xyz


           -------------------------------------------------
          | TOTAL ENERGY               -6.411596360654 Eh   |
          | TOTAL ENTHALPY             -6.377321706030 Eh   |
          | TOTAL FREE ENERGY          -6.377754587318 Eh   |
          | GRADIENT NORM               0.000890834803 Eh/α |
          | HOMO-LUMO GAP              10.412863428901 eV   |
           -------------------------------------------------

------------------------------------------------------------------------
 * finished run on 2020/05/12 at 11:44:28.324     
------------------------------------------------------------------------
 total:
 * wall-time:     0 d,  0 h,  0 min,  0.075 sec
 *  cpu-time:     0 d,  0 h,  0 min,  0.075 sec
 * ratio c/w:     0.995 speedup
 SCF:
 * wall-time:     0 d,  0 h,  0 min,  0.002 sec
 *  cpu-time:     0 d,  0 h,  0 min,  0.002 sec
 * ratio c/w:     1.000 speedup
 ANC optimizer:
 * wall-time:     0 d,  0 h,  0 min,  0.025 sec
 *  cpu-time:     0 d,  0 h,  0 min,  0.025 sec
 * ratio c/w:     0.999 speedup
 numerical hessian:
 * wall-time:     0 d,  0 h,  0 min,  0.033 sec
 *  cpu-time:     0 d,  0 h,  0 min,  0.033 sec
 * ratio c/w:     0.998 speedup

