 Entering Gaussian System
 *********************************************
 Gaussian 98:
 frequency output generated by the xtb code
 *********************************************
                         Standard orientation:
 --------------------------------------------------------------------
  Center     Atomic     Atomic              Coordinates (Angstroms)
  Number     Number      Type              X           Y           Z
 --------------------------------------------------------------------
    1          6             0       -0.411017    0.077836   -0.136575
    2          7             0        0.807936   -0.172839    0.334270
    3          1             0       -1.077662   -0.780035   -0.216712
    4          1             0       -0.926571    0.931097    0.303251
    5          1             0        1.607314   -0.056059   -0.284233
 --------------------------------------------------------------------
     1 basis functions        1 primitive gaussians
     1 alpha electrons        1 beta electrons

 Harmonic frequencies (cm**-1), IR intensities (KM/Mole),
 Raman scattering activities (A**4/amu), Raman depolarization ratios,
 reduced masses (AMU), force constants (mDyne/A) and normal coordinates:
                      1                      2                      3
                        a                      a                      a 
 Frequencies --   615.6420               633.2814               916.4107
 Red. masses --     1.6935                 3.2801                 3.6716
 Frc consts  --     0.0000                 0.0000                 0.0000
 IR Inten    --     0.3499                 0.4254                 0.0888
 Raman Activ --     0.0000                 0.0000                 0.0000
 Depolar     --     0.0000                 0.0000                 0.0000
 Atom AN      X      Y      Z        X      Y      Z        X      Y      Z
   1   6     0.01   0.15   0.05    -0.07  -0.12   0.41     0.03   0.34   0.10
   2   7     0.02   0.17   0.05     0.11  -0.00  -0.02    -0.03  -0.30  -0.09
   3   1     0.27  -0.17  -0.26    -0.04   0.10  -0.60     0.43  -0.29   0.31
   4   1    -0.31  -0.24   0.13    -0.03   0.26  -0.55    -0.46   0.01  -0.39
   5   1    -0.07  -0.74  -0.23    -0.09   0.07  -0.19     0.02   0.21   0.06
                      4                      5                      6
                        a                      a                      a 
 Frequencies --  1059.5768              1283.3772              1422.5200
 Red. masses --     3.4105                 1.5473                12.5629
 Frc consts  --     0.0000                 0.0000                 0.0000
 IR Inten    --     0.3576                 0.1543                 0.1701
 Raman Activ --     0.0000                 0.0000                 0.0000
 Depolar     --     0.0000                 0.0000                 0.0000
 Atom AN      X      Y      Z        X      Y      Z        X      Y      Z
   1   6     0.13   0.05  -0.21     0.15  -0.02   0.02     0.67  -0.13   0.24
   2   7     0.06  -0.11   0.34     0.14  -0.00  -0.03    -0.62   0.12  -0.22
   3   1    -0.05   0.05   0.08    -0.55   0.40   0.09     0.06   0.05   0.02
   4   1    -0.06  -0.08   0.04    -0.61  -0.29  -0.12     0.05  -0.06  -0.02
   5   1    -0.56   0.24  -0.64     0.10  -0.03   0.08    -0.13   0.02  -0.03
                      7                      8                      9
                        a                      a                      a 
 Frequencies --  2890.5490              2921.3231              3246.5497
 Red. masses --     2.0181                 1.4145                 1.8463
 Frc consts  --     0.0000                 0.0000                 0.0000
 IR Inten    --     0.0128                 0.0628                 0.1257
 Raman Activ --     0.0000                 0.0000                 0.0000
 Depolar     --     0.0000                 0.0000                 0.0000
 Atom AN      X      Y      Z        X      Y      Z        X      Y      Z
   1   6     0.02   0.29   0.09    -0.19  -0.01   0.04     0.01  -0.00   0.00
   2   7    -0.00   0.00   0.00    -0.01   0.00  -0.00     0.20   0.03  -0.15
   3   1    -0.42  -0.49  -0.05     0.41   0.58   0.09    -0.00  -0.01  -0.01
   4   1     0.35  -0.54  -0.27     0.28  -0.55  -0.25    -0.00   0.01  -0.00
   5   1     0.00   0.02   0.01    -0.02  -0.00   0.01    -0.78  -0.10   0.57
