 Entering Gaussian System
 *********************************************
 Gaussian 98:
 frequency output generated by the xtb code
 *********************************************
                         Standard orientation:
 --------------------------------------------------------------------
  Center     Atomic     Atomic              Coordinates (Angstroms)
  Number     Number      Type              X           Y           Z
 --------------------------------------------------------------------
    1          6             0        1.022130   -0.277078    0.397685
    2          7             0        0.562988    0.332340   -0.749326
    3          6             0       -0.705096   -0.445593   -0.597038
    4          6             0       -0.271626   -0.434353    0.908828
    5          6             0       -0.608396    0.824685    0.039850
 --------------------------------------------------------------------
     1 basis functions        1 primitive gaussians
     1 alpha electrons        1 beta electrons

 Harmonic frequencies (cm**-1), IR intensities (KM/Mole),
 Raman scattering activities (A**4/amu), Raman depolarization ratios,
 reduced masses (AMU), force constants (mDyne/A) and normal coordinates:
                      1                      2                      3
                        a                      a                      a 
 Frequencies --  -245.7027              -215.6467               639.0309
 Red. masses --    12.3924                12.1473                12.3608
 Frc consts  --     0.0000                 0.0000                 0.0000
 IR Inten    --     0.7730                 0.1200                 1.5395
 Raman Activ --     0.0000                 0.0000                 0.0000
 Depolar     --     0.0000                 0.0000                 0.0000
 Atom AN      X      Y      Z        X      Y      Z        X      Y      Z
   1   6     0.02   0.24   0.12    -0.04  -0.54  -0.27    -0.00  -0.04  -0.02
   2   7    -0.03  -0.39  -0.20     0.02   0.23   0.12    -0.03  -0.37  -0.19
   3   6     0.01   0.22  -0.53     0.31  -0.09  -0.15     0.52   0.25   0.22
   4   6     0.02   0.24   0.12     0.04   0.51   0.25    -0.02  -0.20  -0.10
   5   6    -0.01  -0.29   0.50    -0.32  -0.13   0.04    -0.48   0.39   0.10
                      4                      5                      6
                        a                      a                      a 
 Frequencies --   715.2408               895.7083               924.3185
 Red. masses --    12.2494                12.3261                12.9654
 Frc consts  --     0.0000                 0.0000                 0.0000
 IR Inten    --     0.1819                 0.2630                 0.6647
 Raman Activ --     0.0000                 0.0000                 0.0000
 Depolar     --     0.0000                 0.0000                 0.0000
 Atom AN      X      Y      Z        X      Y      Z        X      Y      Z
   1   6     0.26  -0.09   0.14     0.49  -0.08   0.08     0.06  -0.15   0.29
   2   7     0.20  -0.14   0.25    -0.24  -0.13   0.29    -0.69   0.01   0.09
   3   6    -0.43   0.33  -0.12    -0.06  -0.21   0.02     0.22   0.06  -0.32
   4   6     0.41  -0.05   0.03    -0.14   0.32  -0.61     0.24  -0.12   0.19
   5   6    -0.46  -0.04  -0.31    -0.03   0.11   0.19     0.23   0.19  -0.26
                      7                      8                      9
                        a                      a                      a 
 Frequencies --  1190.3572              1351.6350              1420.2526
 Red. masses --    12.8125                12.1107                12.2230
 Frc consts  --     0.0000                 0.0000                 0.0000
 IR Inten    --     1.0103                 0.6808                 0.2367
 Raman Activ --     0.0000                 0.0000                 0.0000
 Depolar     --     0.0000                 0.0000                 0.0000
 Atom AN      X      Y      Z        X      Y      Z        X      Y      Z
   1   6    -0.05  -0.29   0.59    -0.57   0.03   0.03     0.33  -0.06   0.08
   2   7     0.01   0.28  -0.57     0.11  -0.09   0.17     0.18   0.11  -0.25
   3   6    -0.06   0.03   0.17    -0.06  -0.34  -0.15    -0.21  -0.41  -0.30
   4   6     0.16   0.11  -0.23     0.52   0.08  -0.25    -0.16  -0.15   0.33
   5   6    -0.07  -0.15   0.08    -0.01   0.33   0.19    -0.14   0.51   0.16
