[Molden Format]
[Title]
[Atoms] AU
C      1     6  0.19315452533176E+01 -0.52360201650950E+00  0.75151574329745E+00
N      2     7  0.10638925678067E+01  0.62803160961482E+00 -0.14160205125582E+01
C      3     6 -0.13324375191110E+01 -0.84204914567053E+00 -0.11282374707591E+01
C      4     6 -0.51329909863140E+00 -0.82080894720361E+00  0.17174367902571E+01
C      5     6 -0.11497012033820E+01  0.15584284997688E+01  0.75305449762740E-01
[GTO]
           1 0
 s           4   1.0000000000000000     
   51.049363095579913      -0.16312063210127389     
   8.7911227406887544      -0.19911024581000730     
  0.70640422258929825       0.31882047753655751     
  0.26922813413411617       0.12706504184240380     
 p           4   1.0000000000000000     
   5.8263656140800002       0.73716451545209605     
   1.5106896018720002       0.68216371614850257     
  0.53256483288000001       0.35783053929253711     
  0.21202323690600003        5.3983030275847881E-002

           2 0
 s           4   1.0000000000000000     
   63.594024466941008      -0.19234388414721629     
   10.951417231523665      -0.23478107924953728     
  0.87999310257376984       0.37593753901700888     
  0.33538715296521110       0.14982889271862770     
 p           4   1.0000000000000000     
   7.2965040481495080       0.97658666315667420     
   1.8918745450712575       0.90372226730345739     
  0.66694432110824120       0.47404958461536373     
  0.26552202674130870        7.1516067715011844E-002

           3 0
 s           4   1.0000000000000000     
   51.049363095579913      -0.16312063210127389     
   8.7911227406887544      -0.19911024581000730     
  0.70640422258929825       0.31882047753655751     
  0.26922813413411617       0.12706504184240380     
 p           4   1.0000000000000000     
   5.8263656140800002       0.73716451545209605     
   1.5106896018720002       0.68216371614850257     
  0.53256483288000001       0.35783053929253711     
  0.21202323690600003        5.3983030275847881E-002

           4 0
 s           4   1.0000000000000000     
   51.049363095579913      -0.16312063210127389     
   8.7911227406887544      -0.19911024581000730     
  0.70640422258929825       0.31882047753655751     
  0.26922813413411617       0.12706504184240380     
 p           4   1.0000000000000000     
   5.8263656140800002       0.73716451545209605     
   1.5106896018720002       0.68216371614850257     
  0.53256483288000001       0.35783053929253711     
  0.21202323690600003        5.3983030275847881E-002

           5 0
 s           4   1.0000000000000000     
   51.049363095579913      -0.16312063210127389     
   8.7911227406887544      -0.19911024581000730     
  0.70640422258929825       0.31882047753655751     
  0.26922813413411617       0.12706504184240380     
 p           4   1.0000000000000000     
   5.8263656140800002       0.73716451545209605     
   1.5106896018720002       0.68216371614850257     
  0.53256483288000001       0.35783053929253711     
  0.21202323690600003        5.3983030275847881E-002

[MO]
Sym=     1a
Ene=  -0.77652116660980608     
Spin= Alpha
Occup=     2.00000000
           1 -0.21280672587124932     
           2  0.11562418286239469     
           3  -3.5534138252107259E-002
           4   5.3337928524684081E-002
           5 -0.28747139322547882     
           6  0.14677824325517833     
           7   7.1369734301659396E-002
           8 -0.16486942922660977     
           9 -0.26130268884411906     
          10  -9.4591978360256276E-002
          11  -8.6647477098376738E-002
          12  -7.3237084737554095E-002
          13 -0.20920837948222404     
          14  -3.0426802170738673E-002
          15  -5.2019076268828492E-002
          16  0.10848769162948942     
          17 -0.26135251415468364     
          18  -7.8802875740003733E-002
          19  0.12110495183811527     
          20   3.0874460387562919E-002
Sym=     2a
Ene=  -0.67683608164297027     
Spin= Alpha
Occup=     2.00000000
           1 -0.45743150675341754     
           2   4.1185235044714393E-002
           3  -3.2863369490252571E-002
           4   5.9283248736636089E-002
           5  -8.7848783838890707E-002
           6 -0.31420618428532315     
           7  0.11752083189738087     
           8 -0.18695418663847879     
           9  0.27513956717671018     
          10  -7.5969991672413140E-002
          11  0.16371679961440097     
          12  -2.5558576735098450E-002
          13 -0.11636921134620890     
          14 -0.19337574923265299     
          15   2.7555836274372796E-002
          16  -2.5639664237868381E-002
          17  0.27499100109760732     
          18  -9.3661347220047625E-002
          19  -6.7216325693395335E-002
          20 -0.14133223546130433     
Sym=     3a
Ene=  -0.65566382888556585     
Spin= Alpha
Occup=     2.00000000
           1   2.4927475131315872E-002
           2 -0.11231077268161815     
           3 -0.10034617727428682     
           4  0.21780801090268107     
           5 -0.51706862273194221     
           6   5.9397900072667683E-003
           7  -1.1629290316700854E-002
           8   2.2911305058271068E-002
           9   5.9090832727436274E-002
          10 -0.12327341354898219     
          11  -8.1405813651321712E-002
          12  0.21805035550541449     
          13  0.43446567982028761     
          14  -2.0112755024947790E-002
          15   1.9391245314796829E-002
          16  -3.5243120018202997E-002
          17   5.9843854244100325E-002
          18 -0.12526868129019331     
          19 -0.11073762280632857     
          20  0.20355804198627533     
Sym=     4a
Ene=  -0.62539356252557821     
Spin= Alpha
Occup=     2.00000000
           1  -1.5797064778693532E-004
           2   1.7645847907978410E-002
           3  0.23018593924033953     
           4  0.11500212904562872     
           5   3.8882620541461050E-004
           6   3.1195089997669418E-002
           7  0.40943243737510082     
           8  0.20500465093494452     
           9 -0.37798660988126298     
          10 -0.11976046665514568     
          11  0.16085293941684076     
          12   6.5737326423450856E-002
          13  -3.6095439027281285E-004
          14   1.6360555681816314E-002
          15  0.21571542949289035     
          16  0.10798402382620294     
          17  0.37797294378547369     
          18  0.14231997025448384     
          19  0.13325239454430779     
          20   8.1119862797988884E-002
Sym=     5a
Ene=  -0.57674830384349585     
Spin= Alpha
Occup=     2.00000000
           1   8.9741130124219790E-002
           2 -0.15728259891691118     
           3 -0.16496771465823612     
           4  0.35360345369652318     
           5  -6.1148171294194163E-002
           6 -0.37693396222036923     
           7   9.8538642478219612E-002
           8 -0.13902105576331913     
           9  -9.0202531557626725E-002
          10  0.17359364381924450     
          11   5.9128346837739022E-002
          12 -0.20216320799990242     
          13  0.10759104998038285     
          14  0.35074609387832051     
          15  -9.5880675852846958E-002
          16  0.13803557217684073     
          17  -9.0374701696398357E-002
          18  0.17729332744916707     
          19  0.10525863520687094     
          20 -0.17908502821874189     
Sym=     6a
Ene=  -0.52444168004674763     
Spin= Alpha
Occup=     2.00000000
           1  0.51065033428031803     
           2  0.27820407097600863     
           3  -6.3211453442213433E-002
           4   8.3948041169100124E-002
           5 -0.29135364110667883     
           6   4.1382255816443773E-002
           7  -8.6262043917612954E-002
           8  0.16783145260790927     
           9  0.19756824948297669     
          10 -0.27060674915232408     
          11  0.18838253377661826     
          12 -0.12922450265445048     
          13 -0.29782434129393115     
          14  0.20213535532095797     
          15   8.6352284986010563E-003
          16  -4.9549615576721821E-002
          17  0.19699943880898355     
          18 -0.28244588213089633     
          19   2.4676553044514996E-002
          20 -0.21257439372186307     
Sym=     7a
Ene=  -0.50804210468182232     
Spin= Alpha
Occup=     2.00000000
           1  0.16772770446108412     
           2  0.12821697468656501     
           3  -7.5028815816227529E-002
           4  0.13004800680956158     
           5  0.47954690053053067     
           6  0.29988896394459452     
           7  0.21159412169950190     
           8 -0.47119588666205181     
           9   5.4809619736716532E-002
          10 -0.19998596851970490     
          11   8.2020309827732882E-002
          12  -9.9522149637710638E-003
          13  0.38546179013644000     
          14  -5.0645537326568152E-002
          15 -0.11163694574625493     
          16  0.23306813234371870     
          17   5.6009767068028730E-002
          18 -0.20873289804031966     
          19  -1.6331236308616576E-002
          20  -5.7303411427171429E-002
Sym=     8a
Ene=  -0.50107294735395291     
Spin= Alpha
Occup=     2.00000000
           1   5.2437769559123795E-004
           2  -5.3913421351053092E-003
           3  -7.4154712399661329E-002
           4  -3.7269938547446611E-002
           5  -1.7406728491306353E-003
           6  -3.8079431642149920E-002
           7 -0.48893181916611045     
           8 -0.24310214760497109     
           9 -0.24880510500325903     
          10  0.24970265293717897     
          11  0.24691655169503873     
          12 -0.16944095871032169     
          13  -1.5738461272375146E-003
          14   2.7580085275663958E-002
          15  0.35608773201200883     
          16  0.17740931111750990     
          17  0.24982967224705357     
          18 -0.22720502650408098     
          19   4.2355940898096224E-002
          20  0.31372549042092474     
Sym=     9a
Ene=  -0.47212327450064157     
Spin= Alpha
Occup=     1.99999567
           1  -1.7937641262734305E-004
           2  -3.2057895730497707E-002
           3 -0.41825876812184115     
           4 -0.20943528585732366     
           5   2.0474836523987918E-004
           6   1.4224268992912253E-003
           7   1.8614333669627704E-002
           8   9.2623435703661043E-003
           9 -0.36370522617911427     
          10  0.17476827818840254     
          11   8.2626855942812022E-002
          12  0.34252471837667642     
          13   2.7360644774704866E-004
          14  -2.7169336887634121E-002
          15 -0.35543891932105792     
          16 -0.17778074703484339     
          17  0.36258751723854971     
          18 -0.14240026776242970     
          19  0.34200324382755587     
          20 -0.12977685587922685     
Sym=    10a
Ene=  -0.44865763923868185     
Spin= Alpha
Occup=     1.00000433
           1  -1.5671495439118988E-002
           2  -7.9286981539367377E-002
           3   4.3426543600477959E-003
           4   2.1253712287699353E-003
           5   1.9896974968290321E-002
           6   5.2834536874649347E-002
           7   2.8008510955193484E-002
           8  -6.2786464211321599E-002
           9  0.40767528639819461     
          10  -5.2599290775797287E-002
          11 -0.50289303275677921     
          12 -0.27807758441658686     
          13  -1.8695746473584584E-002
          14   5.2091406934566035E-002
          15   1.7861295435697973E-002
          16  -4.5432001271001526E-002
          17  0.40798171796176264     
          18   2.5893906007633749E-002
          19  0.52624058116388694     
          20  0.23616116649309343     
Sym=    11a
Ene=  -0.40571399187970214     
Spin= Alpha
Occup=     1.00000000
           1  0.15780134839553348     
           2  0.19647429220808507     
           3 -0.14204751332986071     
           4  0.25345368464339091     
           5  0.11201107345849809     
           6   1.8945101242797097E-002
           7  0.21064536137402265     
           8 -0.42326853198486591     
           9  -2.9262626576304105E-002
          10  0.11909145644714492     
          11 -0.10842989755199907     
          12  0.23748532684782117     
          13 -0.36800324888424940     
          14  0.13019348913108258     
          15  0.26375868941005504     
          16 -0.54671055497431875     
          17  -2.9114826906355019E-002
          18  0.11674453076177113     
          19 -0.13966460520639590     
          20  0.22163688601956136     
Sym=    12a
Ene=  -0.39633518696572001     
Spin= Alpha
Occup=     1.00000000
           1 -0.29672799501424452     
           2 -0.65648032638316312     
           3   8.1147785246227205E-002
           4  -6.1930357425055177E-002
           5   9.6193125216868403E-002
           6  0.29827249418105095     
           7   1.1775221336564426E-002
           8  -6.9586008123773677E-002
           9  -2.8959184301584309E-002
          10 -0.26961846553144403     
          11  0.12729008561608215     
          12  -1.6735157061010707E-002
          13 -0.16765890211778978     
          14  0.42609221163660410     
          15   7.2372593006753069E-002
          16 -0.20880762069022238     
          17  -2.8899254644202635E-002
          18 -0.28159241740040025     
          19  -2.9328254622701045E-002
          20  -9.4910212125430035E-002
Sym=    13a
Ene=  -0.31494280849463580     
Spin= Alpha
Occup=     0.00000000
           1  -2.6586760581609835E-005
           2   5.7763421665109789E-002
           3  0.75797260479994344     
           4  0.37968571312969812     
           5   5.0466532346663361E-005
           6  -1.6342766180187415E-002
           7 -0.21442250627819581     
           8 -0.10739123275811017     
           9  -3.0630059298092094E-002
          10  0.34873600232812291     
          11  -7.6620596425591256E-002
          12  0.24528457399682840     
          13  -3.3164100538776695E-005
          14  -1.8314759366259776E-002
          15 -0.24094645883237817     
          16 -0.12056115387021045     
          17   3.0718941519477402E-002
          18 -0.33991714949723473     
          19  0.19246966152004930     
          20 -0.18684697450823184     
Sym=    14a
Ene=  -0.15343749878958790     
Spin= Alpha
Occup=     0.00000000
           1   1.6265923672889829E-004
           2  -1.3104021331725663E-002
           3 -0.16900420061642618     
           4  -8.4471119773497222E-002
           5   7.2868308528853951E-004
           6   4.3374014111077761E-002
           7  0.58225939217808032     
           8  0.29203856483376134     
           9   6.0964050918248025E-002
          10  0.61746588324750107     
          11 -0.31238135810892387     
          12 -0.13924869195487827     
          13  -5.1828942543823587E-004
          14   2.3068494537694328E-002
          15  0.29961648033837940     
          16  0.15056025365200204     
          17  -6.1332255025036690E-002
          18 -0.65925162623253319     
          19 -0.22106210799409740     
          20 -0.12671424505160794     
Sym=    15a
Ene=  -0.13321014245243967     
Spin= Alpha
Occup=     0.00000000
           1   7.8076759331147398E-004
           2   7.7696519321718100E-003
           3  0.10778915637756853     
           4   5.3564118827326361E-002
           5  -3.1043379657928619E-004
           6   1.9450732587206501E-002
           7  0.26260420733825413     
           8  0.13131277259804072     
           9  -3.6506951883214060E-002
          10  0.13699010363973013     
          11  0.38764657380240775     
          12 -0.56347026656443999     
          13   6.7936897445099230E-004
          14  -5.1091239171312024E-002
          15 -0.65567627433474496     
          16 -0.33017718227205300     
          17   3.5262274281409017E-002
          18 -0.12361599333436185     
          19 -0.20184903554058692     
          20  0.65444480046235809     
Sym=    16a
Ene=   -5.5770308399579784E-002
Spin= Alpha
Occup=     0.00000000
           1  -4.8566859271149274E-002
           2   3.9167859417148669E-002
           3   3.9444610472870331E-002
           4  -8.5210412019335532E-002
           5 -0.59134202275689296     
           6  0.68050535386073563     
           7   5.9568353811559054E-002
           8 -0.22108979765368464     
           9  0.10719053257640695     
          10  0.39863361538626552     
          11  0.26239335726652335     
          12 -0.36954869244494382     
          13  0.36620152493375541     
          14 -0.13525805288051984     
          15  0.17316372059948590     
          16 -0.32338118631117529     
          17  0.10749251469475536     
          18  0.38359978566847991     
          19   9.0025819265238602E-002
          20 -0.45713602978881113     
Sym=    17a
Ene=   -1.6049684769072606E-002
Spin= Alpha
Occup=     0.00000000
           1 -0.45531750898990492     
           2  0.27488766457194136     
           3  -9.5582084837650919E-002
           4  0.14920988039697347     
           5  -3.5285250680703928E-002
           6  0.47390139715930280     
           7  -9.7324930538179005E-002
           8  0.12416884686687364     
           9  0.38373541830542679     
          10  0.29282958218004140     
          11   2.0554578924641791E-002
          12  0.34388348994890677     
          13 -0.29293533791747578     
          14  0.54108798522667656     
          15 -0.29044072741771720     
          16  0.49420559984789070     
          17  0.38365741637229567     
          18  0.26610761086453705     
          19 -0.32239760205030787     
          20  0.17563654935941814     
Sym=    18a
Ene=   0.11664861990264180     
Spin= Alpha
Occup=     0.00000000
           1  0.12009833868788938     
           2  0.23239259890732258     
           3  0.43115313082535833     
           4 -0.89637795553608202     
           5 -0.45955834912885624     
           6 -0.37204057550199482     
           7  0.29215147739322628     
           8 -0.52645741208340413     
           9   3.1879019912423062E-002
          10  -1.7879949282969539E-002
          11  -3.5833113572854583E-002
          12  0.13088259891910395     
          13  0.24603634621529574     
          14  0.57379687825867209     
          15  -8.6498116747478732E-002
          16   8.5309424585962051E-002
          17   3.1537284467499364E-002
          18  -2.1474580420046494E-002
          19  -8.0507633695601280E-002
          20  0.10859265026387881     
Sym=    19a
Ene=   0.26767236169834779     
Spin= Alpha
Occup=     0.00000000
           1   5.7160790847327969E-004
           2  -5.0539539603477440E-003
           3  -5.7504184408043849E-002
           4  -2.8603313311821383E-002
           5  -5.7070902126673628E-004
           6   1.8680829226220826E-002
           7  0.23766609904436883     
           8  0.11871860887448055     
           9  0.73126307911498178     
          10  0.18456463295594977     
          11  0.73206883028063263     
          12  0.41741184159902195     
          13  -7.8228755791550720E-005
          14   1.5302030317002403E-002
          15  0.21255061309561984     
          16  0.10614264371627589     
          17 -0.73123089603564217     
          18  -6.8313578846544959E-002
          19  0.78799912901081348     
          20  0.34387635222037416     
Sym=    20a
Ene=   0.39637866265740718     
Spin= Alpha
Occup=     0.00000000
           1  0.76955393218356816     
           2 -0.78714249037884332     
           3   8.8055361293847556E-002
           4  -5.5862360377458342E-002
           5 -0.40803624182648396     
           6   9.2393627713586168E-002
           7  0.20210876628213817     
           8 -0.41784928735909177     
           9  0.18012006781542836     
          10  0.18581210574147716     
          11   2.5741669735108420E-002
          12  0.17463871219274726     
          13 -0.74543022133453618     
          14 -0.56946981083767012     
          15 -0.21922285118135867     
          16  0.52370594401699877     
          17  0.18121323976403997     
          18  0.17055115362464310     
          19 -0.17814859883478346     
          20   7.3009863086871837E-002
