5
 energy: -10.865548755767 gnorm: 0.136736102880 xtb: 6.2.2 (9d81278992624c895f80dd42a50cac0aa55982e2)
C         1.55813300000000   -0.30572600000000    0.37297400000000
N         0.46893200000000    0.18898100000000   -0.44828300000000
C        -0.85804500000000   -0.45703400000000   -0.64010700000000
C        -0.41300800000000   -0.31080800000000    0.68340900000000
C        -0.75601200000000    0.88458700000000    0.03200700000000
5
 energy: -10.883348003013 gnorm: 0.079651859151 xtb: 6.2.2 (9d81278992624c895f80dd42a50cac0aa55982e2)
C         1.48741029914894   -0.28826583381945    0.34901705266946
N         0.47135547750134    0.19060540734501   -0.45203145651268
C        -0.82477996485462   -0.47536049530375   -0.65036864290054
C        -0.41384327256875   -0.32654920397768    0.71490834047676
C        -0.72014253922691    0.89957012575588    0.03847470626700
5
 energy: -10.894001617825 gnorm: 0.110360424386 xtb: 6.2.2 (9d81278992624c895f80dd42a50cac0aa55982e2)
C         1.32327099660887   -0.26008378804009    0.31800560971195
N         0.47465483196967    0.20883987355069   -0.48921979333828
C        -0.75245366039113   -0.51479693362505   -0.65740698084362
C        -0.40232017844234   -0.35367542284669    0.76722369314682
C        -0.64315198974507    0.91971627096115    0.06139747132313
5
 energy: -10.903828447617 gnorm: 0.070125463587 xtb: 6.2.2 (9d81278992624c895f80dd42a50cac0aa55982e2)
C         1.31129358691321   -0.27515076028934    0.34996611909365
N         0.46856866208777    0.22638029842481   -0.52338160130683
C        -0.76197430104813   -0.51368171578490   -0.65228213737742
C        -0.36488611511018   -0.35364641045471    0.76148252554708
C        -0.65300183284267    0.91609858810414    0.06421509404353
5
 energy: -10.906636616777 gnorm: 0.202990868366 xtb: 6.2.2 (9d81278992624c895f80dd42a50cac0aa55982e2)
C         1.12622392903244   -0.34498710945280    0.51764736328448
N         0.44162487645691    0.33404489986258   -0.73445276337747
C        -0.77840082952352   -0.51819624540475   -0.61931679198730
C        -0.11870572762177   -0.36514438255670    0.74724442655151
C        -0.67074224834405    0.89428283755167    0.08887776552879
5
 energy: -10.924849844577 gnorm: 0.065742423807 xtb: 6.2.2 (9d81278992624c895f80dd42a50cac0aa55982e2)
C         1.23979670776919   -0.31023558001905    0.43077576426347
N         0.45734841724713    0.27801252545652   -0.62476784868365
C        -0.77335851386469   -0.50268715179601   -0.63151398109334
C        -0.25678817774331   -0.35939362834888    0.75677083935225
C        -0.66699843340832    0.89430383470743    0.06873522616127
5
 energy: -10.928416716848 gnorm: 0.047913408139 xtb: 6.2.2 (9d81278992624c895f80dd42a50cac0aa55982e2)
C         1.21988967617511   -0.31648038878939    0.44623895127179
N         0.45503940918964    0.28576958912201   -0.63989806942505
C        -0.77639467689256   -0.49509285393335   -0.62608287830240
C        -0.22724424278378   -0.36002697462369    0.75359521039094
C        -0.67129016568841    0.88583062822443    0.06614678606472
5
 energy: -10.929830531396 gnorm: 0.032680463083 xtb: 6.2.2 (9d81278992624c895f80dd42a50cac0aa55982e2)
C         1.17987380658492   -0.32508196769453    0.46955778970135
N         0.45268405247787    0.29778012075094   -0.66361643307226
C        -0.77955647095295   -0.47899865729609   -0.61626170595729
C        -0.17603686008194   -0.36255201389485    0.75085885276299
C        -0.67696452802790    0.86885251813453    0.05946149656522
5
 energy: -10.930662450859 gnorm: 0.022602491762 xtb: 6.2.2 (9d81278992624c895f80dd42a50cac0aa55982e2)
C         1.19254458818795   -0.31977009234233    0.45698835940710
N         0.45603976293133    0.29190832871939   -0.65236705474444
C        -0.77675898769576   -0.48188521182535   -0.61933870909602
C        -0.19814906720845   -0.36293435935392    0.75499323757849
C        -0.67367629621507    0.87268133480220    0.05972416685488
5
 energy: -10.931440376145 gnorm: 0.040259120484 xtb: 6.2.2 (9d81278992624c895f80dd42a50cac0aa55982e2)
C         1.18594397633421   -0.31675364143949    0.45197108876383
N         0.46029418528506    0.29238695933020   -0.65398393246345
C        -0.77247689187738   -0.48007139428535   -0.61888269140839
C        -0.20407033909359   -0.36629009197383    0.76259860968641
C        -0.66969093064830    0.87072816836847    0.05829692542160
5
 energy: -10.934892597639 gnorm: 0.087094667180 xtb: 6.2.2 (9d81278992624c895f80dd42a50cac0aa55982e2)
C         1.17154458958825   -0.31209495747411    0.44487223316407
N         0.46714534755450    0.29664470136431   -0.66354884755023
C        -0.76266020599535   -0.47929716183537   -0.61811145478011
C        -0.21592101871972   -0.37371662229896    0.77923167890166
C        -0.66010871242768    0.86846404024414    0.05755639026460
5
 energy: -10.950078851246 gnorm: 0.137698004690 xtb: 6.2.2 (9d81278992624c895f80dd42a50cac0aa55982e2)
C         1.13894748390828   -0.30320364614277    0.43209981329590
N         0.48002744747677    0.30842808970741   -0.68906453217267
C        -0.74026141258368   -0.47855427368046   -0.61596053931459
C        -0.24057462942476   -0.39025862004997    0.81601359881533
C        -0.63813888937661    0.86358845016580    0.05691165937603
5
 energy: -10.968758160917 gnorm: 0.081506390949 xtb: 6.2.2 (9d81278992624c895f80dd42a50cac0aa55982e2)
C         1.08599866006556   -0.29122396358021    0.41625976026685
N         0.49942216998278    0.32752661956546   -0.73017423447125
C        -0.70756218785427   -0.47412289390842   -0.61024127737994
C        -0.27123254321259   -0.41460896817132    0.86930653465203
C        -0.60662609898148    0.85242920609449    0.05484921693231
5
 energy: -10.975785863147 gnorm: 0.040652016755 xtb: 6.2.2 (9d81278992624c895f80dd42a50cac0aa55982e2)
C         1.03088911788830   -0.28326803722294    0.40872528071635
N         0.52877783583494    0.34373331874245   -0.76691739000707
C        -0.68918600316722   -0.45407644922111   -0.59673592547103
C        -0.27881505778623   -0.43393881655885    0.90907940462624
C        -0.59166589276980    0.82754998426045    0.04584863013551
5
 energy: -10.976739487134 gnorm: 0.030021983775 xtb: 6.2.2 (9d81278992624c895f80dd42a50cac0aa55982e2)
C         1.02729793992773   -0.27971733395893    0.40216256805139
N         0.54104891874210    0.33956619731118   -0.76040877142793
C        -0.69227951638475   -0.44871630903563   -0.59604306973335
C        -0.28065431130190   -0.43533150282199    0.91213481538430
C        -0.59541303098319    0.82419894850537    0.04215445772560
5
 energy: -10.977571708417 gnorm: 0.007992709873 xtb: 6.2.2 (9d81278992624c895f80dd42a50cac0aa55982e2)
C         1.02159443604784   -0.27667379524151    0.39694382973856
N         0.56245182441085    0.33228147819387   -0.74905497769878
C        -0.70390997403785   -0.44287060324645   -0.59575344149310
C        -0.27250144128251   -0.43464530280290    0.90951731933699
C        -0.60763484513834    0.82190822309698    0.03834727011634
5
 energy: -10.977604581316 gnorm: 0.002109937666 xtb: 6.2.2 (9d81278992624c895f80dd42a50cac0aa55982e2)
C         1.02229958413925   -0.27690198330875    0.39730501433451
N         0.56265368485244    0.33213705033808   -0.74882413099289
C        -0.70473492760874   -0.44525427510892   -0.59683537093923
C        -0.27211993309168   -0.43425836009786    0.90869359249819
C        -0.60809840829128    0.82427756817746    0.03966089509943
5
 energy: -10.977606914669 gnorm: 0.000795825250 xtb: 6.2.2 (9d81278992624c895f80dd42a50cac0aa55982e2)
C         1.02212988729221   -0.27707362266107    0.39768812620972
N         0.56298862946744    0.33234430197819   -0.74932330969377
C        -0.70509121829510   -0.44559590952509   -0.59704085235438
C        -0.27162710870953   -0.43435643809289    0.90882678864588
C        -0.60840018975502    0.82468166830086    0.03984924719256
