$hessian                                                                        
        0.4749557366  -0.0482499878   0.0224672280  -0.0507935314   0.0415703692
       -0.0735513854  -0.0646264830   0.0200382779  -0.0358115796  -0.2951203867
       -0.0377220250   0.1211745295  -0.0644153355   0.0243633656  -0.0342787926
       -0.0482499878   0.0647436818  -0.1406535115   0.0349100732  -0.0520024664
        0.1200762564   0.0199988391   0.0018192309   0.0023938741  -0.0257424443
       -0.0044439203   0.0267034875   0.0190835198  -0.0101165260  -0.0085201065
        0.0224672280  -0.1406535115   0.2682550100  -0.0603182801   0.1191180132
       -0.2178643469  -0.0310475650  -0.0175326369   0.0013499437   0.0975717391
        0.0286462417  -0.0649125418  -0.0286731220   0.0104218934   0.0131719350
       -0.0507935314   0.0349100732  -0.0603182801   0.2956785656   0.0193165848
       -0.0786031679  -0.1261990585  -0.0908564267   0.0143862292  -0.0097171234
       -0.0160523549   0.0363116598  -0.1089688522   0.0526821236   0.0882235590
        0.0415703692  -0.0520024664   0.1191180132   0.0193165848   0.1177228740
       -0.1777380480  -0.0523857568  -0.0271364898  -0.0063003775  -0.0346489567
       -0.0025942119   0.0482555417   0.0261477595  -0.0359897059   0.0166648706
       -0.0735513854   0.1200762564  -0.2178643469  -0.0786031679  -0.1777380480
        0.3968864594   0.0213082419   0.0279091265  -0.0439355178   0.0734861654
        0.0453057653  -0.0829113683   0.0573601460  -0.0155531003  -0.0521752264
       -0.0646264830   0.0199988391  -0.0310475650  -0.1261990585  -0.0523857568
        0.0213082419   0.1585094589   0.0993343198   0.0677738308  -0.0203113486
       -0.0121180456  -0.0294497005   0.0526274312  -0.0548293564  -0.0285848072
        0.0200382779   0.0018192309  -0.0175326369  -0.0908564267  -0.0271364898
        0.0279091265   0.0993343198   0.3062123762   0.1543638925  -0.0346453229
       -0.0043814218  -0.0109173969   0.0061291520  -0.2765136955  -0.1538229853
       -0.0358115796   0.0023938741   0.0013499437   0.0143862292  -0.0063003775
       -0.0439355178   0.0677738308   0.1543638925   0.1662586860  -0.0440093224
        0.0596685803  -0.1194702820  -0.0023391580  -0.2101259694  -0.0042028300
       -0.2951203867  -0.0257424443   0.0975717391  -0.0097171234  -0.0346489567
        0.0734861654  -0.0203113486  -0.0346453229  -0.0440093224   0.3351027036
        0.0387255808  -0.1283732524  -0.0099538449   0.0563111431   0.0013246703
       -0.0377220250  -0.0044439203   0.0286462417  -0.0160523549  -0.0025942119
        0.0453057653  -0.0121180456  -0.0043814218   0.0596685803   0.0387255808
        0.0770894902  -0.1587718259   0.0271668447  -0.0656699362   0.0251512386
        0.1211745295   0.0267034875  -0.0649125418   0.0363116598   0.0482555417
       -0.0829113683  -0.0294497005  -0.0109173969  -0.1194702820  -0.1283732524
       -0.1587718259   0.3364810515   0.0003367636   0.0947301937  -0.0691868594
       -0.0644153355   0.0190835198  -0.0286731220  -0.1089688522   0.0261477595
        0.0573601460   0.0526274312   0.0061291520  -0.0023391580  -0.0099538449
        0.0271668447   0.0003367636   0.1307106013  -0.0785272759  -0.0266846296
        0.0243633656  -0.0101165260   0.0104218934   0.0526821236  -0.0359897059
       -0.0155531003  -0.0548293564  -0.2765136955  -0.2101259694   0.0563111431
       -0.0656699362   0.0947301937  -0.0785272759   0.3882898637   0.1205269826
       -0.0342787926  -0.0085201065   0.0131719350   0.0882235590   0.0166648706
       -0.0521752264  -0.0285848072  -0.1538229853  -0.0042028300   0.0013246703
        0.0251512386  -0.0691868594  -0.0266846296   0.1205269826   0.1123929809
