4
 energy: -8.011989970343 gnorm: 0.000064547801 xtb: 6.2.2 (9d81278992624c895f80dd42a50cac0aa55982e2)
C         1.14335603984328   -0.47566457952094   -0.14793540701057
C         0.00138326051095   -0.00179116005105    0.42665100700181
C        -0.98484452075910   -0.75185389271867   -0.14217457168413
C        -0.15989477959164    1.22930963229240   -0.13654002830711
