      -----------------------------------------------------------      
     |                   =====================                   |     
     |                           x T B                           |     
     |                   =====================                   |     
     |                         S. Grimme                         |     
     |          Mulliken Center for Theoretical Chemistry        |     
     |                    University of Bonn                     |     
      -----------------------------------------------------------      

   * xtb version 6.2.2 (9d81278992624c895f80dd42a50cac0aa55982e2) compiled by '@Darwin' on 04/03/2020

   xtb is free software: you can redistribute it and/or modify it under
   the terms of the GNU Lesser General Public License as published by
   the Free Software Foundation, either version 3 of the License, or
   (at your option) any later version.
   
   xtb is distributed in the hope that it will be useful,
   but WITHOUT ANY WARRANTY; without even the implied warranty of
   MERCHANTABILITY or FITNESS FOR A PARTICULAR PURPOSE.  See the
   GNU Lesser General Public License for more details.
   
   Cite this work as:
   * S. Grimme, C. Bannwarth, P. Shushkov, J. Chem. Theory Comput., 2017,
     13, 1989-2009. DOI: 10.1021/acs.jctc.7b00118
   * C. Bannwarth, S. Ehlert and S. Grimme., J. Chem. Theory Comput., 2019,
     15, 1652-1671. DOI: 10.1021/acs.jctc.8b01176
   * P. Pracht, E. Caldeweyher, S. Ehlert, S. Grimme, ChemRxiv, 2019, preprint.
     DOI: 10.26434/chemrxiv.8326202.v1
   
   for DFT-D4:
   * E. Caldeweyher, C. Bannwarth and S. Grimme, J. Chem. Phys., 2017,
     147, 034112. DOI: 10.1063/1.4993215
   * E. Caldeweyher, S. Ehlert, A. Hansen, H. Neugebauer, S. Spicher,
     C. Bannwarth and S. Grimme, J. Chem. Phys., 2019, 150, 154122.
     DOI: 10.1063/1.5090222
   
   for sTDA-xTB:
   * S. Grimme and C. Bannwarth, J. Chem. Phys., 2016, 145, 054103.
     DOI: 10.1063/1.4959605
   
   in the mass-spec context:
   * V. Asgeirsson, C. Bauer and S. Grimme, Chem. Sci., 2017, 8, 4879.
     DOI: 10.1039/c7sc00601b
   
   for metadynamics refer to:
   * S. Grimme, J. Chem. Theory Comput., 2019, 155, 2847-2862
     DOI: 10.1021/acs.jctc.9b00143
   
   with help from (in alphabetical order)
   C. Bannwarth, F. Bohle, G. Brandenburg, E. Caldeweyher, M. Checinski,
   S. Dohm, S. Ehlert, S. Ehrlich, F. März, H. Neugebauer, J. Pisarek,
   P. Pracht, P. Shushkov, and S. Spicher.
   
 * started run on 2020/05/12 at 14:38:39.405     

           -------------------------------------------------
          |                Calculation Setup                |
           -------------------------------------------------

          program call               : xtb --input C4_0_S_2.input C4_0_S_2.xyz --ohess --molden --namespace C4_0_S_2 output.out
          calculation namespace      : C4_0_S_2
          coordinate file            : C4_0_S_2.xyz
          number of atoms            :                     4
          number of electrons        :                    16
          charge                     :                     0
          spin                       :                   1.0
          first test random number   :      0.53120320247972

   ID    Z sym.   atoms
    1    6 C      1-4

           -------------------------------------------------
          |                 G F N 2 - x T B                 |
           -------------------------------------------------

        Reference                      10.1021/acs.jctc.8b01176
      * Hamiltonian:
        H0-scaling (s, p, d)           1.850000    2.230000    2.230000
        zeta-weighting                 0.500000
      * Dispersion:
        s8                             2.700000
        a1                             0.520000
        a2                             5.000000
        s9                             5.000000
      * Repulsion:
        kExp                           1.500000    1.000000
        rExp                           1.000000
      * Coulomb:
        alpha                          2.000000
        third order                    shell-resolved
        anisotropic                    true
        a3                             3.000000
        a5                             4.000000
        cn-shift                       1.200000
        cn-exp                         4.000000
        max-rad                        5.000000

q/qsh data taken from xtbrestart
CAMM data taken from xtbrestart

          ...................................................
          :                      SETUP                      :
          :.................................................:
          :  # basis functions                  16          :
          :  # atomic orbitals                  16          :
          :  # shells                            8          :
          :  # electrons                        16          :
          :  max. iterations                   250          :
          :  Hamiltonian                  GFN2-xTB          :
          :  restarted?                       true          :
          :  GBSA solvation                  false          :
          :  PC potential                    false          :
          :  electronic temp.          300.0000000     K    :
          :  accuracy                    1.0000000          :
          :  -> integral cutoff          0.2500000E+02      :
          :  -> integral neglect         0.1000000E-07      :
          :  -> SCF convergence          0.1000000E-05 Eh   :
          :  -> wf. convergence          0.1000000E-03 e    :
          :  Broyden damping             0.4000000          :
          ...................................................

 iter      E             dE          RMSdq      gap      omega  full diag
   1     -7.9636262 -0.796363E+01  0.111E+01    0.75       0.0  T
   2     -7.5949600  0.368666E+00  0.925E+00    0.47       1.0  T
   3     -5.7325408  0.186242E+01  0.176E+01    1.48       1.0  T
   4     -7.6544107 -0.192187E+01  0.756E+00    0.90       1.0  T
   5     -7.2994320  0.354979E+00  0.907E+00    0.58       1.0  T
   6     -7.9909842 -0.691552E+00  0.192E+00    0.83       1.0  T
   7     -7.9984733 -0.748916E-02  0.135E+00    0.83       1.0  T
   8     -8.0015621 -0.308874E-02  0.934E-01    0.84       1.0  T
   9     -8.0038635 -0.230150E-02  0.187E-01    0.85       1.0  T
  10     -8.0039509 -0.873245E-04  0.691E-02    0.85       1.0  T
  11     -8.0039644 -0.134881E-04  0.179E-02    0.85       2.8  T
  12     -8.0039662 -0.188540E-05  0.376E-03    0.85      13.3  T
  13     -8.0039663 -0.491546E-07  0.133E-03    0.85      37.6  T
  14     -8.0039663 -0.109355E-07  0.415E-04    0.85     120.5  T
  15     -8.0039663 -0.891122E-09  0.101E-04    0.85     492.7  T

   *** convergence criteria satisfied after 15 iterations ***

         #    Occupation            Energy/Eh            Energy/eV
      -------------------------------------------------------------
         1        2.0000           -0.7232457             -19.6805
       ...           ...                  ...                  ...
         3        2.0000           -0.6712051             -18.2644
         4        2.0000           -0.5601214             -15.2417
         5        2.0000           -0.5234320             -14.2433
         6        2.0000           -0.5126212             -13.9491
         7        2.0000           -0.5126211             -13.9491
         8        1.0000           -0.4363332             -11.8732
         9        1.0000           -0.4363332             -11.8732 (HOMO)
        10                         -0.4051454             -11.0246 (LUMO)
        11                         -0.4051454             -11.0246
        12                         -0.4000706             -10.8865
        13                         -0.3258901              -8.8679
        14                          0.0544263               1.4810
       ...                                ...                  ...
        16                          0.0750806               2.0430
      -------------------------------------------------------------
                  HL-Gap            0.0311877 Eh            0.8487 eV
             Fermi-level           -0.4476088 Eh          -12.1801 eV

 transition dipole moment (au) for excitation:           8           9
     X       Y       Z   
  -0.0569  -0.2082  -0.0007  total (au/Debye):    0.216   0.549
 dE (eV)             :    0.000
 oscillator strength :  0.17804E-08

 SCC (total)                   0 d,  0 h,  0 min,  0.005 sec
 SCC setup                      ...        0 min,  0.000 sec (  1.787%)
 Dispersion                     ...        0 min,  0.000 sec (  0.316%)
 integral evaluation            ...        0 min,  0.001 sec ( 22.018%)
 zeroth order Hamiltonian       ...        0 min,  0.000 sec (  0.264%)
 iterations                     ...        0 min,  0.002 sec ( 41.823%)
 molecular gradient             ...        0 min,  0.001 sec ( 20.011%)
 printout                       ...        0 min,  0.001 sec ( 13.570%)

         :::::::::::::::::::::::::::::::::::::::::::::::::::::
         ::                     SUMMARY                     ::
         :::::::::::::::::::::::::::::::::::::::::::::::::::::
         :: total energy              -7.959125449901 Eh    ::
         :: gradient norm              0.197628455528 Eh/a0 ::
         :: HOMO-LUMO gap              0.848661474959 eV    ::
         ::.................................................::
         :: SCC energy                -8.003966308188 Eh    ::
         :: -> isotropic ES           -0.044453775136 Eh    ::
         :: -> anisotropic ES         -0.001212145385 Eh    ::
         :: -> anisotropic XC          0.008526673822 Eh    ::
         :: -> dispersion             -0.002041133452 Eh    ::
         :: repulsion energy           0.044840789665 Eh    ::
         :: add. restraining           0.000000000000 Eh    ::
         :::::::::::::::::::::::::::::::::::::::::::::::::::::

      ----------------------------------------------------------- 
     |                   =====================                   |
     |                        A N C O P T                        |
     |                   =====================                   |
     |               Approximate Normal Coordinate               |
     |                Rational Function Optimizer                |
      ----------------------------------------------------------- 

          ...................................................
          :                      SETUP                      :
          :.................................................:
          :   optimization level            normal          :
          :   max. optcycles                   200          :
          :   ANC micro-cycles                  20          :
          :   degrees of freedom                 6          :
          :.................................................:
          :   RF solver                   davidson          :
          :   write xtbopt.log                true          :
          :   linear?                        false          :
          :   energy convergence         0.5000000E-05 Eh   :
          :   grad. convergence          0.1000000E-02 Eh/α :
          :   maximium RF displ.         1.0000000          :
          :   Hlow (freq-cutoff)         0.1000000E-01      :
          :   Hmax (freq-cutoff)         5.0000000          :
          :   S6 in model hess.         20.0000000          :
          ...................................................

generating ANC from model Hessian ...
Using Lindh-Hessian (1995)
 Shifting diagonal of input Hessian by    0.0000000000000000     
 Lowest  eigenvalues of input Hessian
   -0.000000   -0.000000   -0.000000   -0.000000    0.000000    0.000000
    0.059746    0.071062    0.071062    0.571709    0.976882    0.976884
 Highest eigenvalues
    0.059746    0.071062    0.071062    0.571709    0.976882    0.976884


........................................................................
.............................. CYCLE    1 ..............................
........................................................................
   1     -8.0039663 -0.800397E+01  0.316E-05    0.85       0.0  T
   2     -8.0039663  0.696865E-10  0.936E-05    0.85     534.1  T
   3     -8.0039663 -0.582130E-10  0.448E-05    0.85    1115.5  T
     SCC iter.                  ...        0 min,  0.000 sec
     gradient                   ...        0 min,  0.001 sec
 * total energy  :    -7.9591254 Eh     change       -0.5411316E-10 Eh
   gradient norm :     0.1976285 Eh/α   predicted     0.0000000E+00 (-100.00%)
   displ. norm   :     0.3390666 α      lambda       -0.6336898E-01
   maximum displ.:     0.3100481 α      in ANC's #4, #1, #2, ...

........................................................................
.............................. CYCLE    2 ..............................
........................................................................
   1     -8.0940402 -0.809404E+01  0.147E+00    1.19       0.0  T
   2     -8.0957394 -0.169922E-02  0.115E+00    1.19       1.0  T
   3     -8.0979152 -0.217582E-02  0.598E-01    1.19       1.0  T
   4     -8.0979969 -0.816543E-04  0.561E-02    1.19       1.0  T
   5     -8.0979990 -0.210265E-05  0.173E-02    1.19       2.9  T
   6     -8.0979871  0.118487E-04  0.400E-02    1.19       1.3  T
   7     -8.0979995 -0.123858E-04  0.159E-03    1.19      31.4  T
   8     -8.0979995  0.133395E-08  0.475E-04    1.19     105.2  T
   9     -8.0979995  0.491641E-08  0.912E-04    1.19      54.8  T
     SCC iter.                  ...        0 min,  0.001 sec
     gradient                   ...        0 min,  0.001 sec
 * total energy  :    -8.0054997 Eh     change       -0.4637422E-01 Eh
   gradient norm :     0.0754559 Eh/α   predicted    -0.3532713E-01 ( -23.82%)
   displ. norm   :     0.2780708 α      lambda       -0.1644769E-01
   maximum displ.:     0.2078964 α      in ANC's #1, #4, #2, ...

........................................................................
.............................. CYCLE    3 ..............................
........................................................................
   1     -8.1490699 -0.814907E+01  0.130E+00    1.76       0.0  T
   2     -8.1504777 -0.140782E-02  0.832E-01    1.76       1.0  T
   3     -8.1511623 -0.684589E-03  0.484E-01    1.76       1.0  T
   4     -8.1512847 -0.122369E-03  0.305E-02    1.76       1.6  T
   5     -8.1512771  0.756836E-05  0.333E-02    1.76       1.5  T
   6     -8.1512849 -0.777484E-05  0.915E-03    1.76       5.5  T
   7     -8.1512854 -0.512552E-06  0.130E-03    1.76      38.5  T
   8     -8.1512854  0.210750E-08  0.536E-04    1.76      93.3  T
   9     -8.1512854 -0.215199E-08  0.666E-05    1.76     750.3  T
     SCC iter.                  ...        0 min,  0.001 sec
     gradient                   ...        0 min,  0.001 sec
 * total energy  :    -8.0100915 Eh     change       -0.4591788E-02 Eh
   gradient norm :     0.0525451 Eh/α   predicted    -0.8859742E-02 (  92.95%)
   displ. norm   :     0.0923438 α      lambda       -0.4060145E-02
   maximum displ.:     0.0725317 α      in ANC's #4, #1, #2, ...

........................................................................
.............................. CYCLE    4 ..............................
........................................................................
   1     -8.1299250 -0.812993E+01  0.485E-01    1.84       0.0  T
   2     -8.1300025 -0.774618E-04  0.340E-01    1.84       1.0  T
   3     -8.1300197 -0.172131E-04  0.178E-01    1.84       1.0  T
   4     -8.1300707 -0.509536E-04  0.187E-02    1.84       2.7  T
   5     -8.1300684  0.229271E-05  0.175E-02    1.84       2.9  T
   6     -8.1300708 -0.237387E-05  0.209E-03    1.84      23.9  T
   7     -8.1300708 -0.318360E-07  0.211E-04    1.84     237.0  T
   8     -8.1300708  0.252772E-09  0.186E-04    1.84     269.1  T
     SCC iter.                  ...        0 min,  0.000 sec
     gradient                   ...        0 min,  0.001 sec
 * total energy  :    -8.0119136 Eh     change       -0.1822108E-02 Eh
   gradient norm :     0.0070226 Eh/α   predicted    -0.2047383E-02 (  12.36%)
   displ. norm   :     0.0306990 α      lambda       -0.1036748E-03
   maximum displ.:     0.0295259 α      in ANC's #1, #4, #3, ...

........................................................................
.............................. CYCLE    5 ..............................
........................................................................
   1     -8.1317759 -0.813178E+01  0.158E-01    1.93       0.0  T
   2     -8.1317825 -0.661651E-05  0.912E-02    1.93       1.0  T
   3     -8.1317822  0.261962E-06  0.605E-02    1.93       1.0  T
   4     -8.1317886 -0.638401E-05  0.188E-03    1.93      26.5  T
   5     -8.1317885  0.143646E-06  0.451E-03    1.93      11.1  T
   6     -8.1317886 -0.150773E-06  0.288E-04    1.93     173.4  T
   7     -8.1317886 -0.237097E-09  0.772E-05    1.93     647.8  T
     SCC iter.                  ...        0 min,  0.000 sec
     gradient                   ...        0 min,  0.001 sec
 * total energy  :    -8.0119815 Eh     change       -0.6790213E-04 Eh
   gradient norm :     0.0017456 Eh/α   predicted    -0.5188775E-04 ( -23.58%)
   displ. norm   :     0.0274609 α      lambda       -0.1648346E-04
   maximum displ.:     0.0270802 α      in ANC's #1, #4, #2, ...

........................................................................
.............................. CYCLE    6 ..............................
........................................................................
   1     -8.1323158 -0.813232E+01  0.144E-01    2.00       0.0  T
   2     -8.1323193 -0.350532E-05  0.821E-02    2.00       1.0  T
   3     -8.1323164  0.282562E-05  0.533E-02    2.00       1.0  T
   4     -8.1323226 -0.612952E-05  0.303E-03    2.00      16.5  T
   5     -8.1323226 -0.252555E-07  0.234E-03    2.00      21.4  T
   6     -8.1323226 -0.337862E-07  0.151E-04    2.00     332.1  T
   7     -8.1323226 -0.127525E-10  0.302E-05    2.00    1656.1  T
     SCC iter.                  ...        0 min,  0.000 sec
     gradient                   ...        0 min,  0.001 sec
 * total energy  :    -8.0119883 Eh     change       -0.6867447E-05 Eh
   gradient norm :     0.0006678 Eh/α   predicted    -0.8242888E-05 (  20.03%)
   displ. norm   :     0.0085192 α      lambda       -0.2130969E-05
   maximum displ.:     0.0084276 α      in ANC's #1, #4, #3, ...

........................................................................
.............................. CYCLE    7 ..............................
........................................................................
   1     -8.1322192 -0.813222E+01  0.449E-02    1.98       0.0  T
   2     -8.1322195 -0.311207E-06  0.255E-02    1.98       2.0  T
   3     -8.1322192  0.302398E-06  0.163E-02    1.98       3.1  T
   4     -8.1322198 -0.593888E-06  0.824E-04    1.98      60.7  T
   5     -8.1322198  0.236316E-09  0.807E-04    1.98      62.0  T
     SCC iter.                  ...        0 min,  0.000 sec
     gradient                   ...        0 min,  0.001 sec
 * total energy  :    -8.0119900 Eh     change       -0.1633833E-05 Eh
   gradient norm :     0.0000645 Eh/α   predicted    -0.1066596E-05 ( -34.72%)
   displ. norm   :     0.0001330 α      lambda       -0.9406810E-08
   maximum displ.:     0.0001259 α      in ANC's #4, #3, #1, ...

   *** GEOMETRY OPTIMIZATION CONVERGED AFTER 7 ITERATIONS ***

------------------------------------------------------------------------
 total energy gain   :        -0.0528645 Eh      -33.1730 kcal/mol
 total RMSD          :         0.3127286 a0        0.1655 Å
 total power (kW/mol):       -19.8279672 (step)-7901.7245 (real)
------------------------------------------------------------------------

 ANCopt (total)                0 d,  0 h,  0 min,  0.018 sec
 optimizer setup                ...        0 min,  0.000 sec (  0.688%)
 model hessian                  ...        0 min,  0.000 sec (  0.307%)
 ANC generation                 ...        0 min,  0.000 sec (  0.187%)
 coordinate transformation      ...        0 min,  0.000 sec (  0.244%)
 single point calculation       ...        0 min,  0.017 sec ( 94.734%)
 optimization log               ...        0 min,  0.000 sec (  1.810%)
 hessian update                 ...        0 min,  0.000 sec (  0.060%)
 rational function              ...        0 min,  0.000 sec (  0.834%)

================
 final structure:
================
4
 xtb: 6.2.2 (9d81278992624c895f80dd42a50cac0aa55982e2)
C         1.14335904678654   -0.47565833472644   -0.14793224611612
C         0.00138178059645   -0.00179189745478    0.42665100870093
C        -0.98484008775895   -0.75185880119363   -0.14217932166680
C        -0.15990073962404    1.22930903337485   -0.13653844091801

 Bond Distances (Angstroems)
 ---------------------------
C1-C2=1.3634         C2-C1=1.3634         C2-C3=1.3634         C2-C4=1.3634         C3-C2=1.3634         C4-C2=1.3634         
 C  C  Rav=1.3634 sigma=0.0000  Rmin=1.3634  Rmax=1.3634     3

 selected bond angles (degree)
 --------------------
C3-C2-C1=103.82                C4-C2-C1=103.82                C4-C2-C3=103.82                

 selected dihedral angles (degree)
 ---------------------------------

           -------------------------------------------------
          |                Final Singlepoint                |
           -------------------------------------------------

          ...................................................
          :                      SETUP                      :
          :.................................................:
          :  # basis functions                  16          :
          :  # atomic orbitals                  16          :
          :  # shells                            8          :
          :  # electrons                        16          :
          :  max. iterations                   250          :
          :  Hamiltonian                  GFN2-xTB          :
          :  restarted?                      false          :
          :  GBSA solvation                  false          :
          :  PC potential                    false          :
          :  electronic temp.          300.0000000     K    :
          :  accuracy                    1.0000000          :
          :  -> integral cutoff          0.2500000E+02      :
          :  -> integral neglect         0.1000000E-07      :
          :  -> SCF convergence          0.1000000E-05 Eh   :
          :  -> wf. convergence          0.1000000E-03 e    :
          :  Broyden damping             0.4000000          :
          ...................................................

 iter      E             dE          RMSdq      gap      omega  full diag
   1     -8.1322198 -0.813222E+01  0.241E-04    1.98       0.0  T
   2     -8.1322198  0.442490E-11  0.131E-04    1.98     380.2  T
   3     -8.1322198  0.363773E-09  0.227E-04    1.98     220.0  T

   *** convergence criteria satisfied after 3 iterations ***

         #    Occupation            Energy/Eh            Energy/eV
      -------------------------------------------------------------
         1        2.0000           -0.7523267             -20.4719
       ...           ...                  ...                  ...
         3        2.0000           -0.6735200             -18.3274
         4        2.0000           -0.5708083             -15.5325
         5        2.0000           -0.5163482             -14.0505
         6        2.0000           -0.5026457             -13.6777
         7        2.0000           -0.5026450             -13.6777
         8        1.0000           -0.4315360             -11.7427
         9        1.0000           -0.4315348             -11.7427 (HOMO)
        10                         -0.3588663              -9.7653 (LUMO)
        11                         -0.3588648              -9.7652
        12                         -0.3563843              -9.6977
        13                         -0.2936060              -7.9894
        14                          0.3063951               8.3374
       ...                                ...                  ...
        16                          0.4485524              12.2057
      -------------------------------------------------------------
                  HL-Gap            0.0726684 Eh            1.9774 eV
             Fermi-level           -0.4311455 Eh          -11.7321 eV

 transition dipole moment (au) for excitation:           8           9
     X       Y       Z   
  -0.0330   0.1863   0.0009  total (au/Debye):    0.189   0.481
 dE (eV)             :    0.000
 oscillator strength :  0.40216E-07

 SCC (total)                   0 d,  0 h,  0 min,  0.003 sec
 SCC setup                      ...        0 min,  0.000 sec (  1.744%)
 Dispersion                     ...        0 min,  0.000 sec (  0.226%)
 integral evaluation            ...        0 min,  0.001 sec ( 27.177%)
 zeroth order Hamiltonian       ...        0 min,  0.000 sec (  0.343%)
 iterations                     ...        0 min,  0.000 sec ( 13.797%)
 molecular gradient             ...        0 min,  0.001 sec ( 32.924%)
 printout                       ...        0 min,  0.001 sec ( 23.455%)

         :::::::::::::::::::::::::::::::::::::::::::::::::::::
         ::                     SUMMARY                     ::
         :::::::::::::::::::::::::::::::::::::::::::::::::::::
         :: total energy              -8.011989970343 Eh    ::
         :: gradient norm              0.000064547801 Eh/a0 ::
         :: HOMO-LUMO gap              1.977408813063 eV    ::
         ::.................................................::
         :: SCC energy                -8.132219794529 Eh    ::
         :: -> isotropic ES           -0.030652891483 Eh    ::
         :: -> anisotropic ES         -0.000324677275 Eh    ::
         :: -> anisotropic XC          0.005197283063 Eh    ::
         :: -> dispersion             -0.002039287889 Eh    ::
         :: repulsion energy           0.120229797801 Eh    ::
         :: add. restraining           0.000000000000 Eh    ::
         :::::::::::::::::::::::::::::::::::::::::::::::::::::

           ------------------------------------------------- 
          |                Numerical Hessian                |
           ------------------------------------------------- 
step length          :   0.00500
SCC accuracy         :   0.30000
Hessian scale factor :   1.00000
frozen atoms in %    :   0.00000    0
RMS gradient         :   0.00006
estimated CPU  time      0.00 min
estimated wall time      0.00 min

writing file <hessian>.

 projected vibrational frequencies (cm-1)
eigval :       -0.00    -0.00    -0.00     0.00     0.00     0.00
eigval :      166.62   167.25   293.07  1274.17  1274.22  1314.16
           -------------------------------------------------
          |                Property Printout                |
           -------------------------------------------------

    * Orbital Energies and Occupations

         #    Occupation            Energy/Eh            Energy/eV
      -------------------------------------------------------------
         1        2.0000           -0.7523268             -20.4719
         2        2.0000           -0.6735207             -18.3274
         3        2.0000           -0.6735200             -18.3274
         4        2.0000           -0.5708083             -15.5325
         5        2.0000           -0.5163482             -14.0505
         6        2.0000           -0.5026456             -13.6777
         7        2.0000           -0.5026451             -13.6777
         8        1.0000           -0.4315360             -11.7427
         9        1.0000           -0.4315348             -11.7427 (HOMO)
        10                         -0.3588664              -9.7653 (LUMO)
        11                         -0.3588648              -9.7652
        12                         -0.3563843              -9.6977
        13                         -0.2936060              -7.9894
        14                          0.3063952               8.3374
        15                          0.3064038               8.3377
        16                          0.4485524              12.2057
      -------------------------------------------------------------
                  HL-Gap            0.0726684 Eh            1.9774 eV
             Fermi-level           -0.4311456 Eh          -11.7321 eV

     #   Z        covCN         q      C6AA      α(0)
     1   6 C      1.411    -0.068    37.501    10.252
Molecule has the following symmetry elements: (C3) 3*(sigma) 
It seems to be the C3v point group
     2   6 C      2.941     0.205    23.665     7.978
     3   6 C      1.411    -0.068    37.502    10.252
     4   6 C      1.411    -0.068    37.502    10.252

 Mol. C6AA /au·bohr⁶  :        539.824393
 Mol. C8AA /au·bohr⁸  :      15612.659521
 Mol. α(0) /au        :         38.733525


Wiberg/Mayer (AO) data.
largest (>0.10) Wiberg bond orders for each atom
          total WBO             WBO to atom ...
     1  C   2.190        C    2 1.288    C    4 0.451    C    3 0.451
     2  C   3.863        C    4 1.288    C    3 1.288    C    1 1.288
     3  C   2.190        C    2 1.288    C    4 0.451    C    1 0.451
     4  C   2.190        C    2 1.288    C    1 0.451    C    3 0.451

MOs/occ written to file <molden.input>


molecular dipole:
                 x           y           z       tot (Debye)
 q only:        0.001      -0.001       0.220
   full:        0.002      -0.002       0.485       1.232
molecular quadrupole (traceless):
                xx          xy          yy          xz          yz          zz
 q only:       -0.340      -0.000      -0.340       0.003      -0.004       0.680
  q+dip:       -1.236      -0.000      -1.236       0.012      -0.016       2.472
   full:       -1.522      -0.000      -1.522       0.015      -0.019       3.045

           -------------------------------------------------
          |                Geometry Summary                 |
           -------------------------------------------------

      molecular mass/u    :       48.0429436
   center of mass at/Å    :        0.0000000       0.0000000       0.0000002
  moments of inertia/u·Å² :        0.3057305E+02   0.3057342E+02   0.5531610E+02
rotational constants/cm⁻¹ :        0.5513887E+00   0.5513820E+00   0.3047509E+00

           -------------------------------------------------
          |               Frequency Printout                |
           -------------------------------------------------
 projected vibrational frequencies (cm-1)
eigval :       -0.00    -0.00    -0.00     0.00     0.00     0.00
eigval :      166.62   167.25   293.07  1274.17  1274.22  1314.16
 reduced masses (amu)
   1: 12.01   2: 12.01   3: 12.01   4: 12.01   5: 12.01   6: 12.01   7: 12.01   8: 12.01
   9: 12.01  10: 12.01  11: 12.01  12: 12.01
 IR intensities (amu)
   1:  0.07   2:  0.10   3:  0.03   4:  0.04   5:  0.13   6:  0.14   7:  0.34   8:  0.33
   9:  0.37  10:  0.46  11:  0.46  12:  0.14
 Raman intensities (amu)
   1:  0.00   2:  0.00   3:  0.00   4:  0.00   5:  0.00   6:  0.00   7:  0.00   8:  0.00
   9:  0.00  10:  0.00  11:  0.00  12:  0.00
 output can be read by thermo (or use thermo option).
 writing <g98.out> molden fake output.
 recommended (thermochemical) frequency scaling factor: 1.0
           -------------------------------------------------
          |             Thermodynamic Functions             |
           -------------------------------------------------

c3v symmetry found (for desy threshold:  0.10E+00) used in thermo

          ...................................................
          :                      SETUP                      :
          :.................................................:
          :  # frequencies                           6      :
          :  # imaginary freq.                       0      :
          :  linear?                             false      :
          :  only rotor calc.                    false      :
          :  symmetry                              c3v      :
          :  rotational number                       3      :
          :  scaling factor                  1.0000000      :
          :  rotor cutoff                   50.0000000 cm⁻¹ :
          :  imag. cutoff                  -20.0000000 cm⁻¹ :
          :.................................................:

    mode    ω/cm⁻¹     T·S(HO)/kcal·mol⁻¹    T·S(FR)/kcal·mol⁻¹   T·S(vib)
   ------------------------------------------------------------------------
       1    166.62    -0.00000 ( 99.20%)     0.01028 (  0.80%)     0.00008
       2    167.25    -0.00000 ( 99.21%)     0.01032 (  0.79%)     0.00008
       3    293.07    -0.00000 ( 99.92%)     0.01588 (  0.08%)     0.00001
   ------------------------------------------------------------------------

   temp. (K)  partition function   enthalpy   heat capacity  entropy
                                   cal/mol     cal/K/mol   cal/K/mol   J/K/mol
 298.15  VIB   4.34                 1062.465      5.917      6.481
         ROT  0.579E+04              888.752      2.981     20.198
         INT  0.252E+05             1951.217      8.898     26.679
         TR   0.322E+27             1481.254      4.968     37.516
         TOT                        3432.4712    13.8657    64.1947   268.5908

   temp. (K)  partition function   enthalpy   heat capacity  entropy
                                   cal/mol     cal/K/mol   cal/K/mol   J/K/mol
 120.00  VIB   1.38                  174.875      3.653      2.103
         ROT  0.148E+04              357.707      2.981     17.485
         INT  0.204E+04              532.582      6.634     19.589
         TR   0.823E+26              596.178      4.968     32.997
         TOT                        1128.7602    11.6021    52.5853   220.0167

   temp. (K)  partition function   enthalpy   heat capacity  entropy
                                   cal/mol     cal/K/mol   cal/K/mol   J/K/mol
 100.00  VIB   1.23                  107.593      3.047      1.493
         ROT  0.112E+04              298.089      2.981     16.942
         INT  0.138E+04              405.682      6.028     18.435
         TR   0.626E+26              496.815      4.968     32.091
         TOT                         902.4975    10.9961    50.5257   211.3997

   temp. (K)  partition function   enthalpy   heat capacity  entropy
                                   cal/mol     cal/K/mol   cal/K/mol   J/K/mol
  80.00  VIB   1.11                   54.227      2.257      0.901
         ROT   805.                  238.471      2.981     16.277
         INT   896.                  292.698      5.238     17.178
         TR   0.448E+26              397.452      4.968     30.983
         TOT                         690.1503    10.2062    48.1607   201.5044

   temp. (K)  partition function   enthalpy   heat capacity  entropy
                                   cal/mol     cal/K/mol   cal/K/mol   J/K/mol
  60.00  VIB   1.04                   18.500      1.294      0.393
         ROT   523.                  178.853      2.981     15.419
         INT   543.                  197.353      4.275     15.812
         TR   0.291E+26              298.089      4.968     29.555
         TOT                         495.4421     9.2429    45.3663   189.8124

   temp. (K)  partition function   enthalpy   heat capacity  entropy
                                   cal/mol     cal/K/mol   cal/K/mol   J/K/mol
  40.00  VIB   1.00                    2.384      0.361      0.074
         ROT   285.                  119.236      2.981     14.211
         INT   286.                  121.619      3.342     14.285
         TR   0.158E+26              198.726      4.968     27.541
         TOT                         320.3452     8.3102    41.8259   174.9997

   temp. (K)  partition function   enthalpy   heat capacity  entropy
                                   cal/mol     cal/K/mol   cal/K/mol   J/K/mol
  20.00  VIB   1.00                    0.006      0.003     -0.006
         ROT   101.                   59.618      2.981     12.144
         INT   101.                   59.624      2.984     12.138
         TR   0.560E+25               99.363      4.968     24.099
         TOT                         158.9866     7.9525    36.2376   151.6180

   temp. (K)  partition function   enthalpy   heat capacity  entropy
                                   cal/mol     cal/K/mol   cal/K/mol   J/K/mol
  10.00  VIB   1.00                    0.000      0.000     -0.018
         ROT   35.6                   29.809      2.981     10.078
         INT   35.6                   29.809      2.981     10.060
         TR   0.198E+25               49.681      4.968     20.657
         TOT                          79.4904     7.9490    30.7175   128.5220

       T/K    H(0)-H(T)+PV         H(T)/Eh          T*S/Eh         G(T)/Eh
   ------------------------------------------------------------------------
    298.15    0.546999E-02    0.156978E-01    0.305010E-01   -0.148032E-01
    120.00    0.179879E-02    0.120266E-01    0.100560E-01    0.197060E-02
    100.00    0.143822E-02    0.116660E-01    0.805179E-02    0.361423E-02
     80.00    0.109982E-02    0.113276E-01    0.613992E-02    0.518771E-02
     60.00    0.789537E-03    0.110173E-01    0.433774E-02    0.667959E-02
     40.00    0.510503E-03    0.107383E-01    0.266615E-02    0.807215E-02
     20.00    0.253361E-03    0.104812E-01    0.115497E-02    0.932620E-02
     10.00    0.126676E-03    0.103545E-01    0.489515E-03    0.986496E-02 (used)
   ------------------------------------------------------------------------

         :::::::::::::::::::::::::::::::::::::::::::::::::::::
         ::                  THERMODYNAMIC                  ::
         :::::::::::::::::::::::::::::::::::::::::::::::::::::
         :: total free energy          -8.002125009595 Eh   ::
         ::.................................................::
         :: total energy               -8.011989970609 Eh   ::
         :: zero point energy           0.010227799614 Eh   ::
         :: G(RRHO) w/o ZPVE           -0.000362838600 Eh   ::
         :: G(RRHO) contrib.            0.009864961014 Eh   ::
         :::::::::::::::::::::::::::::::::::::::::::::::::::::

optimized geometry written to: xtbopt.xyz


           -------------------------------------------------
          | TOTAL ENERGY               -8.011989970609 Eh   |
          | TOTAL ENTHALPY             -8.001635494979 Eh   |
          | TOTAL FREE ENERGY          -8.002125009595 Eh   |
          | GRADIENT NORM               0.000064552708 Eh/α |
          | HOMO-LUMO GAP               1.977407966975 eV   |
           -------------------------------------------------

------------------------------------------------------------------------
 * finished run on 2020/05/12 at 14:38:39.503     
------------------------------------------------------------------------
 total:
 * wall-time:     0 d,  0 h,  0 min,  0.098 sec
 *  cpu-time:     0 d,  0 h,  0 min,  0.096 sec
 * ratio c/w:     0.989 speedup
 SCF:
 * wall-time:     0 d,  0 h,  0 min,  0.005 sec
 *  cpu-time:     0 d,  0 h,  0 min,  0.005 sec
 * ratio c/w:     1.000 speedup
 ANC optimizer:
 * wall-time:     0 d,  0 h,  0 min,  0.021 sec
 *  cpu-time:     0 d,  0 h,  0 min,  0.021 sec
 * ratio c/w:     0.990 speedup
 numerical hessian:
 * wall-time:     0 d,  0 h,  0 min,  0.055 sec
 *  cpu-time:     0 d,  0 h,  0 min,  0.055 sec
 * ratio c/w:     0.993 speedup

