5
 energy: -10.925327251373 gnorm: 0.188325388216 xtb: 6.2.2 (9d81278992624c895f80dd42a50cac0aa55982e2)
N        -1.20494000000000   -0.64225200000000   -0.18840800000000
C        -0.02585800000000   -0.26738900000000    0.60842100000000
C         0.75044800000000    0.79109400000000   -0.13123400000000
C         1.23804100000000   -0.63871100000000   -0.15071700000000
C        -0.75769200000000    0.75725700000000   -0.13806200000000
5
 energy: -10.961878425435 gnorm: 0.134030879125 xtb: 6.2.2 (9d81278992624c895f80dd42a50cac0aa55982e2)
N        -1.21211737582128   -0.57931193692746   -0.16440277943460
C        -0.02088050331683   -0.36108808300728    0.60866953081786
C         0.72390450554470    0.77871691779904   -0.15878654194146
C         1.25137057728296   -0.58818962303094   -0.12274004204648
C        -0.74227820368955    0.74987172516664   -0.16274016739531
5
 energy: -10.999846232172 gnorm: 0.089194732493 xtb: 6.2.2 (9d81278992624c895f80dd42a50cac0aa55982e2)
N        -1.19788488201812   -0.47537611939085   -0.09932265699314
C        -0.00824265370844   -0.52975961855341    0.59752089020123
C         0.68526222388705    0.78558970127621   -0.17739038305694
C         1.23295470569053   -0.51248203352668   -0.08565607344413
C        -0.71209039385102    0.73202707019473   -0.23515177670701
5
 energy: -11.017364629738 gnorm: 0.075463184820 xtb: 6.2.2 (9d81278992624c895f80dd42a50cac0aa55982e2)
N        -1.23164846571772   -0.42572820468521   -0.02377249221289
C         0.00077377699527   -0.66732682895808    0.54981973196347
C         0.69059857790006    0.81221514843968   -0.17274656574251
C         1.24158691797421   -0.45793042054590   -0.05055461824170
C        -0.70131180715182    0.73876930574950   -0.30274605576637
5
 energy: -11.028387167151 gnorm: 0.051937767750 xtb: 6.2.2 (9d81278992624c895f80dd42a50cac0aa55982e2)
N        -1.23475418323254   -0.37296347360615    0.04935931480465
C         0.01074171678163   -0.81393904779837    0.47552240986562
C         0.71201138330911    0.83083217342578   -0.19115709496872
C         1.23945290863449   -0.40749578285861    0.01088520710840
C        -0.72745282549268    0.76356513083735   -0.34460983680995
5
 energy: -11.030821751904 gnorm: 0.040890828877 xtb: 6.2.2 (9d81278992624c895f80dd42a50cac0aa55982e2)
N        -1.21505121881037   -0.36883618179224    0.04882602554933
C         0.00496070429920   -0.82840341738952    0.45018511755726
C         0.71815023101686    0.82048738788000   -0.21752272302506
C         1.24125875252880   -0.40545710307602    0.03733108330184
C        -0.74931946903450    0.78220831437778   -0.31881950338337
5
 energy: -11.034156833973 gnorm: 0.040355576688 xtb: 6.2.2 (9d81278992624c895f80dd42a50cac0aa55982e2)
N        -1.22604046470326   -0.37270399983431    0.07274808506593
C        -0.00929263046243   -0.84300741056380    0.39064102047810
C         0.74350326239543    0.80452033876916   -0.22461649874754
C         1.26135700045584   -0.38750685580141    0.06479269995408
C        -0.76952816768557    0.79869692743036   -0.30356530675056
5
 energy: -11.035993323690 gnorm: 0.041451126324 xtb: 6.2.2 (9d81278992624c895f80dd42a50cac0aa55982e2)
N        -1.23232608842346   -0.39117275360537    0.08297931463855
C        -0.02731105534015   -0.81837099710593    0.32847249103412
C         0.76304214818575    0.78305818082140   -0.22874274955158
C         1.27846651845996   -0.38243896731743    0.08637815409261
C        -0.78187252288210    0.80892353720733   -0.26908721021370
5
 energy: -11.037150602562 gnorm: 0.032139615155 xtb: 6.2.2 (9d81278992624c895f80dd42a50cac0aa55982e2)
N        -1.24147288965876   -0.38781350720723    0.08403571646886
C        -0.02330946207043   -0.81729165466806    0.31291118145001
C         0.75362917970160    0.78540862892511   -0.23166909435058
C         1.28651971242795   -0.38529104304243    0.09617683356247
C        -0.77536754040036    0.80498657599260   -0.26145463713076
5
 energy: -11.038267086723 gnorm: 0.023449098015 xtb: 6.2.2 (9d81278992624c895f80dd42a50cac0aa55982e2)
N        -1.24439993155065   -0.39074363679089    0.09267745178163
C        -0.01020469001820   -0.79870926438337    0.27825894708125
C         0.72903627213875    0.79785835734721   -0.21491573295610
C         1.26739146290115   -0.39388272830347    0.10317289450880
C        -0.74182411347105    0.78547627213051   -0.25919356041557
5
 energy: -11.038866977691 gnorm: 0.009140468527 xtb: 6.2.2 (9d81278992624c895f80dd42a50cac0aa55982e2)
N        -1.25210738135263   -0.38580225012723    0.10482350380721
C        -0.01818015099161   -0.81317933457971    0.24345373787891
C         0.73646058597855    0.78817504153461   -0.22622926687390
C         1.28474302350377   -0.38266320481521    0.12433400596003
C        -0.75091707713808    0.79346874798754   -0.24638198077225
5
 energy: -11.038926156458 gnorm: 0.002208727703 xtb: 6.2.2 (9d81278992624c895f80dd42a50cac0aa55982e2)
N        -1.24709055391853   -0.38742341598700    0.10282107359737
C        -0.01872006351673   -0.81151208353169    0.24747017723398
C         0.73727804416397    0.78859387032699   -0.22663147065551
C         1.27975687312659   -0.38369369129852    0.12242227650913
C        -0.75122529985531    0.79403432049021   -0.24608205668496
5
 energy: -11.038935294933 gnorm: 0.001092649419 xtb: 6.2.2 (9d81278992624c895f80dd42a50cac0aa55982e2)
N        -1.24685821855613   -0.38690246822650    0.10429812855243
C        -0.01862990424710   -0.81344148086186    0.24414706037250
C         0.73689795040830    0.78890098106715   -0.22718877179304
C         1.27838710043282   -0.38235905070894    0.12442826243835
C        -0.74979792803788    0.79380101873015   -0.24568467957024
5
 energy: -11.038938385088 gnorm: 0.001011680636 xtb: 6.2.2 (9d81278992624c895f80dd42a50cac0aa55982e2)
N        -1.24685547447157   -0.38692478726086    0.10484237675318
C        -0.01921549573659   -0.81490819995370    0.24149894963907
C         0.73721625739016    0.78896669586188   -0.22887279974153
C         1.27767036783035   -0.38107040358875    0.12658041039884
C        -0.74881665501234    0.79393569494143   -0.24404893704956
5
 energy: -11.038940676359 gnorm: 0.000911070986 xtb: 6.2.2 (9d81278992624c895f80dd42a50cac0aa55982e2)
N        -1.24717809112623   -0.38730359647597    0.10448931589808
C        -0.01963246684819   -0.81527664052074    0.24227768442737
C         0.73784239840629    0.78956930797734   -0.22947998190172
C         1.27710341739280   -0.38062807170888    0.12653247613465
C        -0.74813625782466    0.79363800072825   -0.24381949455838
