5
 energy: -11.038940674167 gnorm: 0.000910925645 xtb: 6.2.2 (9d81278992624c895f80dd42a50cac0aa55982e2)
N        -1.24717975427859   -0.38729688389451    0.10449434534239
C        -0.01963588991047   -0.81527611486306    0.24227917588193
C         0.73784573152375    0.78956504411762   -0.22948393551422
C         1.27710186608872   -0.38063453776242    0.12652868252309
C        -0.74813295342865    0.79364149240761   -0.24381826822795
