      -----------------------------------------------------------      
     |                   =====================                   |     
     |                           x T B                           |     
     |                   =====================                   |     
     |                         S. Grimme                         |     
     |          Mulliken Center for Theoretical Chemistry        |     
     |                    University of Bonn                     |     
      -----------------------------------------------------------      

   * xtb version 6.2.2 (9d81278992624c895f80dd42a50cac0aa55982e2) compiled by '@Darwin' on 04/03/2020

   xtb is free software: you can redistribute it and/or modify it under
   the terms of the GNU Lesser General Public License as published by
   the Free Software Foundation, either version 3 of the License, or
   (at your option) any later version.
   
   xtb is distributed in the hope that it will be useful,
   but WITHOUT ANY WARRANTY; without even the implied warranty of
   MERCHANTABILITY or FITNESS FOR A PARTICULAR PURPOSE.  See the
   GNU Lesser General Public License for more details.
   
   Cite this work as:
   * S. Grimme, C. Bannwarth, P. Shushkov, J. Chem. Theory Comput., 2017,
     13, 1989-2009. DOI: 10.1021/acs.jctc.7b00118
   * C. Bannwarth, S. Ehlert and S. Grimme., J. Chem. Theory Comput., 2019,
     15, 1652-1671. DOI: 10.1021/acs.jctc.8b01176
   * P. Pracht, E. Caldeweyher, S. Ehlert, S. Grimme, ChemRxiv, 2019, preprint.
     DOI: 10.26434/chemrxiv.8326202.v1
   
   for DFT-D4:
   * E. Caldeweyher, C. Bannwarth and S. Grimme, J. Chem. Phys., 2017,
     147, 034112. DOI: 10.1063/1.4993215
   * E. Caldeweyher, S. Ehlert, A. Hansen, H. Neugebauer, S. Spicher,
     C. Bannwarth and S. Grimme, J. Chem. Phys., 2019, 150, 154122.
     DOI: 10.1063/1.5090222
   
   for sTDA-xTB:
   * S. Grimme and C. Bannwarth, J. Chem. Phys., 2016, 145, 054103.
     DOI: 10.1063/1.4959605
   
   in the mass-spec context:
   * V. Asgeirsson, C. Bauer and S. Grimme, Chem. Sci., 2017, 8, 4879.
     DOI: 10.1039/c7sc00601b
   
   for metadynamics refer to:
   * S. Grimme, J. Chem. Theory Comput., 2019, 155, 2847-2862
     DOI: 10.1021/acs.jctc.9b00143
   
   with help from (in alphabetical order)
   C. Bannwarth, F. Bohle, G. Brandenburg, E. Caldeweyher, M. Checinski,
   S. Dohm, S. Ehlert, S. Ehrlich, F. März, H. Neugebauer, J. Pisarek,
   P. Pracht, P. Shushkov, and S. Spicher.
   
 * started run on 2020/05/12 at 11:44:45.707     

           -------------------------------------------------
          |                Calculation Setup                |
           -------------------------------------------------

          program call               : xtb --input H2C2N1_2_S_3.input H2C2N1_2_S_3.xyz --ohess --molden --namespace H2C2N1_2_S_3 output.out
          calculation namespace      : H2C2N1_2_S_3
          coordinate file            : H2C2N1_2_S_3.xyz
          number of atoms            :                     5
          number of electrons        :                    15
          charge                     :                     0
          spin                       :                   1.5
          first test random number   :      0.97713265526150

   ID    Z sym.   atoms
    1    6 C      1, 3
    2    7 N      2
    3    1 H      4, 5

           -------------------------------------------------
          |                 G F N 2 - x T B                 |
           -------------------------------------------------

        Reference                      10.1021/acs.jctc.8b01176
      * Hamiltonian:
        H0-scaling (s, p, d)           1.850000    2.230000    2.230000
        zeta-weighting                 0.500000
      * Dispersion:
        s8                             2.700000
        a1                             0.520000
        a2                             5.000000
        s9                             5.000000
      * Repulsion:
        kExp                           1.500000    1.000000
        rExp                           1.000000
      * Coulomb:
        alpha                          2.000000
        third order                    shell-resolved
        anisotropic                    true
        a3                             3.000000
        a5                             4.000000
        cn-shift                       1.200000
        cn-exp                         4.000000
        max-rad                        5.000000


          ...................................................
          :                      SETUP                      :
          :.................................................:
          :  # basis functions                  14          :
          :  # atomic orbitals                  14          :
          :  # shells                            8          :
          :  # electrons                        15          :
          :  max. iterations                   250          :
          :  Hamiltonian                  GFN2-xTB          :
          :  restarted?                      false          :
          :  GBSA solvation                  false          :
          :  PC potential                    false          :
          :  electronic temp.          300.0000000     K    :
          :  accuracy                    1.0000000          :
          :  -> integral cutoff          0.2500000E+02      :
          :  -> integral neglect         0.1000000E-07      :
          :  -> SCF convergence          0.1000000E-05 Eh   :
          :  -> wf. convergence          0.1000000E-03 e    :
          :  Broyden damping             0.4000000          :
          ...................................................

 iter      E             dE          RMSdq      gap      omega  full diag
   1     -7.7787843 -0.777878E+01  0.685E+00    0.96       0.0  T
   2     -7.4018109  0.376973E+00  0.905E+00    0.34       1.0  T
   3     -7.8398288 -0.438018E+00  0.421E+00    1.38       1.0  T
   4     -7.8746794 -0.348506E-01  0.242E+00    0.38       1.0  T
   5     -7.8803128 -0.563340E-02  0.130E+00    0.78       1.0  T
   6     -7.8881650 -0.785218E-02  0.646E-01    0.52       1.0  T
   7     -7.8887693 -0.604375E-03  0.204E-01    0.47       1.0  T
   8     -7.8887739 -0.458636E-05  0.134E-01    0.48       1.0  T
   9     -7.8887979 -0.239652E-04  0.255E-02    0.46       1.8  T
  10     -7.8887989 -0.974273E-06  0.511E-03    0.46       8.7  T
  11     -7.8887989 -0.187857E-07  0.317E-03    0.46      14.1  T
  12     -7.8887989 -0.126725E-07  0.940E-04    0.46      47.6  T
  13     -7.8887989 -0.128201E-08  0.228E-04    0.46     196.0  T

   *** convergence criteria satisfied after 13 iterations ***

         #    Occupation            Energy/Eh            Energy/eV
      -------------------------------------------------------------
         1        2.0000           -0.6457170             -17.5709
       ...           ...                  ...                  ...
         3        2.0000           -0.5598915             -15.2354
         4        2.0000           -0.5218101             -14.1992
         5        2.0000           -0.4668095             -12.7025
         6        2.0000           -0.4596159             -12.5068
         7        1.0000           -0.4134324             -11.2501
         8        1.0000           -0.3800086             -10.3406
         9        0.9999           -0.3470347              -9.4433 (HOMO)
        10        0.0001           -0.3299948              -8.9796 (LUMO)
        11                          0.0722575               1.9662
        12                          0.1125092               3.0615
        13                          0.1217345               3.3126
        14                          0.1681620               4.5759
      -------------------------------------------------------------
                  HL-Gap            0.0170398 Eh            0.4637 eV
             Fermi-level           -0.3875193 Eh          -10.5449 eV

 SCC (total)                   0 d,  0 h,  0 min,  0.003 sec
 SCC setup                      ...        0 min,  0.000 sec (  3.206%)
 Dispersion                     ...        0 min,  0.000 sec (  0.539%)
 integral evaluation            ...        0 min,  0.001 sec ( 26.436%)
 zeroth order Hamiltonian       ...        0 min,  0.000 sec (  0.539%)
 iterations                     ...        0 min,  0.001 sec ( 40.385%)
 molecular gradient             ...        0 min,  0.001 sec ( 26.464%)
 printout                       ...        0 min,  0.000 sec (  1.946%)

         :::::::::::::::::::::::::::::::::::::::::::::::::::::
         ::                     SUMMARY                     ::
         :::::::::::::::::::::::::::::::::::::::::::::::::::::
         :: total energy              -7.834418643439 Eh    ::
         :: gradient norm              0.218610404918 Eh/a0 ::
         :: HOMO-LUMO gap              0.463677105469 eV    ::
         ::.................................................::
         :: SCC energy                -7.888798891060 Eh    ::
         :: -> isotropic ES            0.006713296285 Eh    ::
         :: -> anisotropic ES          0.000787945961 Eh    ::
         :: -> anisotropic XC          0.014356019571 Eh    ::
         :: -> dispersion             -0.001483768555 Eh    ::
         :: repulsion energy           0.054380194691 Eh    ::
         :: add. restraining           0.000000000000 Eh    ::
         :::::::::::::::::::::::::::::::::::::::::::::::::::::

      ----------------------------------------------------------- 
     |                   =====================                   |
     |                        A N C O P T                        |
     |                   =====================                   |
     |               Approximate Normal Coordinate               |
     |                Rational Function Optimizer                |
      ----------------------------------------------------------- 

          ...................................................
          :                      SETUP                      :
          :.................................................:
          :   optimization level            normal          :
          :   max. optcycles                   200          :
          :   ANC micro-cycles                  20          :
          :   degrees of freedom                 9          :
          :.................................................:
          :   RF solver                   davidson          :
          :   write xtbopt.log                true          :
          :   linear?                        false          :
          :   energy convergence         0.5000000E-05 Eh   :
          :   grad. convergence          0.1000000E-02 Eh/α :
          :   maximium RF displ.         1.0000000          :
          :   Hlow (freq-cutoff)         0.1000000E-01      :
          :   Hmax (freq-cutoff)         5.0000000          :
          :   S6 in model hess.         20.0000000          :
          ...................................................

generating ANC from model Hessian ...
Using Lindh-Hessian (1995)
 Shifting diagonal of input Hessian by    0.0000000000000000     
 Lowest  eigenvalues of input Hessian
   -0.000000   -0.000000    0.000000    0.000000    0.000000    0.000000
    0.011178    0.030796    0.085007    0.106208    0.131291    0.555831
    0.804154    1.029059    1.144414
 Highest eigenvalues
    0.106208    0.131291    0.555831    0.804154    1.029059    1.144414


........................................................................
.............................. CYCLE    1 ..............................
........................................................................
   1     -7.8887989 -0.788880E+01  0.494E-05    0.46       0.0  T
   2     -7.8887989  0.351363E-11  0.369E-05    0.46    1212.4  T
   3     -7.8887989 -0.372591E-11  0.304E-05    0.46    1472.9  T
     SCC iter.                  ...        0 min,  0.000 sec
     gradient                   ...        0 min,  0.001 sec
 * total energy  :    -7.8344186 Eh     change       -0.3826797E-09 Eh
   gradient norm :     0.2186101 Eh/α   predicted     0.0000000E+00 (-100.00%)
   displ. norm   :     0.4640647 α      lambda       -0.7131495E-01
   maximum displ.:     0.3114884 α      in ANC's #2, #6, #1, ...

........................................................................
.............................. CYCLE    2 ..............................
........................................................................
   1     -7.9713992 -0.797140E+01  0.152E+00    1.86       0.0  T
   2     -7.9717603 -0.361122E-03  0.913E-01    1.70       1.0  T
   3     -7.9711726  0.587681E-03  0.547E-01    1.87       1.0  T
   4     -7.9721986 -0.102595E-02  0.754E-02    1.78       1.0  T
   5     -7.9721896  0.896043E-05  0.725E-02    1.75       1.0  T
   6     -7.9722172 -0.276266E-04  0.849E-03    1.77       5.3  T
   7     -7.9722172  0.667584E-08  0.390E-03    1.77      11.5  T
   8     -7.9722173 -0.621766E-07  0.851E-04    1.77      52.5  T
   9     -7.9722173 -0.549632E-09  0.117E-04    1.77     381.1  T
     SCC iter.                  ...        0 min,  0.001 sec
     gradient                   ...        0 min,  0.001 sec
 * total energy  :    -7.8909039 Eh     change       -0.5648522E-01 Eh
   gradient norm :     0.1255212 Eh/α   predicted    -0.4333653E-01 ( -23.28%)
   displ. norm   :     0.4480259 α      lambda       -0.4682033E-01
   maximum displ.:     0.2989972 α      in ANC's #6, #2, #9, ...

........................................................................
.............................. CYCLE    3 ..............................
........................................................................
   1     -8.0551075 -0.805511E+01  0.154E+00    3.69       0.0  T
   2     -8.0560250 -0.917534E-03  0.865E-01    3.50       1.0  T
   3     -8.0560157  0.929623E-05  0.378E-01    3.58       1.0  T
   4     -8.0562337 -0.217997E-03  0.604E-02    3.54       1.0  T
   5     -8.0562353 -0.162325E-05  0.489E-02    3.51       1.0  T
   6     -8.0562445 -0.921060E-05  0.696E-03    3.53       6.4  T
   7     -8.0562446 -0.444346E-07  0.334E-03    3.53      13.4  T
   8     -8.0562446 -0.525445E-07  0.463E-04    3.53      96.5  T
   9     -8.0562446 -0.414691E-10  0.792E-05    3.53     564.9  T
     SCC iter.                  ...        0 min,  0.001 sec
     gradient                   ...        0 min,  0.001 sec
 * total energy  :    -7.9008501 Eh     change       -0.9946220E-02 Eh
   gradient norm :     0.2024092 Eh/α   predicted    -0.2810923E-01 ( 182.61%)
   displ. norm   :     0.4249722 α      lambda       -0.4024128E-01
   maximum displ.:     0.3743976 α      in ANC's #2, #4, #5, ...

........................................................................
.............................. CYCLE    4 ..............................
........................................................................
   1     -8.0115085 -0.801151E+01  0.134E+00    2.88       0.0  T
   2     -8.0121999 -0.691405E-03  0.785E-01    3.15       1.0  T
   3     -8.0117391  0.460782E-03  0.516E-01    2.91       1.0  T
   4     -8.0125576 -0.818478E-03  0.272E-01    3.08       1.0  T
   5     -8.0129728 -0.415289E-03  0.401E-02    3.05       1.1  T
   6     -8.0129731 -0.235928E-06  0.136E-02    3.05       3.3  T
   7     -8.0129734 -0.313803E-06  0.309E-03    3.05      14.5  T
   8     -8.0129734 -0.252762E-07  0.918E-04    3.05      48.7  T
   9     -8.0129734 -0.723562E-09  0.197E-04    3.05     226.7  T
     SCC iter.                  ...        0 min,  0.001 sec
     gradient                   ...        0 min,  0.001 sec
 * total energy  :    -7.9156636 Eh     change       -0.1481351E-01 Eh
   gradient norm :     0.0703300 Eh/α   predicted    -0.2375446E-01 (  60.36%)
   displ. norm   :     0.1314506 α      lambda       -0.6940332E-02
   maximum displ.:     0.0723668 α      in ANC's #5, #3, #6, ...

........................................................................
.............................. CYCLE    5 ..............................
........................................................................
   1     -8.0291473 -0.802915E+01  0.369E-01    3.22       0.0  T
   2     -8.0291767 -0.293736E-04  0.219E-01    3.22       1.0  T
   3     -8.0291685  0.818539E-05  0.568E-02    3.23       1.0  T
   4     -8.0291744 -0.594675E-05  0.385E-02    3.23       1.2  T
   5     -8.0291807 -0.625202E-05  0.131E-02    3.22       3.4  T
   6     -8.0291817 -0.104057E-05  0.354E-03    3.23      12.6  T
   7     -8.0291817 -0.686885E-08  0.455E-04    3.23      98.4  T
   8     -8.0291817 -0.578169E-10  0.156E-04    3.23     287.5  T
     SCC iter.                  ...        0 min,  0.001 sec
     gradient                   ...        0 min,  0.001 sec
 * total energy  :    -7.9209160 Eh     change       -0.5252396E-02 Eh
   gradient norm :     0.0424142 Eh/α   predicted    -0.3530127E-02 ( -32.79%)
   displ. norm   :     0.4554760 α      lambda       -0.1178346E-01
   maximum displ.:     0.3001494 α      in ANC's #1, #2, #6, ...

........................................................................
.............................. CYCLE    6 ..............................
........................................................................
   1     -8.0448738 -0.804487E+01  0.897E-01    4.07       0.0  T
   2     -8.0447170  0.156856E-03  0.539E-01    4.15       1.0  T
   3     -8.0436319  0.108509E-02  0.551E-01    4.02       1.0  T
   4     -8.0451927 -0.156079E-02  0.411E-02    4.12       1.1  T
   5     -8.0451934 -0.756890E-06  0.221E-02    4.11       2.0  T
   6     -8.0451943 -0.831353E-06  0.508E-03    4.12       8.8  T
   7     -8.0451943 -0.349065E-07  0.267E-03    4.11      16.8  T
   8     -8.0451943 -0.256505E-07  0.488E-04    4.12      91.7  T
   9     -8.0451943 -0.129409E-09  0.122E-04    4.12     367.8  T
     SCC iter.                  ...        0 min,  0.001 sec
     gradient                   ...        0 min,  0.001 sec
 * total energy  :    -7.9276304 Eh     change       -0.6714398E-02 Eh
   gradient norm :     0.0708617 Eh/α   predicted    -0.7114022E-02 (   5.95%)
   displ. norm   :     0.3386759 α      lambda       -0.1299429E-01
   maximum displ.:     0.2477638 α      in ANC's #6, #7, #8, ...

........................................................................
.............................. CYCLE    7 ..............................
........................................................................
   1     -8.0724340 -0.807243E+01  0.821E-01    4.38       0.0  T
   2     -8.0725221 -0.880522E-04  0.478E-01    4.40       1.0  T
   3     -8.0725060  0.161402E-04  0.124E-01    4.40       1.0  T
   4     -8.0725364 -0.304739E-04  0.517E-02    4.39       1.0  T
   5     -8.0725391 -0.268234E-05  0.433E-02    4.41       1.0  T
   6     -8.0725481 -0.894449E-05  0.781E-03    4.40       5.7  T
   7     -8.0725481 -0.119394E-07  0.140E-03    4.40      31.9  T
   8     -8.0725481 -0.314232E-08  0.504E-04    4.40      88.7  T
   9     -8.0725481 -0.115368E-08  0.738E-05    4.40     606.2  T
     SCC iter.                  ...        0 min,  0.001 sec
     gradient                   ...        0 min,  0.001 sec
 * total energy  :    -7.9321294 Eh     change       -0.4498983E-02 Eh
   gradient norm :     0.0493733 Eh/α   predicted    -0.7242379E-02 (  60.98%)
   displ. norm   :     0.4185912 α      lambda       -0.9529129E-02
   maximum displ.:     0.3442428 α      in ANC's #1, #2, #6, ...

........................................................................
.............................. CYCLE    8 ..............................
........................................................................
   1     -8.0511421 -0.805114E+01  0.841E-01    4.59       0.0  T
   2     -8.0511320  0.100250E-04  0.485E-01    4.66       1.0  T
   3     -8.0498147  0.131735E-02  0.514E-01    4.56       1.0  T
   4     -8.0513497 -0.153506E-02  0.651E-02    4.63       1.0  T
   5     -8.0513554 -0.569114E-05  0.316E-02    4.64       1.4  T
   6     -8.0513572 -0.172852E-05  0.865E-03    4.64       5.2  T
   7     -8.0513571  0.172821E-07  0.327E-03    4.64      13.7  T
   8     -8.0513572 -0.390002E-07  0.637E-04    4.64      70.2  T
   9     -8.0513572 -0.760126E-09  0.101E-04    4.64     442.3  T
     SCC iter.                  ...        0 min,  0.001 sec
     gradient                   ...        0 min,  0.001 sec
 * total energy  :    -7.9353873 Eh     change       -0.3257884E-02 Eh
   gradient norm :     0.0415127 Eh/α   predicted    -0.5599405E-02 (  71.87%)
   displ. norm   :     0.1595565 α      lambda       -0.3187773E-02
   maximum displ.:     0.0944068 α      in ANC's #6, #2, #1, ...

........................................................................
.............................. CYCLE    9 ..............................
........................................................................
   1     -8.0547546 -0.805475E+01  0.314E-01    4.48       0.0  T
   2     -8.0547571 -0.254168E-05  0.183E-01    4.48       1.0  T
   3     -8.0545842  0.172987E-03  0.185E-01    4.50       1.0  T
   4     -8.0547807 -0.196594E-03  0.241E-02    4.48       1.9  T
   5     -8.0547810 -0.303619E-06  0.156E-02    4.49       2.9  T
   6     -8.0547817 -0.691757E-06  0.290E-03    4.49      15.4  T
   7     -8.0547817 -0.650085E-08  0.597E-04    4.49      75.0  T
   8     -8.0547817 -0.368482E-09  0.171E-04    4.49     262.0  T
     SCC iter.                  ...        0 min,  0.000 sec
     gradient                   ...        0 min,  0.001 sec
 * total energy  :    -7.9364745 Eh     change       -0.1087241E-02 Eh
   gradient norm :     0.0156118 Eh/α   predicted    -0.1634463E-02 (  50.33%)
   displ. norm   :     0.0689483 α      lambda       -0.5818846E-03
   maximum displ.:     0.0390162 α      in ANC's #6, #1, #7, ...

........................................................................
.............................. CYCLE   10 ..............................
........................................................................
   1     -8.0554326 -0.805543E+01  0.150E-01    4.51       0.0  T
   2     -8.0554334 -0.833864E-06  0.847E-02    4.52       1.0  T
   3     -8.0554000  0.334041E-04  0.799E-02    4.50       1.0  T
   4     -8.0554384 -0.384199E-04  0.162E-02    4.51       2.8  T
   5     -8.0554393 -0.874044E-06  0.547E-03    4.52       8.2  T
   6     -8.0554393 -0.150350E-07  0.800E-04    4.52      55.9  T
   7     -8.0554393 -0.266693E-09  0.243E-04    4.52     183.7  T
     SCC iter.                  ...        0 min,  0.000 sec
     gradient                   ...        0 min,  0.001 sec
 * total energy  :    -7.9368181 Eh     change       -0.3436182E-03 Eh
   gradient norm :     0.0074657 Eh/α   predicted    -0.2923254E-03 ( -14.93%)
   displ. norm   :     0.0536933 α      lambda       -0.1788566E-03
   maximum displ.:     0.0311952 α      in ANC's #6, #7, #1, ...

........................................................................
.............................. CYCLE   11 ..............................
........................................................................
   1     -8.0557508 -0.805575E+01  0.948E-02    4.53       0.0  T
   2     -8.0557502  0.572448E-06  0.564E-02    4.54       1.0  T
   3     -8.0557327  0.175374E-04  0.530E-02    4.53       1.0  T
   4     -8.0557524 -0.196666E-04  0.519E-03    4.54       8.6  T
   5     -8.0557524 -0.310767E-07  0.100E-03    4.54      44.6  T
   6     -8.0557524 -0.192261E-08  0.246E-04    4.54     181.5  T
   7     -8.0557524 -0.289546E-10  0.950E-05    4.54     470.9  T
     SCC iter.                  ...        0 min,  0.000 sec
     gradient                   ...        0 min,  0.001 sec
 * total energy  :    -7.9369003 Eh     change       -0.8222845E-04 Eh
   gradient norm :     0.0052364 Eh/α   predicted    -0.8968490E-04 (   9.07%)
   displ. norm   :     0.0215842 α      lambda       -0.4778164E-04
   maximum displ.:     0.0129310 α      in ANC's #1, #2, #7, ...

........................................................................
.............................. CYCLE   12 ..............................
........................................................................
   1     -8.0554658 -0.805547E+01  0.523E-02    4.53       0.0  T
   2     -8.0554662 -0.473880E-06  0.303E-02    4.54       1.5  T
   3     -8.0554656  0.645207E-06  0.145E-02    4.53       3.1  T
   4     -8.0554662 -0.597514E-06  0.619E-03    4.54       7.2  T
   5     -8.0554665 -0.278353E-06  0.177E-03    4.53      25.3  T
   6     -8.0554665 -0.565016E-08  0.163E-04    4.53     274.0  T
   7     -8.0554665 -0.190976E-10  0.407E-05    4.53    1098.1  T
     SCC iter.                  ...        0 min,  0.000 sec
     gradient                   ...        0 min,  0.001 sec
 * total energy  :    -7.9369237 Eh     change       -0.2337151E-04 Eh
   gradient norm :     0.0024202 Eh/α   predicted    -0.2390161E-04 (   2.27%)
   displ. norm   :     0.0158057 α      lambda       -0.1605863E-04
   maximum displ.:     0.0144008 α      in ANC's #1, #2, #5, ...

........................................................................
.............................. CYCLE   13 ..............................
........................................................................
   1     -8.0560571 -0.805606E+01  0.346E-02    4.53       0.0  T
   2     -8.0560572 -0.348281E-07  0.197E-02    4.53       2.3  T
   3     -8.0560552  0.197667E-05  0.193E-02    4.53       2.3  T
   4     -8.0560574 -0.222222E-05  0.282E-03    4.53      15.8  T
   5     -8.0560574 -0.121719E-07  0.158E-03    4.53      28.3  T
   6     -8.0560574 -0.411352E-08  0.322E-04    4.53     138.8  T
   7     -8.0560574 -0.857217E-10  0.454E-05    4.53     984.4  T
     SCC iter.                  ...        0 min,  0.001 sec
     gradient                   ...        0 min,  0.001 sec
 * total energy  :    -7.9369322 Eh     change       -0.8474625E-05 Eh
   gradient norm :     0.0024304 Eh/α   predicted    -0.8031295E-05 (  -5.23%)
   displ. norm   :     0.0063914 α      lambda       -0.9446387E-05
   maximum displ.:     0.0040496 α      in ANC's #7, #5, #4, ...

........................................................................
.............................. CYCLE   14 ..............................
........................................................................
   1     -8.0560412 -0.805604E+01  0.150E-02    4.53       0.0  T
   2     -8.0560412  0.137584E-07  0.894E-03    4.53       5.0  T
   3     -8.0560408  0.307957E-06  0.879E-03    4.53       5.1  T
   4     -8.0560413 -0.421272E-06  0.212E-03    4.53      21.1  T
   5     -8.0560413 -0.173479E-07  0.507E-04    4.53      88.2  T
   6     -8.0560413 -0.988489E-10  0.734E-05    4.53     609.6  T
     SCC iter.                  ...        0 min,  0.001 sec
     gradient                   ...        0 min,  0.001 sec
 * total energy  :    -7.9369395 Eh     change       -0.7286732E-05 Eh
   gradient norm :     0.0013655 Eh/α   predicted    -0.4724478E-05 ( -35.16%)
   displ. norm   :     0.0169342 α      lambda       -0.7976274E-05
   maximum displ.:     0.0088682 α      in ANC's #7, #5, #1, ...

........................................................................
.............................. CYCLE   15 ..............................
........................................................................
   1     -8.0558692 -0.805587E+01  0.358E-02    4.54       0.0  T
   2     -8.0558691  0.115840E-06  0.217E-02    4.54       2.1  T
   3     -8.0558666  0.252604E-05  0.213E-02    4.54       2.1  T
   4     -8.0558696 -0.296366E-05  0.300E-03    4.54      14.9  T
   5     -8.0558696 -0.285618E-07  0.106E-03    4.54      42.4  T
   6     -8.0558696 -0.751198E-09  0.174E-04    4.54     256.6  T
   7     -8.0558696 -0.125837E-10  0.438E-05    4.54    1021.6  T
     SCC iter.                  ...        0 min,  0.000 sec
     gradient                   ...        0 min,  0.001 sec
 * total energy  :    -7.9369424 Eh     change       -0.2900578E-05 Eh
   gradient norm :     0.0007411 Eh/α   predicted    -0.3988788E-05 (  37.52%)
   displ. norm   :     0.0062431 α      lambda       -0.1450479E-05
   maximum displ.:     0.0032230 α      in ANC's #7, #1, #5, ...

   *** GEOMETRY OPTIMIZATION CONVERGED AFTER 15 ITERATIONS ***

------------------------------------------------------------------------
 total energy gain   :        -0.1025237 Eh      -64.3346 kcal/mol
 total RMSD          :         0.8668724 a0        0.4587 Å
 total power (kW/mol):       -17.9450695 (step)-8839.9050 (real)
------------------------------------------------------------------------

 ANCopt (total)                0 d,  0 h,  0 min,  0.030 sec
 optimizer setup                ...        0 min,  0.000 sec (  0.222%)
 model hessian                  ...        0 min,  0.000 sec (  0.321%)
 ANC generation                 ...        0 min,  0.000 sec (  0.174%)
 coordinate transformation      ...        0 min,  0.000 sec (  0.109%)
 single point calculation       ...        0 min,  0.029 sec ( 95.301%)
 optimization log               ...        0 min,  0.000 sec (  1.244%)
 hessian update                 ...        0 min,  0.000 sec (  0.095%)
 rational function              ...        0 min,  0.000 sec (  1.149%)

================
 final structure:
================
5
 xtb: 6.2.2 (9d81278992624c895f80dd42a50cac0aa55982e2)
C        -0.44783550681223   -0.07452109249113    0.00843396720582
N        -1.10445695594788    1.00990914611091    0.04654167259429
C         0.88854781382329   -0.29750334034491   -0.02709593066398
H        -1.07421497595063   -0.98915109142848   -0.00002944940675
H         1.73795962488745    0.35126637815360   -0.02784925972937

 Bond Distances (Angstroems)
 ---------------------------
C1-N2=1.2683         C1-C3=1.3553         C1-H4=1.1086         N2-C1=1.2683         C3-C1=1.3553         C3-H5=1.0688         
H4-C1=1.1086         H5-C3=1.0688         
 C  H  Rav=1.0887 sigma=0.0199  Rmin=1.0688  Rmax=1.1086     2
 C  C  Rav=1.3553 sigma=0.0000  Rmin=1.3553  Rmax=1.3553     1
 N  C  Rav=1.2683 sigma=0.0000  Rmin=1.2683  Rmax=1.2683     1

 selected bond angles (degree)
 --------------------
C3-C1-N2=130.69                H4-C1-N2=114.40                H4-C1-C3=114.91                H5-C3-C1=133.14                

 selected dihedral angles (degree)
 ---------------------------------
H5-C3-C1-N2=  0.37            H5-C3-C1-H4=180.17            
           -------------------------------------------------
          |                Final Singlepoint                |
           -------------------------------------------------

          ...................................................
          :                      SETUP                      :
          :.................................................:
          :  # basis functions                  14          :
          :  # atomic orbitals                  14          :
          :  # shells                            8          :
          :  # electrons                        15          :
          :  max. iterations                   250          :
          :  Hamiltonian                  GFN2-xTB          :
          :  restarted?                      false          :
          :  GBSA solvation                  false          :
          :  PC potential                    false          :
          :  electronic temp.          300.0000000     K    :
          :  accuracy                    1.0000000          :
          :  -> integral cutoff          0.2500000E+02      :
          :  -> integral neglect         0.1000000E-07      :
          :  -> SCF convergence          0.1000000E-05 Eh   :
          :  -> wf. convergence          0.1000000E-03 e    :
          :  Broyden damping             0.4000000          :
          ...................................................

 iter      E             dE          RMSdq      gap      omega  full diag
   1     -8.0558696 -0.805587E+01  0.105E-05    4.54       0.0  T
   2     -8.0558696  0.182965E-12  0.828E-06    4.54    5400.3  T
   3     -8.0558696 -0.268230E-12  0.500E-06    4.54    8945.4  T

   *** convergence criteria satisfied after 3 iterations ***

         #    Occupation            Energy/Eh            Energy/eV
      -------------------------------------------------------------
         1        2.0000           -0.6636307             -18.0583
       ...           ...                  ...                  ...
         3        2.0000           -0.5696792             -15.5018
         4        2.0000           -0.5184323             -14.1073
         5        2.0000           -0.4969065             -13.5215
         6        2.0000           -0.4558628             -12.4047
         7        1.0000           -0.3823135             -10.4033
         8        1.0000           -0.3777797             -10.2799
         9        1.0000           -0.3672371              -9.9930 (HOMO)
        10                         -0.2004617              -5.4548 (LUMO)
        11                          0.0935948               2.5468
        12                          0.2497617               6.7964
        13                          0.3659908               9.9591
        14                          0.6246516              16.9976
      -------------------------------------------------------------
                  HL-Gap            0.1667754 Eh            4.5382 eV
             Fermi-level           -0.3514688 Eh           -9.5640 eV

 SCC (total)                   0 d,  0 h,  0 min,  0.002 sec
 SCC setup                      ...        0 min,  0.000 sec (  2.731%)
 Dispersion                     ...        0 min,  0.000 sec (  0.538%)
 integral evaluation            ...        0 min,  0.001 sec ( 39.757%)
 zeroth order Hamiltonian       ...        0 min,  0.000 sec (  0.665%)
 iterations                     ...        0 min,  0.000 sec ( 12.634%)
 molecular gradient             ...        0 min,  0.001 sec ( 39.276%)
 printout                       ...        0 min,  0.000 sec (  3.976%)

         :::::::::::::::::::::::::::::::::::::::::::::::::::::
         ::                     SUMMARY                     ::
         :::::::::::::::::::::::::::::::::::::::::::::::::::::
         :: total energy              -7.936942382792 Eh    ::
         :: gradient norm              0.000753238638 Eh/a0 ::
         :: HOMO-LUMO gap              4.538188908025 eV    ::
         ::.................................................::
         :: SCC energy                -8.055869598499 Eh    ::
         :: -> isotropic ES            0.007830389502 Eh    ::
         :: -> anisotropic ES         -0.000516762256 Eh    ::
         :: -> anisotropic XC          0.012716437506 Eh    ::
         :: -> dispersion             -0.001484030762 Eh    ::
         :: repulsion energy           0.118927174849 Eh    ::
         :: add. restraining           0.000000000000 Eh    ::
         :::::::::::::::::::::::::::::::::::::::::::::::::::::

           ------------------------------------------------- 
          |                Numerical Hessian                |
           ------------------------------------------------- 
step length          :   0.00500
SCC accuracy         :   0.30000
Hessian scale factor :   1.00000
frozen atoms in %    :   0.00000    0
RMS gradient         :   0.00075
estimated CPU  time      0.00 min
estimated wall time      0.00 min

writing file <hessian>.

 projected vibrational frequencies (cm-1)
eigval :       -0.00    -0.00    -0.00    -0.00     0.00     0.00
eigval :      477.43   634.67   776.70   799.45  1107.24  1300.77
eigval :     1479.60  2693.70  3147.45
           -------------------------------------------------
          |                Property Printout                |
           -------------------------------------------------

    * Orbital Energies and Occupations

         #    Occupation            Energy/Eh            Energy/eV
      -------------------------------------------------------------
         1        2.0000           -0.6636307             -18.0583
         2        2.0000           -0.6186982             -16.8356
         3        2.0000           -0.5696792             -15.5018
         4        2.0000           -0.5184322             -14.1073
         5        2.0000           -0.4969066             -13.5215
         6        2.0000           -0.4558629             -12.4047
         7        1.0000           -0.3823135             -10.4033
         8        1.0000           -0.3777797             -10.2799
         9        1.0000           -0.3672370              -9.9930 (HOMO)
        10                         -0.2004617              -5.4548 (LUMO)
        11                          0.0935949               2.5468
Molecule has the following symmetry elements: (sigma) 
It seems to be the Cs point group
        12                          0.2497617               6.7964
        13                          0.3659909               9.9591
        14                          0.6246516              16.9976
      -------------------------------------------------------------
                  HL-Gap            0.1667753 Eh            4.5382 eV
             Fermi-level           -0.3514688 Eh           -9.5640 eV

     #   Z        covCN         q      C6AA      α(0)
     1   6 C      2.813     0.098    25.819     8.325
     2   7 N      0.918    -0.223    25.840     7.348
     3   6 C      1.915    -0.090    33.578     9.358
     4   1 H      0.922     0.120     1.613     1.986
     5   1 H      0.927     0.096     1.826     2.113

 Mol. C6AA /au·bohr⁶  :        344.354483
 Mol. C8AA /au·bohr⁸  :       8348.189279
 Mol. α(0) /au        :         29.130458


Wiberg/Mayer (AO) data.
largest (>0.10) Wiberg bond orders for each atom
          total WBO             WBO to atom ...
     1  C   3.911        N    2 1.661    C    3 1.438    H    4 0.807
     2  N   1.742        C    1 1.661
     3  C   2.447        C    1 1.438    H    5 0.937
     4  H   0.829        C    1 0.807
     5  H   0.954        C    3 0.937

MOs/occ written to file <molden.input>


molecular dipole:
                 x           y           z       tot (Debye)
 q only:        0.303      -0.551      -0.019
   full:        0.439      -0.708      -0.025       2.119
molecular quadrupole (traceless):
                xx          xy          yy          xz          yz          zz
 q only:        0.559       2.476      -0.562       0.046      -0.065       0.003
  q+dip:        1.437       4.666      -0.903       0.068      -0.106      -0.534
   full:        0.522       4.820      -1.232       0.118      -0.147       0.711

           -------------------------------------------------
          |                Geometry Summary                 |
           -------------------------------------------------

      molecular mass/u    :       40.0440565
   center of mass at/Å    :       -0.2374249       0.2256093       0.0099807
  moments of inertia/u·Å² :        0.5982868E+01   0.3946923E+02   0.4545207E+02
rotational constants/cm⁻¹ :        0.2817651E+01   0.4271082E+00   0.3708881E+00

 * 2 selected distances

     #   Z        #   Z                                     value/Å
     1   6 C      2   7 N                                 1.2683031 (min)
     1   6 C      3   6 C                                 1.3553243 (max)

 * 2 distinct bonds (by element types)

   Z      Z             #   av. dist./Å        max./Å        min./Å
   6 C    6 C           1     1.3553243     1.3553243     1.3553243
   6 C    7 N           1     1.2683031     1.2683031     1.2683031

           -------------------------------------------------
          |               Frequency Printout                |
           -------------------------------------------------
 projected vibrational frequencies (cm-1)
eigval :       -0.00    -0.00    -0.00    -0.00     0.00     0.00
eigval :      477.43   634.67   776.70   799.45  1107.24  1300.77
eigval :     1479.60  2693.70  3147.45
 reduced masses (amu)
   1:  6.32   2: 10.70   3: 12.44   4: 11.91   5: 12.01   6: 12.64   7:  9.17   8:  5.98
   9:  3.72  10:  5.15  11:  2.00  12: 11.96  13: 12.57  14:  1.66  15:  1.90
 IR intensities (amu)
   1:  0.17   2:  0.25   3:  0.12   4:  0.17   5:  0.22   6:  0.09   7:  0.32   8:  0.25
   9:  0.08  10:  0.26  11:  0.14  12:  0.13  13:  0.22  14:  0.05  15:  0.09
 Raman intensities (amu)
   1:  0.00   2:  0.00   3:  0.00   4:  0.00   5:  0.00   6:  0.00   7:  0.00   8:  0.00
   9:  0.00  10:  0.00  11:  0.00  12:  0.00  13:  0.00  14:  0.00  15:  0.00
 output can be read by thermo (or use thermo option).
 writing <g98.out> molden fake output.
 recommended (thermochemical) frequency scaling factor: 1.0
           -------------------------------------------------
          |             Thermodynamic Functions             |
           -------------------------------------------------

cs  symmetry found (for desy threshold:  0.10E+00) used in thermo

          ...................................................
          :                      SETUP                      :
          :.................................................:
          :  # frequencies                           9      :
          :  # imaginary freq.                       0      :
          :  linear?                             false      :
          :  only rotor calc.                    false      :
          :  symmetry                               cs      :
          :  rotational number                       1      :
          :  scaling factor                  1.0000000      :
          :  rotor cutoff                   50.0000000 cm⁻¹ :
          :  imag. cutoff                  -20.0000000 cm⁻¹ :
          :.................................................:

    mode    ω/cm⁻¹     T·S(HO)/kcal·mol⁻¹    T·S(FR)/kcal·mol⁻¹   T·S(vib)
   ------------------------------------------------------------------------
   ------------------------------------------------------------------------

   temp. (K)  partition function   enthalpy   heat capacity  entropy
                                   cal/mol     cal/K/mol   cal/K/mol   J/K/mol
 298.15  VIB   1.23                  368.941      4.104      1.646
         ROT  0.791E+04              888.752      2.981     20.819
         INT  0.972E+04             1257.694      7.085     22.466
         TR   0.245E+27             1481.254      4.968     36.973
         TOT                        2738.9475    12.0529    59.4390   248.6928

   temp. (K)  partition function   enthalpy   heat capacity  entropy
                                   cal/mol     cal/K/mol   cal/K/mol   J/K/mol
 120.00  VIB   1.00                    5.736      0.300      0.056
         ROT  0.202E+04              357.707      2.981     18.106
         INT  0.203E+04              363.443      3.281     18.162
         TR   0.626E+26              596.178      4.968     32.454
         TOT                         959.6211     8.2490    50.6160   211.7772

   temp. (K)  partition function   enthalpy   heat capacity  entropy
                                   cal/mol     cal/K/mol   cal/K/mol   J/K/mol
 100.00  VIB   1.00                    1.671      0.122      0.019
         ROT  0.154E+04              298.089      2.981     17.563
         INT  0.154E+04              299.760      3.103     17.582
         TR   0.476E+26              496.815      4.968     31.549
         TOT                         796.5753     8.0708    49.1305   205.5621

   temp. (K)  partition function   enthalpy   heat capacity  entropy
                                   cal/mol     cal/K/mol   cal/K/mol   J/K/mol
  80.00  VIB   1.00                    0.278      0.031      0.004
         ROT  0.110E+04              238.471      2.981     16.898
         INT  0.110E+04              238.749      3.012     16.902
         TR   0.341E+26              397.452      4.968     30.440
         TOT                         636.2012     7.9798    47.3421   198.0793

   temp. (K)  partition function   enthalpy   heat capacity  entropy
                                   cal/mol     cal/K/mol   cal/K/mol   J/K/mol
  60.00  VIB   1.00                    0.015      0.003      0.000
         ROT   714.                  178.853      2.981     16.040
         INT   714.                  178.868      2.984     16.040
         TR   0.221E+26              298.089      4.968     29.012
         TOT                         476.9574     7.9519    45.0523   188.4989

   temp. (K)  partition function   enthalpy   heat capacity  entropy
                                   cal/mol     cal/K/mol   cal/K/mol   J/K/mol
  40.00  VIB   1.00                    0.000      0.000     -0.000
         ROT   389.                  119.236      2.981     14.832
         INT   389.                  119.236      2.981     14.831
         TR   0.120E+26              198.726      4.968     26.999
         TOT                         317.9616     7.9491    41.8299   175.0163

   temp. (K)  partition function   enthalpy   heat capacity  entropy
                                   cal/mol     cal/K/mol   cal/K/mol   J/K/mol
  20.00  VIB   1.00                    0.000      0.000     -0.000
         ROT   137.                   59.618      2.981     12.765
         INT   137.                   59.618      2.981     12.765
         TR   0.426E+25               99.363      4.968     23.557
         TOT                         158.9808     7.9490    36.3216   151.9695

   temp. (K)  partition function   enthalpy   heat capacity  entropy
                                   cal/mol     cal/K/mol   cal/K/mol   J/K/mol
  10.00  VIB   1.00                    0.000      0.000     -0.000
         ROT   48.6                   29.809      2.981     10.699
         INT   48.6                   29.809      2.981     10.699
         TR   0.151E+25               49.681      4.968     20.115
         TOT                          79.4904     7.9490    30.8133   128.9228

       T/K    H(0)-H(T)+PV         H(T)/Eh          T*S/Eh         G(T)/Eh
   ------------------------------------------------------------------------
    298.15    0.436479E-02    0.326528E-01    0.282414E-01    0.441143E-02
    120.00    0.152925E-02    0.298173E-01    0.967940E-02    0.201379E-01
    100.00    0.126942E-02    0.295575E-01    0.782945E-02    0.217280E-01
     80.00    0.101385E-02    0.293019E-01    0.603555E-02    0.232663E-01
     60.00    0.760080E-03    0.290481E-01    0.430773E-02    0.247404E-01
     40.00    0.506704E-03    0.287947E-01    0.266641E-02    0.261283E-01
     20.00    0.253352E-03    0.285414E-01    0.115764E-02    0.273837E-01
     10.00    0.126676E-03    0.284147E-01    0.491041E-03    0.279237E-01 (used)
   ------------------------------------------------------------------------

         :::::::::::::::::::::::::::::::::::::::::::::::::::::
         ::                  THERMODYNAMIC                  ::
         :::::::::::::::::::::::::::::::::::::::::::::::::::::
         :: total free energy          -7.909018714082 Eh   ::
         ::.................................................::
         :: total energy               -7.936942382734 Eh   ::
         :: zero point energy           0.028288033544 Eh   ::
         :: G(RRHO) w/o ZPVE           -0.000364364892 Eh   ::
         :: G(RRHO) contrib.            0.027923668652 Eh   ::
         :::::::::::::::::::::::::::::::::::::::::::::::::::::

optimized geometry written to: xtbopt.xyz


           -------------------------------------------------
          | TOTAL ENERGY               -7.936942382734 Eh   |
          | TOTAL ENTHALPY             -7.908527673174 Eh   |
          | TOTAL FREE ENERGY          -7.909018714082 Eh   |
          | GRADIENT NORM               0.000753257737 Eh/α |
          | HOMO-LUMO GAP               4.538186904067 eV   |
           -------------------------------------------------

------------------------------------------------------------------------
 * finished run on 2020/05/12 at 11:44:45.813     
------------------------------------------------------------------------
 total:
 * wall-time:     0 d,  0 h,  0 min,  0.105 sec
 *  cpu-time:     0 d,  0 h,  0 min,  0.105 sec
 * ratio c/w:     0.999 speedup
 SCF:
 * wall-time:     0 d,  0 h,  0 min,  0.003 sec
 *  cpu-time:     0 d,  0 h,  0 min,  0.003 sec
 * ratio c/w:     1.000 speedup
 ANC optimizer:
 * wall-time:     0 d,  0 h,  0 min,  0.033 sec
 *  cpu-time:     0 d,  0 h,  0 min,  0.033 sec
 * ratio c/w:     0.999 speedup
 numerical hessian:
 * wall-time:     0 d,  0 h,  0 min,  0.054 sec
 *  cpu-time:     0 d,  0 h,  0 min,  0.053 sec
 * ratio c/w:     0.998 speedup

