[Molden Format]
[Title]
[Atoms] AU
N      1     7  0.21673234887414E+01 -0.46952525352928E+00  0.14457303321701E+01
C      2     6  0.27006898629178E-01 -0.16588786289104E-01  0.33351802522043E-01
C      3     6 -0.21506927975283E+01 -0.12564276378086E+01 -0.12278979289473E+01
C      4     6  0.26308597661320E+01  0.10252418365114E+01 -0.44995690859496E+00
C      5     6 -0.26744973559843E+01  0.71729795138963E+00  0.19877270285345E+00
[GTO]
           1 0
 s           4   1.0000000000000000     
   63.594024466941008      -0.19234388414721629     
   10.951417231523665      -0.23478107924953728     
  0.87999310257376984       0.37593753901700888     
  0.33538715296521110       0.14982889271862770     
 p           4   1.0000000000000000     
   7.2965040481495080       0.97658666315667420     
   1.8918745450712575       0.90372226730345739     
  0.66694432110824120       0.47404958461536373     
  0.26552202674130870        7.1516067715011844E-002

           2 0
 s           4   1.0000000000000000     
   51.049363095579913      -0.16312063210127389     
   8.7911227406887544      -0.19911024581000730     
  0.70640422258929825       0.31882047753655751     
  0.26922813413411617       0.12706504184240380     
 p           4   1.0000000000000000     
   5.8263656140800002       0.73716451545209605     
   1.5106896018720002       0.68216371614850257     
  0.53256483288000001       0.35783053929253711     
  0.21202323690600003        5.3983030275847881E-002

           3 0
 s           4   1.0000000000000000     
   51.049363095579913      -0.16312063210127389     
   8.7911227406887544      -0.19911024581000730     
  0.70640422258929825       0.31882047753655751     
  0.26922813413411617       0.12706504184240380     
 p           4   1.0000000000000000     
   5.8263656140800002       0.73716451545209605     
   1.5106896018720002       0.68216371614850257     
  0.53256483288000001       0.35783053929253711     
  0.21202323690600003        5.3983030275847881E-002

           4 0
 s           4   1.0000000000000000     
   51.049363095579913      -0.16312063210127389     
   8.7911227406887544      -0.19911024581000730     
  0.70640422258929825       0.31882047753655751     
  0.26922813413411617       0.12706504184240380     
 p           4   1.0000000000000000     
   5.8263656140800002       0.73716451545209605     
   1.5106896018720002       0.68216371614850257     
  0.53256483288000001       0.35783053929253711     
  0.21202323690600003        5.3983030275847881E-002

           5 0
 s           4   1.0000000000000000     
   51.049363095579913      -0.16312063210127389     
   8.7911227406887544      -0.19911024581000730     
  0.70640422258929825       0.31882047753655751     
  0.26922813413411617       0.12706504184240380     
 p           4   1.0000000000000000     
   5.8263656140800002       0.73716451545209605     
   1.5106896018720002       0.68216371614850257     
  0.53256483288000001       0.35783053929253711     
  0.21202323690600003        5.3983030275847881E-002

[MO]
Sym=     1a
Ene=  -0.74839306506787151     
Spin= Alpha
Occup=     2.00000000
           1  0.31465608744031409     
           2 -0.11613242171578611     
           3   8.4619659998422594E-002
           4 -0.15962282934013855     
           5  0.43193370410750431     
           6   7.8968122748484360E-002
           7   2.3170271898744158E-003
           8   2.5821390575127782E-002
           9  0.17248027809504687     
          10   5.7547665474038084E-002
          11   6.3451034154856575E-002
          12   5.7592460838496236E-002
          13  0.27264411897519070     
          14 -0.10124559352172245     
          15  -7.5168413172619977E-002
          16   6.6698817999471346E-002
          17  0.17255881364141154     
          18   8.7537334963435159E-002
          19  -4.9272195145469246E-002
          20  -2.3875096058193997E-002
Sym=     2a
Ene=  -0.72704486360571696     
Spin= Alpha
Occup=     2.00000000
           1  0.23852309036963551     
           2  -7.2642006401249298E-003
           3   6.9662865071606336E-002
           4  -9.8946725191553356E-002
           5 -0.10367111687517722     
           6  0.30163545227037641     
           7   3.0029149257410369E-002
           8   6.9339858331749479E-002
           9 -0.34421672929721542     
          10  -2.3103884445695302E-002
          11 -0.11458107565288439     
          12  -9.0825239800152335E-002
          13  0.20697219303206121     
          14  -2.4705769074362414E-002
          15  -5.1398103080158471E-002
          16   6.1966976734085327E-002
          17 -0.34429835819852267     
          18  -8.1153397281164302E-002
          19  0.10398555583061427     
          20   6.7153155689525526E-002
Sym=     3a
Ene=  -0.61507563902202267     
Spin= Alpha
Occup=     2.00000000
           1  0.12755962723367581     
           2 -0.38713152630932457     
           3 -0.19461287853708678     
           4  0.12707178158765467     
           5  0.21903552154492359     
           6  -1.0916173496927752E-002
           7 -0.22161923474422088     
           8  0.30285968614981190     
           9 -0.13817538928554682     
          10  0.12209479775200133     
          11 -0.11229428739693351     
          12   9.0197251127944397E-002
          13 -0.45218730001070478     
          14  -7.9311245537696445E-002
          15  -1.0499618887286830E-002
          16  -1.4423943803962544E-002
          17 -0.13778574047081488     
          18   9.5693136794179789E-002
          19  -1.2352392875995844E-002
          20  0.16255946668807261     
Sym=     4a
Ene=  -0.60478204365279331     
Spin= Alpha
Occup=     2.00000000
           1  -2.3733747312295848E-003
           2  -7.0350375357750530E-002
           3  0.26362213695348519     
           4  0.19000672951721043     
           5   1.3149545278738008E-003
           6 -0.10430091938771029     
           7  0.39321267359813239     
           8  0.28235353998698148     
           9 -0.34012601794789316     
          10 -0.14635070562067112     
          11  0.13145037900162135     
          12   7.7438232744577243E-002
          13   6.9485286452821587E-004
          14  -4.4807374877565913E-002
          15  0.16575652505645591     
          16  0.11868827234568903     
          17  0.33835809324559918     
          18   7.2760915063728754E-002
          19  0.15438421182062309     
          20  0.12809705363835741     
Sym=     5a
Ene=  -0.59967080477891876     
Spin= Alpha
Occup=     2.00000000
           1  0.48987643515478679     
           2  0.15094059452812769     
           3  -3.1436075064027812E-002
           4  0.10199083964469390     
           5 -0.28810852264184339     
           6  -2.1905789324383300E-002
           7 -0.17626526237327278     
           8  0.23987793787995595     
           9  0.18917545751676956     
          10 -0.24606453215035168     
          11  -2.1100613412897776E-002
          12   9.7906130112837414E-002
          13  -8.7421353308495861E-002
          14  0.20372917999825052     
          15  -9.2606813964409007E-002
          16  0.20478781364589013     
          17  0.19222584602049425     
          18 -0.20717599682772611     
          19 -0.16411011361506220     
          20  -5.2291384861985575E-003
Sym=     6a
Ene=  -0.54017797980934401     
Spin= Alpha
Occup=     2.00000000
           1 -0.24785860643481833     
           2 -0.40176242565986842     
           3  -2.9520798007631393E-002
           4 -0.10546261253629910     
           5  -4.4274449228278612E-002
           6  0.30687985898746378     
           7   3.7677741296093921E-002
           8   6.1148545166348933E-002
           9  0.15675337057690461     
          10 -0.38687344675029856     
          11   3.4272980175419930E-002
          12  -4.0614077878361056E-002
          13  -3.7739894180973253E-002
          14 -0.24347020975464001     
          15   5.7409034022529885E-002
          16 -0.16794955616902085     
          17  0.15595213816409639     
          18 -0.35082897729765389     
          19 -0.10116381466910662     
          20 -0.13850316117266526     
Sym=     7a
Ene=  -0.52727184477701594     
Spin= Alpha
Occup=     2.00000000
           1   1.1209312667748313E-004
           2  0.11456130759101418     
           3 -0.43271163106261201     
           4 -0.31289595499333817     
           5  -7.6992039666776141E-005
           6   1.9295721255816693E-002
           7  -7.1187965770679956E-002
           8  -5.1596317425802549E-002
           9 -0.41289524427441998     
          10  -5.2416844127979633E-003
          11  0.20816738975965454     
          12  0.15865112547405325     
          13  -3.1985701864969425E-004
          14   7.3188848328200273E-002
          15 -0.27663927365735153     
          16 -0.20021795218981675     
          17  0.41314567715553674     
          18 -0.10391966030888676     
          19  0.19880666886403084     
          20  0.13478414974300246     
Sym=     8a
Ene=  -0.51627102884735299     
Spin= Alpha
Occup=     2.00000000
           1  0.36828442408363732     
           2   1.1794865898550774E-002
           3 -0.15519990967512265     
           4  0.21960695272902486     
           5   1.2329916474481404E-002
           6   5.9637414390673722E-002
           7  0.12816562394934972     
           8 -0.15522089533627215     
           9   1.0741900836313751E-002
          10   2.0715611761044358E-002
          11  0.28703029415580561     
          12 -0.37804345837210857     
          13 -0.35850792116665614     
          14 -0.15478727133068140     
          15  -9.5214641690732529E-002
          16   7.5228840859327059E-002
          17   1.0355598185907455E-002
          18   2.3623436092963655E-002
          19  0.27650722543941464     
          20 -0.38572601146365204     
Sym=     9a
Ene=  -0.44712409640648171     
Spin= Alpha
Occup=     1.99983271
           1  0.29536995526621818     
           2  -8.8297779914061264E-002
           3 -0.33935833691114231     
           4  0.43665844195292863     
           5   2.9566182479763611E-003
           6   1.1628936056185115E-002
           7  -8.1192835023872565E-003
           8   1.5462362667349358E-002
           9  -9.6962989110711256E-003
          10   3.0561955460788881E-003
          11   3.1195343671007493E-002
          12   1.8071996084906400E-003
          13  0.50793470301343802     
          14  0.14916909548593216     
          15  0.36907407830370498     
          16 -0.45527144114649470     
          17  -9.6569491174464325E-003
          18   1.3579845189666649E-002
          19  -8.5653842664707384E-003
          20  -2.6949855047210744E-002
Sym=    10a
Ene=  -0.43060163533953311     
Spin= Alpha
Occup=     1.00016729
           1  -1.9881878719749745E-002
           2   3.2822018953878240E-003
           3   1.5304395352958286E-002
           4  -1.7822313706047432E-002
           5  -4.4854069990696811E-003
           6   1.0471301950380634E-002
           7  -2.7350884881887139E-003
           8   5.4888479943455432E-003
           9 -0.39311771458870481     
          10 -0.10368967904084554     
          11  0.48195527564752805     
          12  0.34603127989284005     
          13  -2.1358313139302712E-002
          14   9.5390691560345593E-003
          15  -1.0573665832685078E-002
          16   1.9404357728848635E-002
          17 -0.39197596139334290     
          18  0.14757134798428473     
          19 -0.47122784121835437     
          20 -0.34318781208540777     
Sym=    11a
Ene=  -0.41339323299278818     
Spin= Alpha
Occup=     1.00000000
           1  0.21428257383477867     
           2  0.31647192502696331     
           3 -0.11124569200837260     
           4  0.26587575504302341     
           5   3.8921530881400934E-002
           6   9.1211302739967304E-002
           7  0.29228429851116217     
           8 -0.36559007153110368     
           9  -5.3894229374362975E-003
          10  -7.4359395284173305E-002
          11 -0.22172623357890994     
          12  0.29692479227335988     
          13 -0.19497365773900041     
          14 -0.49872368345853624     
          15  -8.0761872490358266E-002
          16  -7.4124099593748730E-002
          17  -7.9390492755630586E-003
          18  -6.4751788066324534E-002
          19 -0.23843696039352921     
          20  0.28496029751577284     
Sym=    12a
Ene=  -0.40935880343359454     
Spin= Alpha
Occup=     1.00000000
           1  -1.1885273773064565E-003
           2   8.8126755764360756E-002
           3 -0.33760864532481188     
           4 -0.24619484154673371     
           5  -1.4840113843569779E-004
           6 -0.10979850029095276     
           7  0.40941815189474040     
           8  0.29943088091843073     
           9  0.20983214089460908     
          10 -0.39501331578304766     
          11 -0.18279595075754321     
          12 -0.19577949475885723     
          13   1.0189964609553330E-003
          14   5.7591339581138205E-002
          15 -0.20522135586632520     
          16 -0.14831903514577047     
          17 -0.21169817889539658     
          18  0.46938190680205072     
          19  -9.2351436992749933E-002
          20  -8.4530876883825035E-003
Sym=    13a
Ene=  -0.30885559642015287     
Spin= Alpha
Occup=     0.00000000
           1  -4.1010479761204284E-006
           2  0.13527428359806776     
           3 -0.50913195748760021     
           4 -0.36839008822912422     
           5  -2.2962292595844148E-005
           6   2.6388828448761174E-003
           7  -9.9079025812995655E-003
           8  -7.1522606812511229E-003
           9  -3.0121651800530324E-004
          10  -1.0416102987146406E-003
          11  -9.0722134764856896E-002
          12  0.12809817764887355     
          13   1.2146042750885949E-006
          14 -0.18433026698380423     
          15  0.69370131780835320     
          16  0.50191837270259143     
          17   3.0534533609842150E-004
          18   3.5928827802838144E-004
          19   9.3409954777395748E-002
          20 -0.12616734204051436     
Sym=    14a
Ene=  -0.28813940965009216     
Spin= Alpha
Occup=     0.00000000
           1  -8.2586359842783696E-007
           2  -2.8792467606917577E-002
           3  0.10711935393670613     
           4   7.7408864686959913E-002
           5  -8.0356079327361480E-006
           6  -2.0940891324090170E-004
           7   7.3620731016401785E-004
           8   5.5766451780771341E-004
           9  -4.2284756584100069E-004
          10  -9.2418204227902770E-002
          11 -0.47281192853536436     
          12  0.62049211131385773     
          13  -1.0276443524539110E-005
          14   3.7893841831168888E-002
          15 -0.14101694976926535     
          16 -0.10191086792648717     
          17   4.3395750944767535E-004
          18   9.2362253429466995E-002
          19  0.47313705494580016     
          20 -0.62031960077514370     
Sym=    15a
Ene=   -8.0891550905946560E-002
Spin= Alpha
Occup=     0.00000000
           1  -3.3143078649912443E-002
           2 -0.42224536993271183     
           3 -0.19830632790917041     
           4  0.12154859685500516     
           5  0.41040579817048123     
           6  0.14360563284610764     
           7  0.44411851811112485     
           8 -0.57147997704239906     
           9  -5.8240571783963108E-002
          10 -0.15291967327451450     
          11 -0.12990929260077488     
          12   8.0916223480233529E-002
          13 -0.13962438278543460     
          14  0.75627586070477026     
          15  -5.9230557389260217E-002
          16  0.36181493473478410     
          17  -5.7177933062080320E-002
          18 -0.15426651946092468     
          19  -8.8140665299603835E-002
          20  0.11326149551430698     
Sym=    16a
Ene=   -6.3953768230655281E-002
Spin= Alpha
Occup=     0.00000000
           1  -5.1483834452051302E-004
           2  -3.6077107646606744E-002
           3  0.15710283647406464     
           4  0.11201901538902481     
           5   9.2592857916438422E-004
           6  0.16655221669881531     
           7 -0.63888125334403578     
           8 -0.45404020541135232     
           9  -7.0759823625882692E-002
          10 -0.72774573251916541     
          11  0.11354718202584332     
          12  -2.1306932387846117E-002
          13   7.8201579378202367E-004
          14  -3.8096078697500715E-002
          15  0.12408105090577526     
          16   8.6261648891476930E-002
          17   6.9804584658869254E-002
          18  0.62898499565437493     
          19  0.25437853507187114     
          20  0.28358938530600797     
Sym=    17a
Ene=   -1.8264205043039310E-002
Spin= Alpha
Occup=     0.00000000
           1  0.25791348221707000     
           2 -0.60144489121480182     
           3  -3.7464361589173475E-002
           4 -0.16791142157711622     
           5  -1.0285268061606905     
           6  0.11415648688083366     
           7  0.21060766135424575     
           8 -0.25462248526690656     
           9  0.20998133110598016     
          10  0.37443823320495501     
          11   6.7442081551867594E-002
          12  0.19542438657374070     
          13   9.0635314082379459E-002
          14  -7.6439801475709196E-002
          15  -7.4781532525261013E-002
          16   7.6264587747666340E-002
          17  0.21041500646037151     
          18  0.41617756139258533     
          19  -6.7426413332577276E-002
          20   9.9109315617683047E-002
Sym=    18a
Ene=   0.34357442054470411     
Spin= Alpha
Occup=     0.00000000
           1  0.78355434797449686     
           2   2.7664665576609012E-002
           3  0.51729138377731887     
           4 -0.70481367977292608     
           5   7.3383658161874310E-002
           6 -0.13818883771273996     
           7  0.13523542998355967     
           8 -0.23764281240938429     
           9  -5.1473460805685108E-002
          10  -6.4783950321355949E-002
          11  -5.2218383152436411E-002
          12   7.2289647207373952E-003
          13 -0.69143477937699716     
          14  0.26392249667166839     
          15  0.56741549764466881     
          16 -0.68728606076085863     
          17  -5.0836560365211600E-002
          18  -7.4802556202281198E-002
          19  -1.5691987020737416E-002
          20   3.3719345025948359E-002
Sym=    19a
Ene=   0.38729419002344778     
Spin= Alpha
Occup=     0.00000000
           1 -0.28496268444975353     
           2  0.47109467023503870     
           3   3.1301792490776879E-002
           4  0.12972723639357223     
           5   6.4276850522217252E-002
           6   1.2427323712806915     
           7  0.10062203695367161     
           8  0.31788082807428680     
           9  0.31193069749322611     
          10  0.33406207120392445     
          11  0.14739850657325840     
          12  0.15099244151952704     
          13 -0.40982579385304357     
          14  0.37559944611953705     
          15  0.20023349017784114     
          16 -0.13884913603178178     
          17  0.30777352635837935     
          18  0.38951685671664044     
          19  -5.8732937407919038E-002
          20   2.0697175760173944E-003
Sym=    20a
Ene=   0.49605604492147015     
Spin= Alpha
Occup=     0.00000000
           1   1.1478477858951821E-003
           2   8.2975660331372179E-003
           3  -3.5789181566458536E-002
           4  -2.6646903770148011E-002
           5   3.2307306536189212E-004
           6  -5.4279390969880902E-002
           7  0.18958854959322455     
           8  0.13615846883179081     
           9  0.82973570738558877     
          10 -0.10156343465115276     
          11  0.75520757771507496     
          12  0.56029309234918023     
          13   8.1051106277464679E-004
          14   7.0960585119884453E-003
          15  -3.0156449189972696E-002
          16  -2.1487526173535956E-002
          17 -0.83183063143123659     
          18 -0.29662573685985799     
          19  0.73565211337816128     
          20  0.51707650092430735     
