 Entering Gaussian System
 *********************************************
 Gaussian 98:
 frequency output generated by the xtb code
 *********************************************
                         Standard orientation:
 --------------------------------------------------------------------
  Center     Atomic     Atomic              Coordinates (Angstroms)
  Number     Number      Type              X           Y           Z
 --------------------------------------------------------------------
    1          7             0        1.146898   -0.248462    0.765048
    2          6             0        0.014291   -0.008778    0.017649
    3          6             0       -1.138098   -0.664873   -0.649776
    4          6             0        1.392191    0.542535   -0.238107
    5          6             0       -1.415283    0.379578    0.105186
 --------------------------------------------------------------------
     1 basis functions        1 primitive gaussians
     1 alpha electrons        1 beta electrons

 Harmonic frequencies (cm**-1), IR intensities (KM/Mole),
 Raman scattering activities (A**4/amu), Raman depolarization ratios,
 reduced masses (AMU), force constants (mDyne/A) and normal coordinates:
                      1                      2                      3
                        a                      a                      a 
 Frequencies --   283.8142               324.0740               366.2819
 Red. masses --    12.1444                12.0480                12.5997
 Frc consts  --     0.0000                 0.0000                 0.0000
 IR Inten    --     1.1558                 0.2237                 0.1784
 Raman Activ --     0.0000                 0.0000                 0.0000
 Depolar     --     0.0000                 0.0000                 0.0000
 Atom AN      X      Y      Z        X      Y      Z        X      Y      Z
   1   7     0.02  -0.15   0.21    -0.03   0.11   0.08     0.12  -0.43  -0.31
   2   6     0.17   0.53  -0.67    -0.11   0.42   0.32    -0.11   0.41   0.30
   3   6     0.03  -0.10   0.15     0.31   0.18  -0.26     0.22  -0.24   0.31
   4   6    -0.24  -0.17   0.14     0.11  -0.43  -0.31    -0.04   0.14   0.10
   5   6     0.02  -0.11   0.15    -0.28  -0.29   0.18    -0.20   0.15  -0.38
                      4                      5                      6
                        a                      a                      a 
 Frequencies --   370.9307               737.6110               743.5759
 Red. masses --    12.5765                12.7469                12.0128
 Frc consts  --     0.0000                 0.0000                 0.0000
 IR Inten    --     0.5264                 0.2117                 0.1481
 Raman Activ --     0.0000                 0.0000                 0.0000
 Depolar     --     0.0000                 0.0000                 0.0000
 Atom AN      X      Y      Z        X      Y      Z        X      Y      Z
   1   7     0.47  -0.04   0.24     0.59   0.07   0.12    -0.03   0.00  -0.00
   2   6     0.04  -0.12   0.17     0.03   0.07  -0.04    -0.11   0.39   0.29
   3   6     0.09   0.14  -0.16    -0.52   0.00  -0.09    -0.46  -0.27  -0.26
   4   6    -0.74  -0.10  -0.13     0.29  -0.04   0.17    -0.02   0.02   0.00
   5   6     0.09   0.14  -0.15    -0.44  -0.11  -0.17     0.62  -0.14  -0.02
                      7                      8                      9
                        a                      a                      a 
 Frequencies --  1368.8485              1618.4424              1765.0750
 Red. masses --    12.4017                12.4839                12.2661
 Frc consts  --     0.0000                 0.0000                 0.0000
 IR Inten    --     0.5395                 0.4520                 0.9664
 Raman Activ --     0.0000                 0.0000                 0.0000
 Depolar     --     0.0000                 0.0000                 0.0000
 Atom AN      X      Y      Z        X      Y      Z        X      Y      Z
   1   7     0.27   0.25  -0.25     0.07  -0.27   0.40    -0.11   0.18  -0.29
   2   6    -0.65  -0.05  -0.17    -0.21   0.00  -0.08     0.52   0.03   0.15
   3   6     0.21  -0.15  -0.08     0.08  -0.39  -0.28    -0.03  -0.38  -0.29
   4   6     0.02  -0.26   0.37     0.18   0.30  -0.34    -0.15  -0.20   0.22
   5   6     0.13   0.19   0.15    -0.13   0.38   0.27    -0.23   0.35   0.23
