 Entering Gaussian System
 *********************************************
 Gaussian 98:
 frequency output generated by the xtb code
 *********************************************
                         Standard orientation:
 --------------------------------------------------------------------
  Center     Atomic     Atomic              Coordinates (Angstroms)
  Number     Number      Type              X           Y           Z
 --------------------------------------------------------------------
    1          6             0       -1.577310   -0.480708    0.232028
    2          7             0       -0.250130   -0.104307   -0.126944
    3          6             0        0.998041   -0.258384   -0.071873
    4          6             0       -1.392373    0.808888    0.107899
    5          6             0        2.221772    0.034510   -0.141109
 --------------------------------------------------------------------
     1 basis functions        1 primitive gaussians
     1 alpha electrons        1 beta electrons

 Harmonic frequencies (cm**-1), IR intensities (KM/Mole),
 Raman scattering activities (A**4/amu), Raman depolarization ratios,
 reduced masses (AMU), force constants (mDyne/A) and normal coordinates:
                      1                      2                      3
                        a                      a                      a 
 Frequencies --   126.6807               186.5790               326.7494
 Red. masses --    13.2317                12.5856                12.1461
 Frc consts  --     0.0000                 0.0000                 0.0000
 IR Inten    --     0.1917                 0.4696                 1.0484
 Raman Activ --     0.0000                 0.0000                 0.0000
 Depolar     --     0.0000                 0.0000                 0.0000
 Atom AN      X      Y      Z        X      Y      Z        X      Y      Z
   1   6    -0.11  -0.06  -0.42    -0.20   0.21  -0.15    -0.63  -0.10   0.15
   2   7     0.11   0.13   0.76    -0.01  -0.52   0.15     0.01   0.25   0.08
   3   6     0.07   0.01   0.08     0.02  -0.32   0.01    -0.00   0.19  -0.24
   4   6    -0.16  -0.01  -0.13     0.40   0.16   0.04     0.50  -0.34  -0.11
   5   6     0.08  -0.08  -0.36    -0.21   0.51  -0.06     0.13  -0.02   0.11
                      4                      5                      6
                        a                      a                      a 
 Frequencies --   350.0119               463.2800               768.4455
 Red. masses --    12.2636                12.7568                12.1523
 Frc consts  --     0.0000                 0.0000                 0.0000
 IR Inten    --     0.3378                 0.4795                 0.8155
 Raman Activ --     0.0000                 0.0000                 0.0000
 Depolar     --     0.0000                 0.0000                 0.0000
 Atom AN      X      Y      Z        X      Y      Z        X      Y      Z
   1   6    -0.12  -0.08  -0.11     0.16  -0.12   0.08    -0.46   0.19   0.09
   2   7    -0.00   0.16  -0.32     0.10   0.60   0.03     0.18   0.00  -0.19
   3   6    -0.02   0.03   0.77    -0.04  -0.65  -0.07     0.31  -0.33   0.06
   4   6     0.23  -0.12   0.09     0.05  -0.08  -0.10    -0.48  -0.02   0.10
   5   6    -0.09  -0.02  -0.40    -0.28   0.21   0.06     0.44   0.16  -0.04
                      7                      8                      9
                        a                      a                      a 
 Frequencies --  1367.3684              1614.3772              1818.9460
 Red. masses --    13.0915                12.0273                12.3703
 Frc consts  --     0.0000                 0.0000                 0.0000
 IR Inten    --     0.7733                 2.7231                 0.6477
 Raman Activ --     0.0000                 0.0000                 0.0000
 Depolar     --     0.0000                 0.0000                 0.0000
 Atom AN      X      Y      Z        X      Y      Z        X      Y      Z
   1   6    -0.06   0.32  -0.00    -0.21  -0.33   0.07     0.17   0.50  -0.08
   2   7     0.73  -0.08  -0.03     0.08  -0.00  -0.04    -0.42   0.05   0.04
   3   6    -0.17   0.15  -0.03     0.66   0.12  -0.04     0.48   0.01  -0.01
   4   6    -0.13  -0.29   0.05    -0.05   0.35  -0.02    -0.01  -0.52   0.03
   5   6    -0.43  -0.09   0.02    -0.50  -0.13   0.03    -0.19  -0.05   0.01
