5
 energy: -10.873755919612 gnorm: 0.291300576710 xtb: 6.2.2 (9d81278992624c895f80dd42a50cac0aa55982e2)
C        -1.40603900000000   -0.63361300000000    0.21228900000000
N        -0.27461100000000    0.00320900000000   -0.47771200000000
C         0.84963300000000   -0.04828100000000    0.43870800000000
C        -1.30933900000000    0.81858300000000    0.17520200000000
C         2.14035600000000   -0.13989900000000   -0.34848700000000
5
 energy: -10.955121087782 gnorm: 0.201069114956 xtb: 6.2.2 (9d81278992624c895f80dd42a50cac0aa55982e2)
C        -1.42583445699910   -0.60485287610795    0.21097555905404
N        -0.27123865562254    0.00388951202174   -0.42197341087812
C         0.92056746704013   -0.05512174132323    0.31320856058596
C        -1.33277017338803    0.79275315380525    0.17520319963113
C         2.10927581896954   -0.13666904839581   -0.27741390839301
5
 energy: -10.910390518256 gnorm: 0.828998254826 xtb: 6.2.2 (9d81278992624c895f80dd42a50cac0aa55982e2)
C        -1.45687038104081   -0.55283755845360    0.19526678898510
N        -0.24956142556456    0.00479203311287   -0.31455423703888
C         1.04722554520304   -0.06711987965984    0.14607961296329
C        -1.37225503284508    0.74540292835606    0.16163433120113
C         2.03146129424742   -0.13023852335550   -0.18842649611065
5
 energy: -10.995111248691 gnorm: 0.077605393167 xtb: 6.2.2 (9d81278992624c895f80dd42a50cac0aa55982e2)
C        -1.47231200462712   -0.56121075095638    0.21375665146741
N        -0.28759656584938    0.00655793285913   -0.33055364599774
C         0.97080683420056   -0.06344735104944    0.13489089332160
C        -1.38633215470183    0.75670921072377    0.17867348641916
C         2.17543389097778   -0.13861004157709   -0.19676738521043
5
 energy: -11.000213871743 gnorm: 0.058866929948 xtb: 6.2.2 (9d81278992624c895f80dd42a50cac0aa55982e2)
C        -1.50285122820110   -0.55646005914210    0.22118476281389
N        -0.29375254899165    0.00312793379629   -0.29691047012805
C         0.99302567765882   -0.08066341205325    0.06660517982073
C        -1.41202008482190    0.76309985441907    0.17659789574397
C         2.21559818435582   -0.12910531702000   -0.16747736825055
5
 energy: -11.009338621828 gnorm: 0.046868972971 xtb: 6.2.2 (9d81278992624c895f80dd42a50cac0aa55982e2)
C        -1.54931861399189   -0.52890643209079    0.24964402834428
N        -0.25950034345843   -0.02875849325429   -0.21634556444783
C         0.99780621477462   -0.19233013998004   -0.02069135595247
C        -1.42271889485719    0.79365116634411    0.13297372931600
C         2.23373163753288   -0.04365710101899   -0.14558083725998
5
 energy: -11.002263080528 gnorm: 0.103073865589 xtb: 6.2.2 (9d81278992624c895f80dd42a50cac0aa55982e2)
C        -1.60343668099926   -0.46603178333358    0.29931777108983
N        -0.25205443674123   -0.08743861883925   -0.16501082429446
C         0.98818107095727   -0.33538409638581   -0.13905628960016
C        -1.40511107872778    0.81092686871550    0.09885711373998
C         2.27242112551099    0.07792662984314   -0.09410777093518
5
 energy: -11.009727935266 gnorm: 0.065027425882 xtb: 6.2.2 (9d81278992624c895f80dd42a50cac0aa55982e2)
C        -1.56264650715363   -0.49062337664835    0.25445492515227
N        -0.23185747248104   -0.04815421639379   -0.16241109479107
C         0.98127280817107   -0.21629509191792   -0.10996835277790
C        -1.41926396958730    0.77326458147697    0.13012489475931
C         2.23249514105090   -0.01819289651691   -0.11220037234259
5
 energy: -11.009953413751 gnorm: 0.044150219308 xtb: 6.2.2 (9d81278992624c895f80dd42a50cac0aa55982e2)
C        -1.57652468588998   -0.51663922087519    0.24178099822085
N        -0.26619362889531   -0.05849638128629   -0.19544311196664
C         1.00541073149210   -0.20420602014838   -0.03218007894830
C        -1.40057694418556    0.79633157308775    0.12979816613904
C         2.23788452747875   -0.01699095077789   -0.14395597344495
5
 energy: -11.011664949164 gnorm: 0.005061804298 xtb: 6.2.2 (9d81278992624c895f80dd42a50cac0aa55982e2)
C        -1.57014132215612   -0.50192423240458    0.25124812319447
N        -0.25297703787502   -0.05514233826212   -0.17427506324414
C         0.99445590345867   -0.22143107789733   -0.07759761548644
C        -1.40988273000119    0.78854275617072    0.12561007285492
C         2.23854518657366   -0.01004610760668   -0.12498551731880
5
 energy: -11.011745127016 gnorm: 0.011548391718 xtb: 6.2.2 (9d81278992624c895f80dd42a50cac0aa55982e2)
C        -1.57709117974114   -0.49688258517811    0.25042246985817
N        -0.24956086064884   -0.06769830441379   -0.16831168465825
C         0.99145175726319   -0.23114127838448   -0.07800330839560
C        -1.39883840150096    0.79165754458401    0.12270262506446
C         2.23403868462774    0.00406362339236   -0.12681010186877
5
 energy: -11.011811883613 gnorm: 0.008670096151 xtb: 6.2.2 (9d81278992624c895f80dd42a50cac0aa55982e2)
C        -1.58102728760414   -0.49267824609642    0.24875104270604
N        -0.24986286794878   -0.07421308249798   -0.16180615880629
C         0.99306828202246   -0.23699391710474   -0.07900047868477
C        -1.39551615061333    0.79256903097847    0.11999510534137
C         2.23333802414378    0.01131521472067   -0.12793951055635
5
 energy: -11.011914615644 gnorm: 0.004811594190 xtb: 6.2.2 (9d81278992624c895f80dd42a50cac0aa55982e2)
C        -1.58814827341380   -0.48522060577085    0.24285137120543
N        -0.25068655340062   -0.09071386595137   -0.14649204251418
C         0.99647301872116   -0.25085339798487   -0.07380908795156
C        -1.38476397782376    0.79757651895487    0.11211460676826
C         2.22712578591702    0.02921035075221   -0.13466484750794
5
 energy: -11.011948001710 gnorm: 0.003090899260 xtb: 6.2.2 (9d81278992624c895f80dd42a50cac0aa55982e2)
C        -1.58795847464788   -0.48274239943526    0.23931771623034
N        -0.25078270802279   -0.09710605324677   -0.13776057272823
C         0.99752941776890   -0.25693282524487   -0.07110829077838
C        -1.38094813634556    0.80072124498832    0.10776952045801
C         2.22215990124733    0.03605903293858   -0.13821837318174
5
 energy: -11.011960744286 gnorm: 0.002253307737 xtb: 6.2.2 (9d81278992624c895f80dd42a50cac0aa55982e2)
C        -1.58596467913610   -0.48204429359816    0.23743666624288
N        -0.25027006649017   -0.09933365098163   -0.13232508145516
C         0.99780547946367   -0.25992638914430   -0.07082507773279
C        -1.38102456418684    0.80296104934449    0.10543590780219
C         2.21945383034944    0.03834228437961   -0.13972241485712
5
 energy: -11.011967083022 gnorm: 0.002029976332 xtb: 6.2.2 (9d81278992624c895f80dd42a50cac0aa55982e2)
C        -1.58379209800484   -0.48200206247769    0.23648677493268
N        -0.24991123220945   -0.09985690412975   -0.12941511493650
C         0.99782642215948   -0.26093800124718   -0.07186771321009
C        -1.38287177772749    0.80447117291323    0.10470131784582
C         2.21874868578230    0.03832479494139   -0.13990526463191
5
 energy: -11.011974398060 gnorm: 0.002093557630 xtb: 6.2.2 (9d81278992624c895f80dd42a50cac0aa55982e2)
C        -1.58000690062373   -0.48204705914823    0.23491197729324
N        -0.24954791510095   -0.10052412211831   -0.12599178038288
C         0.99786874822824   -0.26101986451699   -0.07419165037238
C        -1.38752122108155    0.80683250905656    0.10488771662056
C         2.21920728857799    0.03675753672697   -0.13961626315853
5
 energy: -11.011978184439 gnorm: 0.001582476557 xtb: 6.2.2 (9d81278992624c895f80dd42a50cac0aa55982e2)
C        -1.57942234250789   -0.48183080513345    0.23432290340870
N        -0.24965338127141   -0.10121112378921   -0.12610403474101
C         0.99793169424203   -0.26031605511174   -0.07413525416112
C        -1.38880736646000    0.80727150989737    0.10563269312838
C         2.21995139599727    0.03608547413703   -0.13971630763496
5
 energy: -11.011981903336 gnorm: 0.000674162404 xtb: 6.2.2 (9d81278992624c895f80dd42a50cac0aa55982e2)
C        -1.57730811431351   -0.48071697495943    0.23202122015278
N        -0.25012901427869   -0.10430762641203   -0.12694507732593
C         0.99804234729281   -0.25837906139402   -0.07187015383201
C        -1.39237762825090    0.80888079197739    0.10789540915977
C         2.22177240955029    0.03452187078809   -0.14110139815461
