$hessian                                                                        
        0.0891505946  -0.0719463460  -0.0805749416  -0.0172527399  -0.0225494170
       -0.0255858537  -0.0193395991   0.0061383440   0.0770195421  -0.0505560715
        0.0452623590   0.0291203594  -0.0020021841   0.0430950599   0.0000208938
       -0.0719463460   0.3195148188   0.0996050946   0.0067973161  -0.0351929609
       -0.0457862470   0.0168687672  -0.0132781095  -0.0465044499   0.0159853993
       -0.0222028137  -0.0328891125   0.0322948633  -0.2488409347   0.0255747149
       -0.0805749416   0.0996050946   0.2692167917   0.0003721001  -0.0505092920
       -0.0269206389   0.0714031374  -0.0108326225  -0.2269610579   0.0031624479
       -0.0280945996  -0.0066414552   0.0056372562  -0.0101685805  -0.0086936396
       -0.0172527399   0.0067973161   0.0003721001   0.2250570548   0.1369917418
        0.1263109325  -0.0858648484  -0.1290191627   0.0168832509  -0.0750203844
       -0.0217168557  -0.0341748947  -0.0469190821   0.0069469605  -0.1093913887
       -0.0225494170  -0.0351929609  -0.0505092920   0.1369917418   0.2079522849
        0.0344436258  -0.1145706235  -0.1648944749   0.0310828564   0.0075723445
       -0.0020830952  -0.0163613486  -0.0074440458  -0.0057817540   0.0013441583
       -0.0255858537  -0.0457862470  -0.0269206389   0.1263109325   0.0344436258
        0.2448128235  -0.0044166987   0.0034691854  -0.0088203560  -0.0082269604
       -0.0210610925  -0.0021934099  -0.0880814196   0.0289345284  -0.2068784187
       -0.0193395991   0.0168687672   0.0714031374  -0.0858648484  -0.1145706235
       -0.0044166987   0.2016207552   0.0206585788  -0.0233622158  -0.1137859764
        0.0877648429  -0.0556948311   0.0173696688  -0.0107215653   0.0120706082
        0.0061383440  -0.0132781095  -0.0108326225  -0.1290191627  -0.1648944749
        0.0034691854   0.0206585788   0.3117845383  -0.1285989044   0.1128787853
       -0.0941094197   0.0695434364  -0.0106565454  -0.0395025343   0.0664189051
        0.0770195421  -0.0465044499  -0.2269610579   0.0168832509   0.0310828564
       -0.0088203560  -0.0233622158  -0.1285989044   0.3431282468  -0.0825927658
        0.0775755269  -0.0516837801   0.0120521886   0.0664449710  -0.0556630528
       -0.0505560715   0.0159853993   0.0031624479  -0.0750203844   0.0075723445
       -0.0082269604  -0.1137859764   0.1128787853  -0.0825927658   0.4094614150
       -0.0764012210  -0.0330216797  -0.1700989827  -0.0600353081   0.1206789581
        0.0452623590  -0.0222028137  -0.0280945996  -0.0217168557  -0.0020830952
       -0.0210610925   0.0877648429  -0.0941094197   0.0775755269  -0.0764012210
        0.1360182685  -0.0636601550  -0.0349091252  -0.0176229399   0.0352403203
        0.0291203594  -0.0328891125  -0.0066414552  -0.0341748947  -0.0163613486
       -0.0021934099  -0.0556948311   0.0695434364  -0.0516837801  -0.0330216797
       -0.0636601550   0.1323672511   0.0937710461   0.0433671798  -0.0718486058
       -0.0020021841   0.0322948633   0.0056372562  -0.0469190821  -0.0074440458
       -0.0880814196   0.0173696688  -0.0106565454   0.0120521886  -0.1700989827
       -0.0349091252   0.0937710461   0.2016505801   0.0207148530  -0.0233790713
        0.0430950599  -0.2488409347  -0.0101685805   0.0069469605  -0.0057817540
        0.0289345284  -0.0107215653  -0.0395025343   0.0664449710  -0.0600353081
       -0.0176229399   0.0433671798   0.0207148530   0.3117481628  -0.1285780986
        0.0000208938   0.0255747149  -0.0086936396  -0.1093913887   0.0013441583
       -0.2068784187   0.0120706082   0.0664189051  -0.0556630528   0.1206789581
        0.0352403203  -0.0718486058  -0.0233790713  -0.1285780986   0.3430837170
