5
 energy: -10.181106665663 gnorm: 0.408461895650 xtb: 6.2.2 (9d81278992624c895f80dd42a50cac0aa55982e2)
C        -0.28789700000000    0.71153500000000    0.58386400000000
C        -0.64696300000000   -0.48061600000000   -0.52977400000000
C         0.11093900000000    0.61021000000000   -0.68905200000000
C         0.93482400000000   -0.23101900000000   -0.05401100000000
C        -0.11090200000000   -0.61011100000000    0.68897300000000
5
 energy: -10.231610539424 gnorm: 0.156044350797 xtb: 6.2.2 (9d81278992624c895f80dd42a50cac0aa55982e2)
C        -0.30183781584582    0.74601872027945    0.61211858187863
C        -0.67826444198034   -0.50387428903588   -0.55542139360530
C         0.11555071491923    0.63555257255136   -0.71766838127099
C         0.98007485891229   -0.24219078859973   -0.05665150046954
C        -0.11552231600536   -0.63550721519521    0.71762269346721
5
 energy: -10.243518434496 gnorm: 0.049076454588 xtb: 6.2.2 (9d81278992624c895f80dd42a50cac0aa55982e2)
C        -0.31229538185896    0.77188688691723    0.63331952870671
C        -0.70174976901655   -0.52132667338203   -0.57466610368446
C         0.11732961836026    0.64532992160270   -0.72870745899223
C         1.01402535729931   -0.25057468696011   -0.05863017484273
C        -0.11730882478405   -0.64531644817779    0.72868420881271
5
 energy: -10.245672134610 gnorm: 0.026823342607 xtb: 6.2.2 (9d81278992624c895f80dd42a50cac0aa55982e2)
C        -0.31835439294030    0.78687707500374    0.64560564371210
C        -0.71535844099452   -0.53144128997044   -0.58581877097950
C         0.11719686326345    0.64459996859453   -0.72788107283605
C         1.03369897504418   -0.25543345982134   -0.05977685572294
C        -0.11718200437281   -0.64460329380649    0.72787105582638
5
 energy: -10.246544609813 gnorm: 0.025278586237 xtb: 6.2.2 (9d81278992624c895f80dd42a50cac0aa55982e2)
C        -0.32257881481434    0.79733238624202    0.65417566950153
C        -0.72484953084393   -0.53849740150250   -0.59359813244011
C         0.11622236271423    0.63924713121216   -0.72183439835627
C         1.04742109641789   -0.25882247911965   -0.06057623275912
C        -0.11621411347385   -0.63926063683204    0.72183309405397
5
 energy: -10.247221673416 gnorm: 0.019833657712 xtb: 6.2.2 (9d81278992624c895f80dd42a50cac0aa55982e2)
C        -0.32670101921017    0.80753427247321    0.66253950802284
C        -0.73411158334996   -0.54538462909576   -0.60119010531620
C         0.11442621952787    0.62937725222294   -0.71068551393629
C         1.06081201022260   -0.26213091251997   -0.06135598543042
C        -0.11442462719035   -0.62939698308043    0.71069209666007
5
 energy: -10.247466815537 gnorm: 0.008844722552 xtb: 6.2.2 (9d81278992624c895f80dd42a50cac0aa55982e2)
C        -0.32790836258039    0.81052211865342    0.66499152713681
C        -0.73682573059385   -0.54740452982983   -0.60341524298132
C         0.11316935275083    0.62247146860364   -0.70288497411845
C         1.06473603856276   -0.26310184795888   -0.06158360616381
C        -0.11317029813934   -0.62248820946835    0.70289229612678
5
 energy: -10.247510236388 gnorm: 0.001085985775 xtb: 6.2.2 (9d81278992624c895f80dd42a50cac0aa55982e2)
C        -0.32750021648308    0.80950996469551    0.66416536913142
C        -0.73590969012910   -0.54672455891983   -0.60266375076302
C         0.11281093303224    0.62050207877449   -0.70066072305209
C         1.06341076580485   -0.26277622632142   -0.06150477466867
C        -0.11281079222490   -0.62051225822874    0.70066387935235
5
 energy: -10.247511142338 gnorm: 0.000502112631 xtb: 6.2.2 (9d81278992624c895f80dd42a50cac0aa55982e2)
C        -0.32719210375965    0.80874569624052    0.66354135623690
C        -0.73521781250061   -0.54621063387040   -0.60209651051879
C         0.11284931937727    0.62071501107609   -0.70090117873850
C         1.06240997327823   -0.26253022667100   -0.06144544992455
C        -0.11284837639524   -0.62072084677521    0.70090178294494
