      -----------------------------------------------------------      
     |                   =====================                   |     
     |                           x T B                           |     
     |                   =====================                   |     
     |                         S. Grimme                         |     
     |          Mulliken Center for Theoretical Chemistry        |     
     |                    University of Bonn                     |     
      -----------------------------------------------------------      

   * xtb version 6.2.2 (9d81278992624c895f80dd42a50cac0aa55982e2) compiled by '@Darwin' on 04/03/2020

   xtb is free software: you can redistribute it and/or modify it under
   the terms of the GNU Lesser General Public License as published by
   the Free Software Foundation, either version 3 of the License, or
   (at your option) any later version.
   
   xtb is distributed in the hope that it will be useful,
   but WITHOUT ANY WARRANTY; without even the implied warranty of
   MERCHANTABILITY or FITNESS FOR A PARTICULAR PURPOSE.  See the
   GNU Lesser General Public License for more details.
   
   Cite this work as:
   * S. Grimme, C. Bannwarth, P. Shushkov, J. Chem. Theory Comput., 2017,
     13, 1989-2009. DOI: 10.1021/acs.jctc.7b00118
   * C. Bannwarth, S. Ehlert and S. Grimme., J. Chem. Theory Comput., 2019,
     15, 1652-1671. DOI: 10.1021/acs.jctc.8b01176
   * P. Pracht, E. Caldeweyher, S. Ehlert, S. Grimme, ChemRxiv, 2019, preprint.
     DOI: 10.26434/chemrxiv.8326202.v1
   
   for DFT-D4:
   * E. Caldeweyher, C. Bannwarth and S. Grimme, J. Chem. Phys., 2017,
     147, 034112. DOI: 10.1063/1.4993215
   * E. Caldeweyher, S. Ehlert, A. Hansen, H. Neugebauer, S. Spicher,
     C. Bannwarth and S. Grimme, J. Chem. Phys., 2019, 150, 154122.
     DOI: 10.1063/1.5090222
   
   for sTDA-xTB:
   * S. Grimme and C. Bannwarth, J. Chem. Phys., 2016, 145, 054103.
     DOI: 10.1063/1.4959605
   
   in the mass-spec context:
   * V. Asgeirsson, C. Bauer and S. Grimme, Chem. Sci., 2017, 8, 4879.
     DOI: 10.1039/c7sc00601b
   
   for metadynamics refer to:
   * S. Grimme, J. Chem. Theory Comput., 2019, 155, 2847-2862
     DOI: 10.1021/acs.jctc.9b00143
   
   with help from (in alphabetical order)
   C. Bannwarth, F. Bohle, G. Brandenburg, E. Caldeweyher, M. Checinski,
   S. Dohm, S. Ehlert, S. Ehrlich, F. März, H. Neugebauer, J. Pisarek,
   P. Pracht, P. Shushkov, and S. Spicher.
   
 * started run on 2020/05/12 at 11:44:49.797     

           -------------------------------------------------
          |                Calculation Setup                |
           -------------------------------------------------

          program call               : xtb --input H1C3N1_0_S_0.input H1C3N1_0_S_0.xyz --ohess --molden --namespace H1C3N1_0_S_0 output.out
          calculation namespace      : H1C3N1_0_S_0
          coordinate file            : H1C3N1_0_S_0.xyz
          number of atoms            :                     5
          number of electrons        :                    18
          charge                     :                     0
          spin                       :                   0.0
          first test random number   :      0.41810064502426

   ID    Z sym.   atoms
    1    6 C      1-3
    2    7 N      4
    3    1 H      5

           -------------------------------------------------
          |                 G F N 2 - x T B                 |
           -------------------------------------------------

        Reference                      10.1021/acs.jctc.8b01176
      * Hamiltonian:
        H0-scaling (s, p, d)           1.850000    2.230000    2.230000
        zeta-weighting                 0.500000
      * Dispersion:
        s8                             2.700000
        a1                             0.520000
        a2                             5.000000
        s9                             5.000000
      * Repulsion:
        kExp                           1.500000    1.000000
        rExp                           1.000000
      * Coulomb:
        alpha                          2.000000
        third order                    shell-resolved
        anisotropic                    true
        a3                             3.000000
        a5                             4.000000
        cn-shift                       1.200000
        cn-exp                         4.000000
        max-rad                        5.000000


          ...................................................
          :                      SETUP                      :
          :.................................................:
          :  # basis functions                  17          :
          :  # atomic orbitals                  17          :
          :  # shells                            9          :
          :  # electrons                        18          :
          :  max. iterations                   250          :
          :  Hamiltonian                  GFN2-xTB          :
          :  restarted?                      false          :
          :  GBSA solvation                  false          :
          :  PC potential                    false          :
          :  electronic temp.          300.0000000     K    :
          :  accuracy                    1.0000000          :
          :  -> integral cutoff          0.2500000E+02      :
          :  -> integral neglect         0.1000000E-07      :
          :  -> SCF convergence          0.1000000E-05 Eh   :
          :  -> wf. convergence          0.1000000E-03 e    :
          :  Broyden damping             0.4000000          :
          ...................................................

 iter      E             dE          RMSdq      gap      omega  full diag
   1     -9.0541048 -0.905410E+01  0.111E+01    0.65       0.0  T
   2     -7.4886544  0.156545E+01  0.166E+01    0.90       1.0  T
   3     -9.1371728 -0.164852E+01  0.940E+00    0.44       1.0  T
   4     -9.2454343 -0.108261E+00  0.611E+00    0.65       1.0  T
   5     -8.6866256  0.558809E+00  0.881E+00    0.06       1.0  T
   6     -9.3262397 -0.639614E+00  0.431E+00    0.62       1.0  T
   7     -9.4052972 -0.790574E-01  0.146E+00    0.51       1.0  T
   8     -9.3924736  0.128235E-01  0.230E+00    0.50       1.0  T
   9     -9.4074783 -0.150047E-01  0.765E-01    0.43       1.0  T
  10     -9.4097621 -0.228380E-02  0.460E-01    0.43       1.0  T
  11     -9.4092584  0.503765E-03  0.574E-01    0.44       1.0  T
  12     -9.4105371 -0.127873E-02  0.163E-01    0.44       1.0  T
  13     -9.4106358 -0.986606E-04  0.415E-02    0.43       1.1  T
  14     -9.4106440 -0.826046E-05  0.115E-02    0.43       3.9  T
  15     -9.4106446 -0.539396E-06  0.630E-03    0.43       7.1  T
  16     -9.4106447 -0.160876E-06  0.258E-03    0.43      17.4  T
  17     -9.4106447 -0.265974E-07  0.539E-04    0.43      82.9  T
  18     -9.4106448 -0.152025E-08  0.246E-04    0.43     181.9  T

   *** convergence criteria satisfied after 18 iterations ***

         #    Occupation            Energy/Eh            Energy/eV
      -------------------------------------------------------------
         1        2.0000           -0.6975258             -18.9806
       ...           ...                  ...                  ...
         3        2.0000           -0.6342182             -17.2580
         4        2.0000           -0.5698059             -15.5052
         5        2.0000           -0.5150305             -14.0147
         6        2.0000           -0.5074325             -13.8079
         7        2.0000           -0.4949897             -13.4694
         8        2.0000           -0.4555975             -12.3974
         9        1.9995           -0.4225952             -11.4994 (HOMO)
        10        0.0005           -0.4066669             -11.0660 (LUMO)
        11                         -0.3979755             -10.8295
        12                         -0.3864073             -10.5147
        13                         -0.3297290              -8.9724
        14                          0.0511248               1.3912
       ...                                ...                  ...
        17                          0.1241567               3.3785
      -------------------------------------------------------------
                  HL-Gap            0.0159283 Eh            0.4334 eV
             Fermi-level           -0.4146311 Eh          -11.2827 eV

 SCC (total)                   0 d,  0 h,  0 min,  0.004 sec
 SCC setup                      ...        0 min,  0.000 sec (  2.082%)
 Dispersion                     ...        0 min,  0.000 sec (  0.441%)
 integral evaluation            ...        0 min,  0.001 sec ( 25.152%)
 zeroth order Hamiltonian       ...        0 min,  0.000 sec (  0.487%)
 iterations                     ...        0 min,  0.002 sec ( 44.418%)
 molecular gradient             ...        0 min,  0.001 sec ( 25.181%)
 printout                       ...        0 min,  0.000 sec (  2.024%)

         :::::::::::::::::::::::::::::::::::::::::::::::::::::
         ::                     SUMMARY                     ::
         :::::::::::::::::::::::::::::::::::::::::::::::::::::
         :: total energy              -9.356053598298 Eh    ::
         :: gradient norm              0.241576490026 Eh/a0 ::
         :: HOMO-LUMO gap              0.433431740970 eV    ::
         ::.................................................::
         :: SCC energy                -9.410644750675 Eh    ::
         :: -> isotropic ES           -0.012889795169 Eh    ::
         :: -> anisotropic ES         -0.001821159942 Eh    ::
         :: -> anisotropic XC          0.013752914728 Eh    ::
         :: -> dispersion             -0.002198506216 Eh    ::
         :: repulsion energy           0.054591011657 Eh    ::
         :: add. restraining           0.000000000000 Eh    ::
         :::::::::::::::::::::::::::::::::::::::::::::::::::::

      ----------------------------------------------------------- 
     |                   =====================                   |
     |                        A N C O P T                        |
     |                   =====================                   |
     |               Approximate Normal Coordinate               |
     |                Rational Function Optimizer                |
      ----------------------------------------------------------- 

          ...................................................
          :                      SETUP                      :
          :.................................................:
          :   optimization level            normal          :
          :   max. optcycles                   200          :
          :   ANC micro-cycles                  20          :
          :   degrees of freedom                 9          :
          :.................................................:
          :   RF solver                   davidson          :
          :   write xtbopt.log                true          :
          :   linear?                        false          :
          :   energy convergence         0.5000000E-05 Eh   :
          :   grad. convergence          0.1000000E-02 Eh/α :
          :   maximium RF displ.         1.0000000          :
          :   Hlow (freq-cutoff)         0.1000000E-01      :
          :   Hmax (freq-cutoff)         5.0000000          :
          :   S6 in model hess.         20.0000000          :
          ...................................................

generating ANC from model Hessian ...
Using Lindh-Hessian (1995)
 Shifting diagonal of input Hessian by    0.0000000000000000     
 Lowest  eigenvalues of input Hessian
   -0.000000   -0.000000    0.000000    0.000000    0.000000    0.000000
    0.010428    0.027786    0.081990    0.088377    0.124055    0.559010
    0.802316    1.032404    1.129130
 Highest eigenvalues
    0.088377    0.124055    0.559010    0.802316    1.032404    1.129130


........................................................................
.............................. CYCLE    1 ..............................
........................................................................
   1     -9.4106448 -0.941064E+01  0.287E-05    0.43       0.0  T
   2     -9.4106448  0.201196E-09  0.176E-04    0.43     254.0  T
   3     -9.4106448 -0.186137E-09  0.578E-05    0.43     774.2  T
     SCC iter.                  ...        0 min,  0.000 sec
     gradient                   ...        0 min,  0.001 sec
 * total energy  :    -9.3560536 Eh     change        0.2381189E-09 Eh
   gradient norm :     0.2415778 Eh/α   predicted     0.0000000E+00 (-100.00%)
   displ. norm   :     0.3818815 α      lambda       -0.8512513E-01
   maximum displ.:     0.3104321 α      in ANC's #6, #5, #7, ...

........................................................................
.............................. CYCLE    2 ..............................
........................................................................
   1     -9.5143164 -0.951432E+01  0.201E+00    0.96       0.0  T
   2     -9.4230430  0.912733E-01  0.386E+00    1.05       1.0  T
   3     -9.5213503 -0.983073E-01  0.119E+00    0.99       1.0  T
   4     -9.5207201  0.630238E-03  0.901E-01    0.98       1.0  T
   5     -9.5058458  0.148743E-01  0.168E+00    1.06       1.0  T
   6     -9.5256333 -0.197874E-01  0.147E-01    1.01       1.0  T
   7     -9.5257019 -0.686381E-04  0.512E-02    1.01       1.0  T
   8     -9.5257119 -0.100069E-04  0.188E-02    1.01       2.4  T
   9     -9.5257131 -0.118793E-05  0.435E-03    1.01      10.3  T
  10     -9.5257131 -0.559890E-07  0.188E-03    1.01      23.8  T
  11     -9.5257132 -0.124176E-07  0.216E-04    1.01     207.4  T
  12     -9.5257132  0.752234E-10  0.142E-04    1.01     315.0  T
     SCC iter.                  ...        0 min,  0.001 sec
     gradient                   ...        0 min,  0.001 sec
 * total energy  :    -9.4225210 Eh     change       -0.6646736E-01 Eh
   gradient norm :     0.1147637 Eh/α   predicted    -0.4876962E-01 ( -26.63%)
   displ. norm   :     0.4842886 α      lambda       -0.4334041E-01
   maximum displ.:     0.3184815 α      in ANC's #5, #6, #2, ...

........................................................................
.............................. CYCLE    3 ..............................
........................................................................
   1     -9.6032419 -0.960324E+01  0.269E+00    1.53       0.0  T
   2     -9.5752875  0.279543E-01  0.292E+00    1.35       1.0  T
   3     -9.6053335 -0.300460E-01  0.165E+00    1.52       1.0  T
   4     -9.6128124 -0.747889E-02  0.432E-01    1.47       1.0  T
   5     -9.6133497 -0.537231E-03  0.117E-01    1.45       1.0  T
   6     -9.6130101  0.339511E-03  0.212E-01    1.48       1.0  T
   7     -9.6133576 -0.347451E-03  0.290E-02    1.45       1.5  T
   8     -9.6133621 -0.449947E-05  0.734E-03    1.45       6.1  T
   9     -9.6133622 -0.692211E-07  0.228E-03    1.45      19.6  T
  10     -9.6133622 -0.117636E-07  0.264E-04    1.45     169.1  T
  11     -9.6133622  0.105258E-09  0.190E-04    1.45     235.6  T
     SCC iter.                  ...        0 min,  0.001 sec
     gradient                   ...        0 min,  0.001 sec
 * total energy  :    -9.4430440 Eh     change       -0.2052301E-01 Eh
   gradient norm :     0.1086542 Eh/α   predicted    -0.2675264E-01 (  30.35%)
   displ. norm   :     0.5523821 α      lambda       -0.2757737E-01
   maximum displ.:     0.4005205 α      in ANC's #2, #5, #4, ...

........................................................................
.............................. CYCLE    4 ..............................
........................................................................
   1     -9.5856170 -0.958562E+01  0.298E+00    0.73       0.0  T
   2     -9.5747312  0.108857E-01  0.235E+00    0.49       1.0  T
   3     -9.5661820  0.854922E-02  0.255E+00    0.87       1.0  T
   4     -9.5654357  0.746260E-03  0.167E+00    0.85       1.0  T
   5     -9.5884199 -0.229842E-01  0.295E-01    0.67       1.0  T
   6     -9.5886011 -0.181194E-03  0.170E-01    0.65       1.0  T
   7     -9.5886338 -0.327519E-04  0.610E-02    0.64       1.0  T
   8     -9.5886447 -0.108590E-04  0.199E-02    0.63       2.2  T
   9     -9.5886457 -0.997469E-06  0.267E-03    0.63      16.8  T
  10     -9.5886457  0.119779E-07  0.253E-03    0.63      17.7  T
  11     -9.5886457 -0.178487E-07  0.268E-04    0.63     167.0  T
  12     -9.5886457 -0.168191E-09  0.408E-05    0.63    1097.2  T
     SCC iter.                  ...        0 min,  0.001 sec
     gradient                   ...        0 min,  0.001 sec
 * total energy  :    -9.4601491 Eh     change       -0.1710516E-01 Eh
   gradient norm :     0.0600332 Eh/α   predicted    -0.1799597E-01 (   5.21%)
   displ. norm   :     0.6424799 α      lambda       -0.1331239E-01
   maximum displ.:     0.5707628 α      in ANC's #1, #5, #2, ...

........................................................................
.............................. CYCLE    5 ..............................
........................................................................
   1     -9.5344590 -0.953446E+01  0.365E+00    0.57       0.0  T
   2     -9.4672308  0.672281E-01  0.473E+00    0.40       1.0  T
   3     -9.5354968 -0.682659E-01  0.237E+00    0.30       1.0  T
   4     -9.5270561  0.844073E-02  0.222E+00    0.55       1.0  T
   5     -9.5581600 -0.311039E-01  0.568E-01    0.23       1.0  T
   6     -9.5583607 -0.200744E-03  0.507E-01    0.28       1.0  T
   7     -9.5583211  0.396083E-04  0.383E-01    0.25       1.0  T
   8     -9.5585965 -0.275353E-03  0.250E-01    0.24       1.0  T
   9     -9.5587582 -0.161755E-03  0.485E-02    0.25       1.0  T
  10     -9.5587629 -0.466686E-05  0.111E-02    0.25       4.0  T
  11     -9.5587632 -0.331113E-06  0.432E-03    0.25      10.3  T
  12     -9.5587633 -0.750970E-07  0.634E-04    0.25      70.5  T
  13     -9.5587633 -0.605215E-09  0.613E-04    0.25      72.9  T
     SCC iter.                  ...        0 min,  0.001 sec
     gradient                   ...        0 min,  0.001 sec
 * total energy  :    -9.4589880 Eh     change        0.1161162E-02 Eh
   gradient norm :     0.1089854 Eh/α   predicted    -0.9403747E-02 (-909.86%)
   displ. norm   :     0.3259640 α      lambda       -0.1960925E-01
   maximum displ.:     0.1843035 α      in ANC's #5, #1, #2, ...

........................................................................
.............................. CYCLE    6 ..............................
........................................................................
   1     -9.5108235 -0.951082E+01  0.579E+00    0.96       0.0  T
   2     -9.3367398  0.174084E+00  0.654E+00    1.53       1.0  T
   3     -9.5626356 -0.225896E+00  0.285E+00    0.86       1.0  T
   4     -9.5574117  0.522392E-02  0.248E+00    0.81       1.0  T
   5     -9.5919713 -0.345596E-01  0.727E-01    0.72       1.0  T
   6     -9.5944482 -0.247690E-02  0.331E-01    0.83       1.0  T
   7     -9.5945894 -0.141250E-03  0.831E-02    0.79       1.0  T
   8     -9.5945964 -0.693754E-05  0.218E-02    0.79       2.0  T
   9     -9.5945968 -0.451176E-06  0.405E-03    0.79      11.0  T
  10     -9.5945969 -0.459402E-07  0.143E-03    0.79      31.2  T
  11     -9.5945969 -0.299290E-08  0.269E-04    0.79     166.0  T
  12     -9.5945969 -0.133900E-09  0.996E-05    0.79     449.2  T
     SCC iter.                  ...        0 min,  0.001 sec
     gradient                   ...        0 min,  0.001 sec
 * total energy  :    -9.4861091 Eh     change       -0.2712114E-01 Eh
   gradient norm :     0.1294537 Eh/α   predicted    -0.1084639E-01 ( -60.01%)
   displ. norm   :     0.7465568 α      lambda       -0.6530114E-01
   maximum displ.:     0.6645762 α      in ANC's #5, #2, #6, ...

........................................................................
.............................. CYCLE    7 ..............................
........................................................................
   1     -9.5380855 -0.953809E+01  0.765E+00    2.43       0.0  T
   2     -9.6017135 -0.636280E-01  0.486E+00    1.78       1.0  T
   3     -9.6496323 -0.479188E-01  0.289E+00    2.19       1.0  T
   4     -9.6599238 -0.102915E-01  0.361E-01    2.09       1.0  T
   5     -9.6599101  0.136857E-04  0.260E-01    2.14       1.0  T
   6     -9.6600360 -0.125934E-03  0.211E-01    2.08       1.0  T
   7     -9.6602457 -0.209692E-03  0.316E-02    2.11       1.4  T
   8     -9.6602464 -0.648639E-06  0.156E-02    2.11       2.9  T
   9     -9.6602468 -0.415223E-06  0.473E-03    2.11       9.5  T
  10     -9.6602468 -0.330649E-07  0.892E-04    2.11      50.1  T
  11     -9.6602468 -0.882554E-09  0.358E-04    2.11     125.0  T
     SCC iter.                  ...        0 min,  0.001 sec
     gradient                   ...        0 min,  0.001 sec
 * total energy  :    -9.4063097 Eh     change        0.7979939E-01 Eh
   gradient norm :     0.8857528 Eh/α   predicted    -0.5084826E-01 (-163.72%)
   displ. norm   :     0.4088947 α      lambda       -0.3363849E+00
   maximum displ.:     0.2542895 α      in ANC's #3, #5, #2, ...

........................................................................
.............................. CYCLE    8 ..............................
........................................................................
   1     -9.5075000 -0.950750E+01  0.601E+00    1.79       0.0  T
   2     -9.3368489  0.170651E+00  0.678E+00    2.22       1.0  T
   3     -9.6200463 -0.283197E+00  0.194E+00    2.09       1.0  T
   4     -9.6052907  0.147557E-01  0.213E+00    1.65       1.0  T
   5     -9.6348276 -0.295369E-01  0.330E-01    1.94       1.0  T
   6     -9.6348334 -0.582190E-05  0.165E-01    1.99       1.0  T
   7     -9.6348686 -0.352089E-04  0.814E-02    1.97       1.0  T
   8     -9.6348920 -0.233792E-04  0.151E-02    1.96       3.0  T
   9     -9.6348925 -0.521480E-06  0.569E-03    1.96       7.9  T
  10     -9.6348926 -0.626377E-07  0.128E-03    1.96      35.0  T
  11     -9.6348926 -0.263478E-09  0.775E-04    1.96      57.7  T
  12     -9.6348926 -0.817332E-09  0.976E-05    1.96     458.3  T
     SCC iter.                  ...        0 min,  0.001 sec
     gradient                   ...        0 min,  0.001 sec
 * total energy  :    -9.5379975 Eh     change       -0.1316878E+00 Eh
   gradient norm :     0.1261199 Eh/α   predicted    -0.1963133E+00 (  49.07%)
   displ. norm   :     0.6655987 α      lambda       -0.5808285E-01
   maximum displ.:     0.3565834 α      in ANC's #4, #5, #3, ...

........................................................................
.............................. CYCLE    9 ..............................
........................................................................
   1     -9.6731107 -0.967311E+01  0.410E+00    3.03       0.0  T
   2     -9.6794666 -0.635589E-02  0.239E+00    2.53       1.0  T
   3     -9.6765174  0.294920E-02  0.164E+00    2.92       1.0  T
   4     -9.6809831 -0.446561E-02  0.862E-01    2.72       1.0  T
   5     -9.6846963 -0.371330E-02  0.177E-01    2.69       1.0  T
   6     -9.6846395  0.568604E-04  0.165E-01    2.74       1.0  T
   7     -9.6847579 -0.118393E-03  0.257E-02    2.71       1.7  T
   8     -9.6847602 -0.234407E-05  0.113E-02    2.71       4.0  T
   9     -9.6847603 -0.118029E-06  0.116E-03    2.71      38.5  T
  10     -9.6847603 -0.917078E-09  0.308E-04    2.71     145.4  T
  11     -9.6847603 -0.614335E-10  0.107E-04    2.71     417.1  T
     SCC iter.                  ...        0 min,  0.001 sec
     gradient                   ...        0 min,  0.001 sec
 * total energy  :    -9.5604106 Eh     change       -0.2241308E-01 Eh
   gradient norm :     0.1570175 Eh/α   predicted    -0.4190740E-01 (  86.98%)
   displ. norm   :     0.4443980 α      lambda       -0.4851882E-01
   maximum displ.:     0.2866173 α      in ANC's #2, #3, #1, ...

........................................................................
.............................. CYCLE   10 ..............................
........................................................................
   1     -9.6824328 -0.968243E+01  0.305E+00    2.69       0.0  T
   2     -9.6843745 -0.194173E-02  0.186E+00    2.88       1.0  T
   3     -9.6798205  0.455406E-02  0.132E+00    2.73       1.0  T
   4     -9.6845923 -0.477183E-02  0.721E-01    2.85       1.0  T
   5     -9.6873118 -0.271950E-02  0.173E-01    2.81       1.0  T
   6     -9.6874140 -0.102215E-03  0.831E-02    2.82       1.0  T
   7     -9.6874278 -0.138224E-04  0.186E-02    2.82       2.4  T
   8     -9.6874281 -0.262545E-06  0.927E-03    2.82       4.8  T
   9     -9.6874283 -0.193782E-06  0.882E-04    2.82      50.7  T
  10     -9.6874283 -0.729269E-09  0.197E-04    2.82     227.5  T
     SCC iter.                  ...        0 min,  0.001 sec
     gradient                   ...        0 min,  0.001 sec
 * total energy  :    -9.5573931 Eh     change        0.3017486E-02 Eh
   gradient norm :     0.1448387 Eh/α   predicted    -0.2905040E-01 (*******%)
   displ. norm   :     0.4701819 α      lambda       -0.4077072E-01
   maximum displ.:     0.3799970 α      in ANC's #2, #1, #5, ...

........................................................................
.............................. CYCLE   11 ..............................
........................................................................
   1     -9.7049361 -0.970494E+01  0.162E+00    3.29       0.0  T
   2     -9.7047475  0.188600E-03  0.104E+00    3.21       1.0  T
   3     -9.7001461  0.460135E-02  0.906E-01    3.36       1.0  T
   4     -9.7055129 -0.536678E-02  0.972E-02    3.25       1.0  T
   5     -9.7055152 -0.235372E-05  0.541E-02    3.26       1.0  T
   6     -9.7055176 -0.234294E-05  0.390E-02    3.25       1.1  T
   7     -9.7055255 -0.789934E-05  0.600E-03    3.26       7.5  T
   8     -9.7055255 -0.131345E-07  0.230E-03    3.26      19.4  T
   9     -9.7055255 -0.959087E-09  0.489E-04    3.26      91.4  T
  10     -9.7055255 -0.277616E-09  0.902E-05    3.26     496.0  T
     SCC iter.                  ...        0 min,  0.001 sec
     gradient                   ...        0 min,  0.001 sec
 * total energy  :    -9.5632783 Eh     change       -0.5885189E-02 Eh
   gradient norm :     0.1588749 Eh/α   predicted    -0.2489197E-01 ( 322.96%)
   displ. norm   :     0.4433592 α      lambda       -0.4874535E-01
   maximum displ.:     0.2891263 α      in ANC's #3, #5, #2, ...

........................................................................
.............................. CYCLE   12 ..............................
........................................................................
   1     -9.6768652 -0.967687E+01  0.262E+00    2.63       0.0  T
   2     -9.6765465  0.318670E-03  0.157E+00    2.64       1.0  T
   3     -9.6684435  0.810305E-02  0.142E+00    2.58       1.0  T
   4     -9.6789736 -0.105301E-01  0.319E-01    2.60       1.0  T
   5     -9.6794167 -0.443153E-03  0.906E-02    2.60       1.0  T
   6     -9.6793964  0.203612E-04  0.674E-02    2.60       1.0  T
   7     -9.6794255 -0.291239E-04  0.143E-02    2.61       3.1  T
   8     -9.6794259 -0.421956E-06  0.697E-03    2.61       6.4  T
   9     -9.6794260 -0.475515E-07  0.156E-03    2.61      28.7  T
  10     -9.6794260 -0.246131E-08  0.248E-04    2.61     180.3  T
  11     -9.6794260 -0.511307E-10  0.426E-05    2.61    1048.8  T
     SCC iter.                  ...        0 min,  0.001 sec
     gradient                   ...        0 min,  0.001 sec
 * total energy  :    -9.5677251 Eh     change       -0.4446826E-02 Eh
   gradient norm :     0.1141872 Eh/α   predicted    -0.2916353E-01 ( 555.83%)
   displ. norm   :     0.2167397 α      lambda       -0.1985246E-01
   maximum displ.:     0.1268377 α      in ANC's #3, #5, #4, ...

........................................................................
.............................. CYCLE   13 ..............................
........................................................................
   1     -9.7013236 -0.970132E+01  0.138E+00    3.24       0.0  T
   2     -9.7015095 -0.185848E-03  0.817E-01    3.22       1.0  T
   3     -9.7002006  0.130891E-02  0.573E-01    3.28       1.0  T
   4     -9.7017393 -0.153874E-02  0.167E-01    3.22       1.0  T
   5     -9.7018824 -0.143039E-03  0.505E-02    3.23       1.0  T
   6     -9.7018796  0.279819E-05  0.360E-02    3.24       1.2  T
   7     -9.7018865 -0.697674E-05  0.924E-03    3.23       4.8  T
   8     -9.7018867 -0.123259E-06  0.243E-03    3.23      18.4  T
   9     -9.7018867 -0.895457E-08  0.646E-04    3.23      69.2  T
  10     -9.7018867 -0.319533E-09  0.920E-05    3.23     485.9  T
     SCC iter.                  ...        0 min,  0.001 sec
     gradient                   ...        0 min,  0.001 sec
 * total energy  :    -9.5790969 Eh     change       -0.1137183E-01 Eh
   gradient norm :     0.0386606 Eh/α   predicted    -0.1039252E-01 (  -8.61%)
   displ. norm   :     0.1211606 α      lambda       -0.2913061E-02
   maximum displ.:     0.0908365 α      in ANC's #1, #5, #7, ...

........................................................................
.............................. CYCLE   14 ..............................
........................................................................
   1     -9.7128170 -0.971282E+01  0.312E-01    3.26       0.0  T
   2     -9.7126955  0.121510E-03  0.262E-01    3.28       1.0  T
   3     -9.7129436 -0.248098E-03  0.148E-01    3.26       1.0  T
   4     -9.7129857 -0.420764E-04  0.286E-02    3.26       1.6  T
   5     -9.7129874 -0.170170E-05  0.156E-02    3.27       2.9  T
   6     -9.7129877 -0.372464E-06  0.813E-03    3.26       5.5  T
   7     -9.7129880 -0.270759E-06  0.195E-03    3.27      23.0  T
   8     -9.7129880 -0.344152E-08  0.430E-04    3.27     103.9  T
   9     -9.7129880 -0.222142E-09  0.898E-05    3.27     498.0  T
     SCC iter.                  ...        0 min,  0.001 sec
     gradient                   ...        0 min,  0.001 sec
 * total energy  :    -9.5808403 Eh     change       -0.1743337E-02 Eh
   gradient norm :     0.0311187 Eh/α   predicted    -0.1477910E-02 ( -15.23%)
   displ. norm   :     0.0930337 α      lambda       -0.1856667E-02
   maximum displ.:     0.0677254 α      in ANC's #7, #1, #4, ...

........................................................................
.............................. CYCLE   15 ..............................
........................................................................
   1     -9.7115783 -0.971158E+01  0.337E-01    3.29       0.0  T
   2     -9.7115720  0.632575E-05  0.193E-01    3.28       1.0  T
   3     -9.7114371  0.134947E-03  0.186E-01    3.29       1.0  T
   4     -9.7116114 -0.174324E-03  0.235E-02    3.28       1.9  T
   5     -9.7116119 -0.556371E-06  0.181E-02    3.28       2.5  T
   6     -9.7116131 -0.118842E-05  0.280E-03    3.28      16.0  T
   7     -9.7116132 -0.145718E-07  0.111E-03    3.28      40.1  T
   8     -9.7116132 -0.636883E-09  0.217E-04    3.28     206.6  T
   9     -9.7116132 -0.213163E-13  0.810E-05    3.28     552.4  T
     SCC iter.                  ...        0 min,  0.001 sec
     gradient                   ...        0 min,  0.001 sec
 * total energy  :    -9.5821744 Eh     change       -0.1334122E-02 Eh
   gradient norm :     0.0202221 Eh/α   predicted    -0.9363699E-03 ( -29.81%)
   displ. norm   :     0.1337825 α      lambda       -0.1975815E-02
   maximum displ.:     0.1044866 α      in ANC's #7, #3, #6, ...

........................................................................
.............................. CYCLE   16 ..............................
........................................................................
   1     -9.7119166 -0.971192E+01  0.699E-01    3.18       0.0  T
   2     -9.7119694 -0.528372E-04  0.397E-01    3.17       1.0  T
   3     -9.7116322  0.337195E-03  0.295E-01    3.17       1.0  T
   4     -9.7120152 -0.382933E-03  0.871E-02    3.17       1.0  T
   5     -9.7120534 -0.382852E-04  0.268E-02    3.17       1.7  T
   6     -9.7120523  0.113657E-05  0.178E-02    3.17       2.5  T
   7     -9.7120544 -0.212415E-05  0.275E-03    3.17      16.3  T
   8     -9.7120544 -0.634321E-08  0.650E-04    3.17      68.8  T
   9     -9.7120544 -0.897629E-10  0.229E-04    3.17     195.7  T
     SCC iter.                  ...        0 min,  0.001 sec
     gradient                   ...        0 min,  0.001 sec
 * total energy  :    -9.5833341 Eh     change       -0.1159708E-02 Eh
   gradient norm :     0.0188461 Eh/α   predicted    -0.1005589E-02 ( -13.29%)
   displ. norm   :     0.0650454 α      lambda       -0.5997581E-03
   maximum displ.:     0.0455562 α      in ANC's #7, #4, #8, ...

........................................................................
.............................. CYCLE   17 ..............................
........................................................................
   1     -9.7114429 -0.971144E+01  0.265E-01    3.24       0.0  T
   2     -9.7114452 -0.221927E-05  0.152E-01    3.24       1.0  T
   3     -9.7114101  0.350923E-04  0.786E-02    3.24       1.0  T
   4     -9.7114490 -0.388970E-04  0.148E-02    3.24       3.0  T
   5     -9.7114488  0.115320E-06  0.111E-02    3.24       4.0  T
   6     -9.7114493 -0.437260E-06  0.316E-03    3.24      14.2  T
   7     -9.7114493 -0.554750E-07  0.903E-04    3.24      49.5  T
   8     -9.7114493 -0.764457E-09  0.146E-04    3.24     305.6  T
     SCC iter.                  ...        0 min,  0.001 sec
     gradient                   ...        0 min,  0.001 sec
 * total energy  :    -9.5837018 Eh     change       -0.3676685E-03 Eh
   gradient norm :     0.0156024 Eh/α   predicted    -0.3011472E-03 ( -18.09%)
   displ. norm   :     0.0675729 α      lambda       -0.6767386E-03
   maximum displ.:     0.0443930 α      in ANC's #7, #9, #8, ...

........................................................................
.............................. CYCLE   18 ..............................
........................................................................
   1     -9.7103232 -0.971032E+01  0.300E-01    3.22       0.0  T
   2     -9.7103346 -0.114228E-04  0.168E-01    3.23       1.0  T
   3     -9.7102965  0.381699E-04  0.143E-01    3.22       1.0  T
   4     -9.7103841 -0.876814E-04  0.316E-02    3.23       1.4  T
   5     -9.7103873 -0.319761E-05  0.978E-03    3.23       4.6  T
   6     -9.7103869  0.451211E-06  0.104E-02    3.23       4.3  T
   7     -9.7103874 -0.544951E-06  0.968E-04    3.23      46.2  T
   8     -9.7103874 -0.787789E-09  0.309E-04    3.23     144.7  T
     SCC iter.                  ...        0 min,  0.001 sec
     gradient                   ...        0 min,  0.001 sec
 * total energy  :    -9.5841914 Eh     change       -0.4896293E-03 Eh
   gradient norm :     0.0146819 Eh/α   predicted    -0.3399156E-03 ( -30.58%)
   displ. norm   :     0.0723124 α      lambda       -0.6142802E-03
   maximum displ.:     0.0475689 α      in ANC's #9, #7, #3, ...

........................................................................
.............................. CYCLE   19 ..............................
........................................................................
   1     -9.7103404 -0.971034E+01  0.363E-01    3.21       0.0  T
   2     -9.7103338  0.657182E-05  0.204E-01    3.23       1.0  T
   3     -9.7102777  0.561284E-04  0.184E-01    3.21       1.0  T
   4     -9.7104353 -0.157606E-03  0.230E-02    3.22       1.9  T
   5     -9.7104362 -0.872051E-06  0.103E-02    3.22       4.4  T
   6     -9.7104361  0.518091E-07  0.336E-03    3.22      13.3  T
   7     -9.7104362 -0.672907E-07  0.902E-04    3.22      49.6  T
   8     -9.7104362 -0.131188E-08  0.254E-04    3.22     176.2  T
     SCC iter.                  ...        0 min,  0.001 sec
     gradient                   ...        0 min,  0.001 sec
 * total energy  :    -9.5845893 Eh     change       -0.3978847E-03 Eh
   gradient norm :     0.0109322 Eh/α   predicted    -0.3087455E-03 ( -22.40%)
   displ. norm   :     0.0367231 α      lambda       -0.2377422E-03
   maximum displ.:     0.0196100 α      in ANC's #9, #6, #7, ...

........................................................................
.............................. CYCLE   20 ..............................
........................................................................
   1     -9.7114109 -0.971141E+01  0.203E-01    3.20       0.0  T
   2     -9.7114098  0.113720E-05  0.114E-01    3.20       1.0  T
   3     -9.7113677  0.420868E-04  0.102E-01    3.20       1.0  T
   4     -9.7114266 -0.589251E-04  0.112E-02    3.20       4.0  T
   5     -9.7114267 -0.285152E-07  0.706E-03    3.20       6.3  T
   6     -9.7114267 -0.472218E-07  0.454E-03    3.20       9.9  T
   7     -9.7114268 -0.106250E-06  0.510E-04    3.20      87.6  T
   8     -9.7114268 -0.514255E-10  0.125E-04    3.20     358.8  T
     SCC iter.                  ...        0 min,  0.001 sec
     gradient                   ...        0 min,  0.001 sec
 * total energy  :    -9.5847545 Eh     change       -0.1652022E-03 Eh
   gradient norm :     0.0070766 Eh/α   predicted    -0.1190314E-03 ( -27.95%)
   displ. norm   :     0.0280681 α      lambda       -0.1346906E-03
   maximum displ.:     0.0155374 α      in ANC's #6, #7, #8, ...
 * RMSD in coord.:     1.1457022 α      energy gain  -0.2287009E+00 Eh

generating ANC from model Hessian ...
Using Lindh-Hessian (1995)
 Shifting diagonal of input Hessian by    0.0000000000000000     
 Lowest  eigenvalues of input Hessian
   -0.000000   -0.000000   -0.000000   -0.000000    0.000000    0.000000
    0.113326    0.263501    0.265100    0.420453    0.774012    1.060944
    1.436988    1.585734    1.924368
 Highest eigenvalues
    0.420453    0.774012    1.060944    1.436988    1.585734    1.924368


........................................................................
.............................. CYCLE   21 ..............................
........................................................................
   1     -9.7126216 -0.971262E+01  0.140E-01    3.18       0.0  T
   2     -9.7126229 -0.123898E-05  0.778E-02    3.18       1.0  T
   3     -9.7126156  0.727641E-05  0.388E-02    3.18       1.2  T
   4     -9.7126239 -0.831571E-05  0.836E-03    3.18       5.3  T
   5     -9.7126241 -0.223169E-06  0.437E-03    3.18      10.2  T
   6     -9.7126241  0.255771E-07  0.257E-03    3.18      17.4  T
   7     -9.7126241 -0.466621E-07  0.476E-04    3.18      94.0  T
   8     -9.7126241 -0.235959E-09  0.948E-05    3.18     471.6  T
     SCC iter.                  ...        0 min,  0.001 sec
     gradient                   ...        0 min,  0.001 sec
 * total energy  :    -9.5848393 Eh     change       -0.8478559E-04 Eh
   gradient norm :     0.0039326 Eh/α   predicted     0.0000000E+00 (-100.00%)
   displ. norm   :     0.0082692 α      lambda       -0.2607855E-04
   maximum displ.:     0.0072734 α      in ANC's #3, #5, #7, ...

........................................................................
.............................. CYCLE   22 ..............................
........................................................................
   1     -9.7130219 -0.971302E+01  0.450E-02    3.17       0.0  T
   2     -9.7130212  0.723316E-06  0.292E-02    3.17       1.5  T
   3     -9.7130199  0.128225E-05  0.256E-02    3.17       1.7  T
   4     -9.7130232 -0.325668E-05  0.326E-03    3.17      13.7  T
   5     -9.7130232 -0.267754E-07  0.122E-03    3.17      36.8  T
   6     -9.7130232  0.217700E-09  0.974E-04    3.17      45.9  T
   7     -9.7130232 -0.360086E-08  0.942E-05    3.17     474.5  T
     SCC iter.                  ...        0 min,  0.001 sec
     gradient                   ...        0 min,  0.001 sec
 * total energy  :    -9.5848571 Eh     change       -0.1782428E-04 Eh
   gradient norm :     0.0016669 Eh/α   predicted    -0.1304022E-04 ( -26.84%)
   displ. norm   :     0.0093036 α      lambda       -0.7639328E-05
   maximum displ.:     0.0063353 α      in ANC's #3, #1, #5, ...

........................................................................
.............................. CYCLE   23 ..............................
........................................................................
   1     -9.7130485 -0.971305E+01  0.451E-02    3.17       0.0  T
   2     -9.7130476  0.936098E-06  0.305E-02    3.16       1.5  T
   3     -9.7130470  0.566247E-06  0.252E-02    3.17       1.8  T
   4     -9.7130499 -0.294195E-05  0.332E-03    3.16      13.5  T
   5     -9.7130500 -0.279579E-07  0.151E-03    3.16      29.5  T
   6     -9.7130500 -0.123127E-08  0.112E-03    3.16      39.9  T
   7     -9.7130500 -0.441697E-08  0.143E-04    3.16     312.5  T
   8     -9.7130500 -0.137312E-10  0.327E-05    3.16    1366.2  T
     SCC iter.                  ...        0 min,  0.001 sec
     gradient                   ...        0 min,  0.001 sec
 * total energy  :    -9.5848609 Eh     change       -0.3839665E-05 Eh
   gradient norm :     0.0007888 Eh/α   predicted    -0.3817819E-05 (  -0.57%)
   displ. norm   :     0.0022666 α      lambda       -0.9631071E-06
   maximum displ.:     0.0018449 α      in ANC's #3, #5, #2, ...

   *** GEOMETRY OPTIMIZATION CONVERGED AFTER 23 ITERATIONS ***

------------------------------------------------------------------------
 total energy gain   :        -0.2288073 Eh     -143.5788 kcal/mol
 total RMSD          :         1.1511208 a0        0.6091 Å
 total power (kW/mol):       -26.1188523 (step)-8449.1085 (real)
------------------------------------------------------------------------

 ANCopt (total)                0 d,  0 h,  0 min,  0.071 sec
 optimizer setup                ...        0 min,  0.000 sec (  0.093%)
 model hessian                  ...        0 min,  0.000 sec (  0.205%)
 ANC generation                 ...        0 min,  0.000 sec (  0.136%)
 coordinate transformation      ...        0 min,  0.000 sec (  0.071%)
 single point calculation       ...        0 min,  0.069 sec ( 96.881%)
 optimization log               ...        0 min,  0.001 sec (  0.817%)
 hessian update                 ...        0 min,  0.000 sec (  0.069%)
 rational function              ...        0 min,  0.001 sec (  0.846%)

================
 final structure:
================
5
 xtb: 6.2.2 (9d81278992624c895f80dd42a50cac0aa55982e2)
C         0.48029980472173    0.06312492928519   -0.24992778894887
C        -0.93792785098531   -0.10611020880994    0.81152477902968
C        -0.56243758317896    0.95530575249136   -0.09048544340473
N        -0.52011355049918   -0.87366800917917   -0.20613297655773
H         1.54017917994172   -0.03865246378744   -0.26497857011835

 Bond Distances (Angstroems)
 ---------------------------
C1-C2=1.7795         C1-C3=1.3816         C1-N4=1.3712         C1-H5=1.0649         C2-C1=1.7795         C2-C3=1.4426         
C2-N4=1.3414         C3-C1=1.3816         C3-C2=1.4426         C3-N4=1.8331         N4-C1=1.3712         N4-C2=1.3414         
N4-C3=1.8331         H5-C1=1.0649         
 C  H  Rav=1.0649 sigma=0.0000  Rmin=1.0649  Rmax=1.0649     1
 C  C  Rav=1.5346 sigma=0.1750  Rmin=1.3816  Rmax=1.7795     3
 N  C  Rav=1.5153 sigma=0.2251  Rmin=1.3414  Rmax=1.8331     3

 selected bond angles (degree)
 --------------------
C3-C1-C2= 52.49                N4-C1-C2= 48.28                N4-C1-C3= 83.50                H5-C1-C2=142.43                
H5-C1-C3=144.55                H5-C1-N4=131.40                C3-C2-C1= 49.43                N4-C2-C1= 49.73                
N4-C2-C3= 82.27                C2-C3-C1= 78.08                N4-C3-C1= 48.01                N4-C3-C2= 46.48                
C2-N4-C1= 81.98                C3-N4-C1= 48.49                C3-N4-C2= 51.25                

 selected dihedral angles (degree)
 ---------------------------------
C3-C2-C1-N4=240.44            C3-C2-C1-H5=133.34            N4-C2-C1-C3=119.56            N4-C2-C1-H5=252.89            
C2-C3-C1-N4= 40.80            C2-C3-C1-H5=229.87            N4-C3-C1-C2=319.20            N4-C3-C1-H5=189.06            
C1-C3-C2-N4=317.95            N4-C3-C2-C1= 42.05            C2-N4-C1-C3=316.02            C2-N4-C1-H5=129.02            
C3-N4-C1-C2= 43.98            C3-N4-C1-H5=173.00            C1-N4-C2-C3= 41.82            C3-N4-C2-C1=318.18            
           -------------------------------------------------
          |                Final Singlepoint                |
           -------------------------------------------------

          ...................................................
          :                      SETUP                      :
          :.................................................:
          :  # basis functions                  17          :
          :  # atomic orbitals                  17          :
          :  # shells                            9          :
          :  # electrons                        18          :
          :  max. iterations                   250          :
          :  Hamiltonian                  GFN2-xTB          :
          :  restarted?                      false          :
          :  GBSA solvation                  false          :
          :  PC potential                    false          :
          :  electronic temp.          300.0000000     K    :
          :  accuracy                    1.0000000          :
          :  -> integral cutoff          0.2500000E+02      :
          :  -> integral neglect         0.1000000E-07      :
          :  -> SCF convergence          0.1000000E-05 Eh   :
          :  -> wf. convergence          0.1000000E-03 e    :
          :  Broyden damping             0.4000000          :
          ...................................................

 iter      E             dE          RMSdq      gap      omega  full diag
   1     -9.7130500 -0.971305E+01  0.658E-06    3.16       0.0  T
   2     -9.7130500  0.532907E-14  0.494E-06    3.16    9054.9  T
   3     -9.7130500 -0.301981E-13  0.335E-06    3.16   13341.4  T

   *** convergence criteria satisfied after 3 iterations ***

         #    Occupation            Energy/Eh            Energy/eV
      -------------------------------------------------------------
         1        2.0000           -0.7491873             -20.3864
       ...           ...                  ...                  ...
         3        2.0000           -0.6348070             -17.2740
         4        2.0000           -0.5914569             -16.0944
         5        2.0000           -0.5429991             -14.7758
         6        2.0000           -0.5241805             -14.2637
         7        2.0000           -0.4848604             -13.1937
         8        2.0000           -0.4385770             -11.9343
         9        2.0000           -0.4316954             -11.7470 (HOMO)
        10                         -0.3153932              -8.5823 (LUMO)
        11                         -0.2812222              -7.6524
        12                         -0.2771438              -7.5415
        13                          0.0582265               1.5844
        14                          0.0764845               2.0812
       ...                                ...                  ...
        17                          0.5983753              16.2826
      -------------------------------------------------------------
                  HL-Gap            0.1163023 Eh            3.1647 eV
             Fermi-level           -0.3735443 Eh          -10.1647 eV

 SCC (total)                   0 d,  0 h,  0 min,  0.003 sec
 SCC setup                      ...        0 min,  0.000 sec (  2.611%)
 Dispersion                     ...        0 min,  0.000 sec (  0.321%)
 integral evaluation            ...        0 min,  0.001 sec ( 39.380%)
 zeroth order Hamiltonian       ...        0 min,  0.000 sec (  0.509%)
 iterations                     ...        0 min,  0.000 sec ( 13.048%)
 molecular gradient             ...        0 min,  0.001 sec ( 41.916%)
 printout                       ...        0 min,  0.000 sec (  1.820%)

         :::::::::::::::::::::::::::::::::::::::::::::::::::::
         ::                     SUMMARY                     ::
         :::::::::::::::::::::::::::::::::::::::::::::::::::::
         :: total energy              -9.584860943142 Eh    ::
         :: gradient norm              0.000788719945 Eh/a0 ::
         :: HOMO-LUMO gap              3.164746238562 eV    ::
         ::.................................................::
         :: SCC energy                -9.713049982663 Eh    ::
         :: -> isotropic ES           -0.003520851975 Eh    ::
         :: -> anisotropic ES          0.001898561326 Eh    ::
         :: -> anisotropic XC          0.010904239852 Eh    ::
         :: -> dispersion             -0.001955705548 Eh    ::
         :: repulsion energy           0.128189013994 Eh    ::
         :: add. restraining           0.000000000000 Eh    ::
         :::::::::::::::::::::::::::::::::::::::::::::::::::::

           ------------------------------------------------- 
          |                Numerical Hessian                |
           ------------------------------------------------- 
step length          :   0.00500
SCC accuracy         :   0.30000
Hessian scale factor :   1.00000
frozen atoms in %    :   0.00000    0
RMS gradient         :   0.00079
estimated CPU  time      0.00 min
estimated wall time      0.00 min

writing file <hessian>.

 projected vibrational frequencies (cm-1)
eigval :       -0.00    -0.00    -0.00    -0.00     0.00     0.00
eigval :      587.52   635.46   761.78   812.62   954.20  1181.91
eigval :     1335.46  1505.81  3217.92
           -------------------------------------------------
          |                Property Printout                |
           -------------------------------------------------

    * Orbital Energies and Occupations

         #    Occupation            Energy/Eh            Energy/eV
      -------------------------------------------------------------
         1        2.0000           -0.7491873             -20.3864
         2        2.0000           -0.6417494             -17.4629
         3        2.0000           -0.6348070             -17.2740
         4        2.0000           -0.5914569             -16.0944
         5        2.0000           -0.5429990             -14.7758
         6        2.0000           -0.5241806             -14.2637
         7        2.0000           -0.4848604             -13.1937
         8        2.0000           -0.4385770             -11.9343
         9        2.0000           -0.4316955             -11.7470 (HOMO)
        10                         -0.3153932              -8.5823 (LUMO)
        11                         -0.2812223              -7.6524
        12                         -0.2771438              -7.5415
        13                          0.0582265               1.5844
        14                          0.0764845               2.0812
        15                          0.1246670               3.3924
        16                          0.2676800               7.2839
        17                          0.5983753              16.2826
      -------------------------------------------------------------
                  HL-Gap            0.1163023 Eh            3.1647 eV
             Fermi-level           -0.3735443 Eh          -10.1647 eV

     #   Z        covCN         q      C6AA      α(0)
     1   6 C      3.679     0.123    18.773     6.206
     2   6 C      2.751    -0.017    28.419     8.729
     3   6 C      2.626    -0.067    29.655     8.907
     4   7 N      2.486    -0.117    23.600     7.214
     5   1 H      0.927     0.078     2.003     2.213

 Mol. C6AA /au·bohr⁶  :        456.081317
 Mol. C8AA /au·bohr⁸  :      11851.081782
 Mol. α(0) /au        :         33.270117


Wiberg/Mayer (AO) data.
largest (>0.10) Wiberg bond orders for each atom
          total WBO             WBO to atom ...
     1  C   3.907        C    3 1.323    N    4 1.131    H    5 0.956    C    2 0.497
     2  C   2.918        N    4 1.321    C    3 1.073    C    1 0.497
     3  C   3.017        C    1 1.323    C    2 1.073    N    4 0.614
     4  N   3.069        C    2 1.321    C    1 1.131    C    3 0.614
     5  H   0.994        C    1 0.956

MOs/occ written to file <molden.input>


molecular dipole:
                 x           y           z       tot (Debye)
 q only:        0.554       0.084      -0.067
   full:        1.106      -0.065      -0.160       2.846
molecular quadrupole (traceless):
                xx          xy          yy          xz          yz          zz
 q only:        0.791      -0.105      -0.787      -0.264      -0.080      -0.004
  q+dip:        2.025      -0.230      -1.699       0.657      -0.120      -0.326
   full:        1.899       0.238      -1.869       1.178      -0.002      -0.029

           -------------------------------------------------
          |                Geometry Summary                 |
           -------------------------------------------------

      molecular mass/u    :       51.0468517
   center of mass at/Å    :       -0.3523117      -0.0258278       0.0490556
  moments of inertia/u·Å² :        0.2553043E+02   0.2678608E+02   0.4385261E+02
rotational constants/cm⁻¹ :        0.6602957E+00   0.6293430E+00   0.3844157E+00
Molecule has no symmetry elements
It seems to be the C1 point group

 * 4 selected distances

     #   Z        #   Z                                     value/Å
     1   6 C      3   6 C                                 1.3815606 (max)
     1   6 C      4   7 N                                 1.3712497
     2   6 C      4   7 N                                 1.3413952
     1   6 C      5   1 H                                 1.0648612 (min)

 * 3 distinct bonds (by element types)

   Z      Z             #   av. dist./Å        max./Å        min./Å
   1 H    6 C           1     1.0648612     1.0648612     1.0648612
   6 C    6 C           1     1.3815606     1.3815606     1.3815606
   6 C    7 N           2     1.3563225     1.3712497     1.3413952

           -------------------------------------------------
          |               Frequency Printout                |
           -------------------------------------------------
 projected vibrational frequencies (cm-1)
eigval :       -0.00    -0.00    -0.00    -0.00     0.00     0.00
eigval :      587.52   635.46   761.78   812.62   954.20  1181.91
eigval :     1335.46  1505.81  3217.92
 reduced masses (amu)
   1: 11.15   2: 12.00   3: 12.58   4: 11.84   5: 12.10   6: 12.23   7: 11.90   8:  7.56
   9:  9.27  10: 10.48  11:  3.64  12: 12.13  13: 12.20  14: 12.10  15:  1.97
 IR intensities (amu)
   1:  0.21   2:  0.11   3:  0.19   4:  0.09   5:  0.11   6:  0.11   7:  0.28   8:  0.25
   9:  0.21  10:  0.53  11:  0.05  12:  0.76  13:  1.12  14:  0.33  15:  0.09
 Raman intensities (amu)
   1:  0.00   2:  0.00   3:  0.00   4:  0.00   5:  0.00   6:  0.00   7:  0.00   8:  0.00
   9:  0.00  10:  0.00  11:  0.00  12:  0.00  13:  0.00  14:  0.00  15:  0.00
 output can be read by thermo (or use thermo option).
 writing <g98.out> molden fake output.
 recommended (thermochemical) frequency scaling factor: 1.0
           -------------------------------------------------
          |             Thermodynamic Functions             |
           -------------------------------------------------

c1  symmetry found (for desy threshold:  0.10E+00) used in thermo

          ...................................................
          :                      SETUP                      :
          :.................................................:
          :  # frequencies                           9      :
          :  # imaginary freq.                       0      :
          :  linear?                             false      :
          :  only rotor calc.                    false      :
          :  symmetry                               c1      :
          :  rotational number                       1      :
          :  scaling factor                  1.0000000      :
          :  rotor cutoff                   50.0000000 cm⁻¹ :
          :  imag. cutoff                  -20.0000000 cm⁻¹ :
          :.................................................:

    mode    ω/cm⁻¹     T·S(HO)/kcal·mol⁻¹    T·S(FR)/kcal·mol⁻¹   T·S(vib)
   ------------------------------------------------------------------------
   ------------------------------------------------------------------------

   temp. (K)  partition function   enthalpy   heat capacity  entropy
                                   cal/mol     cal/K/mol   cal/K/mol   J/K/mol
 298.15  VIB   1.18                  345.057      4.214      1.494
         ROT  0.132E+05              888.752      2.981     21.840
         INT  0.157E+05             1233.809      7.195     23.335
         TR   0.353E+27             1481.254      4.968     37.697
         TOT                        2715.0631    12.1633    61.0312   255.3544

   temp. (K)  partition function   enthalpy   heat capacity  entropy
                                   cal/mol     cal/K/mol   cal/K/mol   J/K/mol
 120.00  VIB   1.00                    2.763      0.175      0.026
         ROT  0.338E+04              357.707      2.981     19.127
         INT  0.338E+04              360.470      3.156     19.153
         TR   0.901E+26              596.178      4.968     33.177
         TOT                         956.6479     8.1240    52.3307   218.9515

   temp. (K)  partition function   enthalpy   heat capacity  entropy
                                   cal/mol     cal/K/mol   cal/K/mol   J/K/mol
 100.00  VIB   1.00                    0.613      0.055      0.007
         ROT  0.257E+04              298.089      2.981     18.584
         INT  0.257E+04              298.702      3.036     18.591
         TR   0.685E+26              496.815      4.968     32.272
         TOT                         795.5171     8.0040    50.8625   212.8089

   temp. (K)  partition function   enthalpy   heat capacity  entropy
                                   cal/mol     cal/K/mol   cal/K/mol   J/K/mol
  80.00  VIB   1.00                    0.067      0.009      0.001
         ROT  0.184E+04              238.471      2.981     17.919
         INT  0.184E+04              238.538      2.990     17.920
         TR   0.490E+26              397.452      4.968     31.164
         TOT                         635.9898     7.9582    49.0834   205.3648

   temp. (K)  partition function   enthalpy   heat capacity  entropy
                                   cal/mol     cal/K/mol   cal/K/mol   J/K/mol
  60.00  VIB   1.00                    0.002      0.000     -0.000
         ROT  0.119E+04              178.853      2.981     17.061
         INT  0.119E+04              178.855      2.981     17.061
         TR   0.319E+26              298.089      4.968     29.735
         TOT                         476.9442     7.9495    46.7964   195.7959

   temp. (K)  partition function   enthalpy   heat capacity  entropy
                                   cal/mol     cal/K/mol   cal/K/mol   J/K/mol
  40.00  VIB   1.00                    0.000      0.000     -0.000
         ROT   650.                  119.236      2.981     15.853
         INT   650.                  119.236      2.981     15.852
         TR   0.173E+26              198.726      4.968     27.722
         TOT                         317.9616     7.9490    43.5742   182.3144

   temp. (K)  partition function   enthalpy   heat capacity  entropy
                                   cal/mol     cal/K/mol   cal/K/mol   J/K/mol
  20.00  VIB   1.00                    0.000      0.000     -0.000
         ROT   230.                   59.618      2.981     13.786
         INT   230.                   59.618      2.981     13.786
         TR   0.613E+25               99.363      4.968     24.280
         TOT                         158.9808     7.9490    38.0659   159.2678

   temp. (K)  partition function   enthalpy   heat capacity  entropy
                                   cal/mol     cal/K/mol   cal/K/mol   J/K/mol
  10.00  VIB   1.00                    0.000      0.000     -0.000
         ROT   81.3                   29.809      2.981     11.720
         INT   81.3                   29.809      2.981     11.720
         TR   0.217E+25               49.681      4.968     20.838
         TOT                          79.4904     7.9490    32.5577   136.2212

       T/K    H(0)-H(T)+PV         H(T)/Eh          T*S/Eh         G(T)/Eh
   ------------------------------------------------------------------------
    298.15    0.432673E-02    0.293699E-01    0.289979E-01    0.372008E-03
    120.00    0.152452E-02    0.265677E-01    0.100073E-01    0.165604E-01
    100.00    0.126774E-02    0.263109E-01    0.810546E-02    0.182054E-01
     80.00    0.101351E-02    0.260567E-01    0.625755E-02    0.197991E-01
     60.00    0.760059E-03    0.258032E-01    0.447448E-02    0.213287E-01
     40.00    0.506704E-03    0.255499E-01    0.277760E-02    0.227723E-01
     20.00    0.253352E-03    0.252965E-01    0.121324E-02    0.240833E-01
     10.00    0.126676E-03    0.251698E-01    0.518839E-03    0.246510E-01 (used)
   ------------------------------------------------------------------------

         :::::::::::::::::::::::::::::::::::::::::::::::::::::
         ::                  THERMODYNAMIC                  ::
         :::::::::::::::::::::::::::::::::::::::::::::::::::::
         :: total free energy          -9.560209946760 Eh   ::
         ::.................................................::
         :: total energy               -9.584860943091 Eh   ::
         :: zero point energy           0.025043159581 Eh   ::
         :: G(RRHO) w/o ZPVE           -0.000392163250 Eh   ::
         :: G(RRHO) contrib.            0.024650996331 Eh   ::
         :::::::::::::::::::::::::::::::::::::::::::::::::::::

optimized geometry written to: xtbopt.xyz


           -------------------------------------------------
          | TOTAL ENERGY               -9.584860943091 Eh   |
          | TOTAL ENTHALPY             -9.559691107494 Eh   |
          | TOTAL FREE ENERGY          -9.560209946760 Eh   |
          | GRADIENT NORM               0.000788546540 Eh/α |
          | HOMO-LUMO GAP               3.164747148526 eV   |
           -------------------------------------------------

------------------------------------------------------------------------
 * finished run on 2020/05/12 at 11:44:49.975     
------------------------------------------------------------------------
 total:
 * wall-time:     0 d,  0 h,  0 min,  0.177 sec
 *  cpu-time:     0 d,  0 h,  0 min,  0.176 sec
 * ratio c/w:     0.995 speedup
 SCF:
 * wall-time:     0 d,  0 h,  0 min,  0.004 sec
 *  cpu-time:     0 d,  0 h,  0 min,  0.004 sec
 * ratio c/w:     1.000 speedup
 ANC optimizer:
 * wall-time:     0 d,  0 h,  0 min,  0.074 sec
 *  cpu-time:     0 d,  0 h,  0 min,  0.074 sec
 * ratio c/w:     0.997 speedup
 numerical hessian:
 * wall-time:     0 d,  0 h,  0 min,  0.081 sec
 *  cpu-time:     0 d,  0 h,  0 min,  0.081 sec
 * ratio c/w:     0.995 speedup

