5
 energy: -9.356053598060 gnorm: 0.241577806396 xtb: 6.2.2 (9d81278992624c895f80dd42a50cac0aa55982e2)
C         1.02145200000000   -0.03678200000000    0.50872300000000
C        -0.49631100000000   -0.03835500000000    0.46815800000000
C        -1.00297800000000    1.24308300000000   -0.16307700000000
N        -0.96829500000000   -1.17892100000000   -0.29631200000000
H         1.44613200000000    0.01097500000000   -0.51749200000000
5
 energy: -9.422520954365 gnorm: 0.114767451004 xtb: 6.2.2 (9d81278992624c895f80dd42a50cac0aa55982e2)
C         0.91794743546992   -0.05807337370806    0.45190078005612
C        -0.52396603872022   -0.02800834548296    0.42996561267716
C        -0.95870394593998    1.16636795640101   -0.13286621781609
N        -0.89593361661021   -1.09522717605052   -0.24408092696451
H         1.46065616580049    0.01494093884053   -0.50491924795268
5
 energy: -9.443043960501 gnorm: 0.108759005799 xtb: 6.2.2 (9d81278992624c895f80dd42a50cac0aa55982e2)
C         0.79268078598599   -0.06416164694578    0.37544611353963
C        -0.60013386169294   -0.01865542234745    0.45757922651012
C        -0.88029139715280    1.11493911053524   -0.10865791170316
N        -0.75116157229217   -1.02221433358274   -0.21784026718478
H         1.43890604515192   -0.00990770765927   -0.50652716116181
5
 energy: -9.460149119419 gnorm: 0.061107019675 xtb: 6.2.2 (9d81278992624c895f80dd42a50cac0aa55982e2)
C         0.69205337720770   -0.08020106992447    0.32070236824095
C        -0.70095628978291   -0.00634295972278    0.55403422854383
C        -0.76695902347369    1.15213550296724   -0.11415313129177
N        -0.57878077783958   -1.04396045859227   -0.22873488827023
H         1.35464271388848   -0.02163101472773   -0.53184857722278
5
 energy: -9.458987956995 gnorm: 0.110396491257 xtb: 6.2.2 (9d81278992624c895f80dd42a50cac0aa55982e2)
C         0.63287908947284   -0.21770037120390    0.25117678587953
C        -0.77810369762678   -0.03684047403562    0.61577323821479
C        -0.61980484835284    1.13134266658161   -0.18935929879125
N        -0.60082403413756   -1.06285266655792   -0.15282554881980
H         1.36585349064434    0.18605084521583   -0.52476517648327
5
 energy: -9.486109100242 gnorm: 0.131675909646 xtb: 6.2.2 (9d81278992624c895f80dd42a50cac0aa55982e2)
C         0.59930192017995   -0.20777962092067    0.19849911903053
C        -0.82824918501393   -0.01568790730096    0.66315404490147
C        -0.62317139565018    1.09313431331132   -0.17733243030528
N        -0.50137546597795   -0.99381771863392   -0.16775168807324
H         1.35349412646212    0.12415093354423   -0.51656904555349
5
 energy: -9.406309714523 gnorm: 0.907571723836 xtb: 6.2.2 (9d81278992624c895f80dd42a50cac0aa55982e2)
C         0.46435615271330   -0.27083559658445    0.02882677233818
C        -1.01822067071284    0.00644503805938    0.79329494673575
C        -0.52403062388610    1.04464134022114   -0.18178793175371
N        -0.32814531495762   -0.92311395345876   -0.13360117295041
H         1.40604045684327    0.14286317176269   -0.50673261436982
5
 energy: -9.537997508000 gnorm: 0.129246664127 xtb: 6.2.2 (9d81278992624c895f80dd42a50cac0aa55982e2)
C         0.54782490511821   -0.15302656771701    0.04096129867574
C        -1.01818803099807   -0.01057256992971    0.75516672201405
C        -0.51100294178304    1.01892460889006   -0.14641729016412
N        -0.45582882275911   -0.97198106777114   -0.16664553678352
H         1.43719489042202    0.11665559652780   -0.48306519374215
5
 energy: -9.560410587807 gnorm: 0.165637701196 xtb: 6.2.2 (9d81278992624c895f80dd42a50cac0aa55982e2)
C         0.48590465349668    0.01456245541664   -0.09541496826371
C        -1.11898172106957   -0.04521225271050    0.82056264318350
C        -0.46716099944555    0.90760358545960   -0.08385186601029
N        -0.49033722802419   -0.90333428937595   -0.19454286542089
H         1.59057529504264    0.02638050121021   -0.44675294348860
5
 energy: -9.557393101528 gnorm: 0.149535145829 xtb: 6.2.2 (9d81278992624c895f80dd42a50cac0aa55982e2)
C         0.55136311320054   -0.03071931742156   -0.10699020528970
C        -1.05901703238751   -0.00434295860883    0.76910934509938
C        -0.63585354663463    0.90265673181642   -0.07439093326575
N        -0.50828423797068   -0.84347085299548   -0.18660390288273
H         1.65179170379228   -0.02412360279055   -0.40112430366120
5
 energy: -9.563278290902 gnorm: 0.162293365842 xtb: 6.2.2 (9d81278992624c895f80dd42a50cac0aa55982e2)
C         0.56967944280187   -0.04025234484894   -0.06666739203105
C        -1.02883242266907   -0.05399634737835    0.79084070823206
C        -0.51828512267285    0.90508187184855   -0.12890343386954
N        -0.48961589298292   -0.85412428675330   -0.19495956923838
H         1.46705399552298    0.04329110713204   -0.40031031309308
5
 energy: -9.567725116932 gnorm: 0.119817727010 xtb: 6.2.2 (9d81278992624c895f80dd42a50cac0aa55982e2)
C         0.47734322915167    0.02000244384453   -0.14084992188208
C        -1.10847395532058   -0.08810305861801    0.79409320799700
C        -0.46678488702054    0.96699845087654   -0.08018137021250
N        -0.48950495219685   -0.92976933037547   -0.16976152502318
H         1.58742056538632    0.03087149427242   -0.40330039087923
5
 energy: -9.579096942355 gnorm: 0.039746588441 xtb: 6.2.2 (9d81278992624c895f80dd42a50cac0aa55982e2)
C         0.51127120777307    0.01128452163324   -0.13068715529625
C        -1.05862886379033   -0.07653445230077    0.78375966900912
C        -0.52446468917930    0.92657565364088   -0.08887006869280
N        -0.51033868170232   -0.87568288382040   -0.17881570582053
H         1.58216102689887    0.01435716084705   -0.38538673919953
5
 energy: -9.580840279165 gnorm: 0.031401599532 xtb: 6.2.2 (9d81278992624c895f80dd42a50cac0aa55982e2)
C         0.51447836604826    0.04170741649505   -0.13693740705283
C        -1.04305397630164   -0.08410522890754    0.77365201653959
C        -0.53251529335493    0.92990822110296   -0.07749128473300
N        -0.49560753178266   -0.86657380478450   -0.18901589018099
H         1.55669843539096   -0.02093660390597   -0.37020743457277
5
 energy: -9.582174401015 gnorm: 0.020893092626 xtb: 6.2.2 (9d81278992624c895f80dd42a50cac0aa55982e2)
C         0.51776643409094    0.06153748715409   -0.16053284010499
C        -1.03596717059970   -0.10017264405858    0.78344216615904
C        -0.54275700245818    0.93662252858989   -0.07737554940522
N        -0.49436209000474   -0.85789597589517   -0.19576066809493
H         1.55531982897168   -0.04009139579023   -0.34977310855391
5
 energy: -9.583334108898 gnorm: 0.020782620191 xtb: 6.2.2 (9d81278992624c895f80dd42a50cac0aa55982e2)
C         0.50818839036502    0.08405970463019   -0.19604789592064
C        -1.01227837205546   -0.12538989584608    0.78086411717344
C        -0.54802180094902    0.95857605337288   -0.07421153801482
N        -0.49950357821193   -0.86339133537384   -0.19500495216355
H         1.55161536085139   -0.05385452678316   -0.31559973107443
5
 energy: -9.583701777371 gnorm: 0.016934535648 xtb: 6.2.2 (9d81278992624c895f80dd42a50cac0aa55982e2)
C         0.50224262345591    0.09300041331307   -0.21107383494170
C        -0.99634735666438   -0.13307504811798    0.79408950652018
C        -0.55275782779549    0.95672490585950   -0.07852685896835
N        -0.50785414938636   -0.85839404024581   -0.20114095268016
H         1.55471671039033   -0.05825623080878   -0.30334785992997
5
 energy: -9.584191406694 gnorm: 0.015611867577 xtb: 6.2.2 (9d81278992624c895f80dd42a50cac0aa55982e2)
C         0.49376051962369    0.08755707993109   -0.21929861417501
C        -0.97080157506624   -0.13230480493395    0.80265099696790
C        -0.55684374948859    0.96249454708045   -0.08562483302510
N        -0.51477447367573   -0.86488006797941   -0.20497191418269
H         1.54865927860687   -0.05286675409818   -0.29275563558510
5
 energy: -9.584589291432 gnorm: 0.011507588671 xtb: 6.2.2 (9d81278992624c895f80dd42a50cac0aa55982e2)
C         0.48479396066860    0.07461942633902   -0.22643775083951
C        -0.94612176990055   -0.12074781424489    0.81050433759068
C        -0.56126827860077    0.96067880497046   -0.09208676621117
N        -0.52228603553440   -0.87117751314541   -0.20840599552024
H         1.54488212336712   -0.04337290391919   -0.28357382501976
5
 energy: -9.584754493661 gnorm: 0.007448084689 xtb: 6.2.2 (9d81278992624c895f80dd42a50cac0aa55982e2)
C         0.48157408275279    0.06692305088215   -0.23399591361575
C        -0.93836014556210   -0.11115955222297    0.81106785792928
C        -0.56329520800099    0.95747485136709   -0.09253760566198
N        -0.52393637337264   -0.87397177702334   -0.20842389304593
H         1.54401764418293   -0.03926657300294   -0.27611044560562
5
 energy: -9.584839279254 gnorm: 0.003932594518 xtb: 6.2.2 (9d81278992624c895f80dd42a50cac0aa55982e2)
C         0.48084971126529    0.06291866562288   -0.24325520735139
C        -0.93701383850096   -0.10518782644189    0.81069861356635
C        -0.56330319149549    0.95437513039511   -0.09171137745776
N        -0.52325448110193   -0.87457422226139   -0.20763930477572
H         1.54272179983310   -0.03753174731470   -0.26809272398148
5
 energy: -9.584857103538 gnorm: 0.001666900561 xtb: 6.2.2 (9d81278992624c895f80dd42a50cac0aa55982e2)
C         0.48064815157926    0.06302088227805   -0.24604871487526
C        -0.93791101417987   -0.10556245958020    0.81069103169417
C        -0.56249678717934    0.95489316556631   -0.09090747670441
N        -0.52131406579840   -0.87432575158693   -0.20666860350356
H         1.54107371557835   -0.03802583667724   -0.26706623661094
5
 energy: -9.584860943203 gnorm: 0.000788791799 xtb: 6.2.2 (9d81278992624c895f80dd42a50cac0aa55982e2)
C         0.48029980472173    0.06312492928519   -0.24992778894887
C        -0.93792785098531   -0.10611020880994    0.81152477902968
C        -0.56243758317896    0.95530575249136   -0.09048544340473
N        -0.52011355049918   -0.87366800917917   -0.20613297655773
H         1.54017917994172   -0.03865246378744   -0.26497857011835
