4
 energy: -3.203245834747 gnorm: 0.000635897469 xtb: 6.2.2 (9d81278992624c895f80dd42a50cac0aa55982e2)
C        -0.00013865402716   -0.00009411109655    0.00061971648833
H         1.45080330409415   -0.32018989615897   -0.00253910613483
H        -1.00185638684968   -1.09560631375596    0.00029249191438
H        -0.44880826322079    1.41589032100973    0.00162589773212
