4
 energy: -2.953346591783 gnorm: 0.495134153702 xtb: 6.2.2 (9d81278992624c895f80dd42a50cac0aa55982e2)
C         0.00038700000000   -0.00023900000000    0.27736600000000
H         1.02128800000000   -0.22510300000000   -0.09407500000000
H        -0.70585200000000   -0.77190200000000   -0.09213500000000
H        -0.31582300000000    0.99724400000000   -0.09115700000000
4
 energy: -3.153332495797 gnorm: 0.130692371220 xtb: 6.2.2 (9d81278992624c895f80dd42a50cac0aa55982e2)
C         0.00032660451204   -0.00020419590150    0.23555483704405
H         1.23963360437279   -0.27324811774000   -0.08048448701531
H        -0.85667691096755   -0.93691998088167   -0.07812886351730
H        -0.38328329791729    1.21037229452316   -0.07694248651145
4
 energy: -3.194833299815 gnorm: 0.050330237672 xtb: 6.2.2 (9d81278992624c895f80dd42a50cac0aa55982e2)
C         0.00007892393969   -0.00005499522484    0.06026224890609
H         1.35115782313904   -0.29787050962514   -0.02223092524139
H        -0.93358714489298   -1.02118778640973   -0.01966219977916
H        -0.41764960218575    1.31911329125972   -0.01837012388553
4
 energy: -3.202020736314 gnorm: 0.017097617528 xtb: 6.2.2 (9d81278992624c895f80dd42a50cac0aa55982e2)
C        -0.00006799746878    0.00002601922331   -0.04252470818194
H         1.41629644496199   -0.31225301462760    0.01192777334830
H        -0.97850016721387   -1.07038319109111    0.01462243395326
H        -0.43772828027934    1.38261018649540    0.01597350088038
4
 energy: -3.202548506578 gnorm: 0.012460768239 xtb: 6.2.2 (9d81278992624c895f80dd42a50cac0aa55982e2)
C        -0.00006656085547    0.00001866430943   -0.03880407478673
H         1.42777875591698   -0.31479646642695    0.01066869151482
H        -0.98641568133947   -1.07902383546160    0.01338715119725
H        -0.44129651372204    1.39380163757912    0.01474723207466
4
 energy: -3.203221218665 gnorm: 0.002196417579 xtb: 6.2.2 (9d81278992624c895f80dd42a50cac0aa55982e2)
C        -0.00004940164111   -0.00002453946414   -0.01004471187752
H         1.44935805681448   -0.31961604198850    0.00104359989874
H        -1.00123999832909   -1.09515043202256    0.00381434743780
H        -0.44806865684428    1.41479101347520    0.00518576454098
4
 energy: -3.203244849225 gnorm: 0.000509931340 xtb: 6.2.2 (9d81278992624c895f80dd42a50cac0aa55982e2)
C        -0.00006698564354   -0.00005258391353   -0.00150303322099
H         1.45121055461204   -0.32009478247277   -0.00181236499239
H        -1.00240910590542   -1.09635665954252    0.00097600579432
H        -0.44873446306308    1.41650402592882    0.00233839241905
4
 energy: -3.203245833547 gnorm: 0.000632406354 xtb: 6.2.2 (9d81278992624c895f80dd42a50cac0aa55982e2)
C        -0.00013865569761   -0.00009411290415    0.00061971584008
H         1.45080498943895   -0.32018229534302   -0.00253460069360
H        -1.00185065126959   -1.09561155995144    0.00028708259298
H        -0.44881568247174    1.41588796819860    0.00162680226054
