 Entering Gaussian System
 *********************************************
 Gaussian 98:
 frequency output generated by the xtb code
 *********************************************
                         Standard orientation:
 --------------------------------------------------------------------
  Center     Atomic     Atomic              Coordinates (Angstroms)
  Number     Number      Type              X           Y           Z
 --------------------------------------------------------------------
    1          6             0       -0.000139   -0.000094    0.000620
    2          1             0        1.450803   -0.320190   -0.002539
    3          1             0       -1.001856   -1.095606    0.000292
    4          1             0       -0.448808    1.415890    0.001626
 --------------------------------------------------------------------
     1 basis functions        1 primitive gaussians
     1 alpha electrons        1 beta electrons

 Harmonic frequencies (cm**-1), IR intensities (KM/Mole),
 Raman scattering activities (A**4/amu), Raman depolarization ratios,
 reduced masses (AMU), force constants (mDyne/A) and normal coordinates:
                      1                      2                      3
                        a                      a                      a 
 Frequencies -- -2494.0004             -2485.9227              -430.7854
 Red. masses --     2.1236                 2.1212                 2.1076
 Frc consts  --     0.0000                 0.0000                 0.0000
 IR Inten    --     0.5610                 0.5508                 0.6360
 Raman Activ --     0.0000                 0.0000                 0.0000
 Depolar     --     0.0000                 0.0000                 0.0000
 Atom AN      X      Y      Z        X      Y      Z        X      Y      Z
   1   6     0.27  -0.17  -0.00     0.17   0.27  -0.00    -0.18  -0.26   0.00
   2   1    -0.71   0.14   0.00    -0.25   0.09   0.00     0.14   0.70   0.00
   3   1    -0.06  -0.12  -0.00    -0.52  -0.56  -0.00    -0.10   0.03   0.00
   4   1    -0.16   0.57   0.00     0.18  -0.46  -0.00     0.60   0.16  -0.00
                      4                      5                      6
                        a                      a                      a 
 Frequencies --  -418.7430               895.7895              1737.0815
 Red. masses --     2.1052                 3.2209                 1.0079
 Frc consts  --     0.0000                 0.0000                 0.0000
 IR Inten    --     0.6249                 0.1408                 0.0058
 Raman Activ --     0.0000                 0.0000                 0.0000
 Depolar     --     0.0000                 0.0000                 0.0000
 Atom AN      X      Y      Z        X      Y      Z        X      Y      Z
   1   6    -0.26   0.18   0.00     0.00  -0.00   0.45    -0.00  -0.00  -0.00
   2   1    -0.11  -0.29  -0.00    -0.00   0.00  -0.52     0.56  -0.12  -0.00
   3   1     0.56  -0.52  -0.00    -0.00   0.00  -0.52    -0.39  -0.43   0.00
   4   1     0.43   0.18  -0.00    -0.00   0.00  -0.52    -0.17   0.55   0.00
