$hessian                                                                        
       -0.2941027198   0.0008712817   0.0005429849   0.1912016313  -0.0431032825
       -0.0004561234   0.0886056075   0.1022345129  -0.0000076926   0.0142954810
       -0.0600025120  -0.0000791689
        0.0008712817  -0.2931504569  -0.0003287759  -0.0438783620   0.0050005199
        0.0001169905   0.1019026759   0.1066036294   0.0000519401  -0.0588955956
        0.1815463076   0.0001598454
        0.0005429849  -0.0003287759   0.0733553909  -0.0003528150   0.0000928079
       -0.0244462892  -0.0000798308  -0.0000277814  -0.0244592618  -0.0001103391
        0.0002637494  -0.0244498398
        0.1912016313  -0.0438783620  -0.0003528150  -0.0983878740   0.0207089447
        0.0002447383  -0.0656863996  -0.0820720923   0.0000029317  -0.0271273576
        0.1052415095   0.0001051450
       -0.0431032825   0.0050005199   0.0000928079   0.0207089447  -0.0091603837
       -0.0000622807   0.0207820346   0.0216169845  -0.0000109846   0.0016123032
       -0.0174571208  -0.0000195427
       -0.0004561234   0.0001169905  -0.0244462892   0.0002447383  -0.0000622807
        0.0081467526   0.0001481567   0.0001542318   0.0081513997   0.0000632284
       -0.0002089416   0.0081481369
        0.0886056075   0.1019026759  -0.0000798308  -0.0656863996   0.0207820346
        0.0001481567  -0.0492830479  -0.0490888200  -0.0000081777   0.0263638400
       -0.0735958905  -0.0000601482
        0.1022345129   0.1066036294  -0.0000277814  -0.0820720923   0.0216169845
        0.0001542318  -0.0490888200  -0.0580672447  -0.0000432215   0.0289263994
       -0.0701533692  -0.0000832290
       -0.0000076926   0.0000519401  -0.0244592618   0.0000029317  -0.0000109846
        0.0081513997  -0.0000081777  -0.0000432215   0.0081554555   0.0000129385
        0.0000022660   0.0081524066
        0.0142954810  -0.0588955956  -0.0001103391  -0.0271273576   0.0016123032
        0.0000632284   0.0263638400   0.0289263994   0.0000129385  -0.0135319633
        0.0283568930   0.0000341722
       -0.0600025120   0.1815463076   0.0002637494   0.1052415095  -0.0174571208
       -0.0002089416  -0.0735958905  -0.0701533692   0.0000022660   0.0283568930
       -0.0939358176  -0.0000570738
       -0.0000791689   0.0001598454  -0.0244498398   0.0001051450  -0.0000195427
        0.0081481369  -0.0000601482  -0.0000832290   0.0081524066   0.0000341722
       -0.0000570738   0.0081492963
