 Entering Gaussian System
 *********************************************
 Gaussian 98:
 frequency output generated by the xtb code
 *********************************************
                         Standard orientation:
 --------------------------------------------------------------------
  Center     Atomic     Atomic              Coordinates (Angstroms)
  Number     Number      Type              X           Y           Z
 --------------------------------------------------------------------
    1          6             0       -0.012643    0.000126    0.000000
    2          8             0       -1.174834   -0.000386    0.000004
    3          7             0        1.187477    0.000259   -0.000004
 --------------------------------------------------------------------
     1 basis functions        1 primitive gaussians
     1 alpha electrons        1 beta electrons

 Harmonic frequencies (cm**-1), IR intensities (KM/Mole),
 Raman scattering activities (A**4/amu), Raman depolarization ratios,
 reduced masses (AMU), force constants (mDyne/A) and normal coordinates:
                      1                      2                      3
                        a                      a                      a 
 Frequencies --   376.4252               376.4254              1378.1274
 Red. masses --    12.8590                12.8590                14.9618
 Frc consts  --     0.0000                 0.0000                 0.0000
 IR Inten    --     1.0198                 1.0198                 0.3913
 Raman Activ --     0.0000                 0.0000                 0.0000
 Depolar     --     0.0000                 0.0000                 0.0000
 Atom AN      X      Y      Z        X      Y      Z        X      Y      Z
   1   6    -0.00   0.02  -0.84     0.00  -0.84  -0.02    -0.02  -0.00   0.00
   2   8     0.00  -0.01   0.37    -0.00   0.37   0.01     0.69   0.00  -0.00
   3   7    -0.00  -0.01   0.38     0.00   0.38   0.01    -0.72  -0.00   0.00
                      4
                        a 
 Frequencies --  2218.4239
 Red. masses --    12.8597
 Frc consts  --     0.0000
 IR Inten    --     1.9326
 Raman Activ --     0.0000
 Depolar     --     0.0000
 Atom AN      X      Y      Z        X      Y      Z        X      Y      Z
   1   6     0.84   0.00  -0.00
   2   8    -0.37  -0.00   0.00
   3   7    -0.38  -0.00   0.00
