3
 energy: -8.849005505256 gnorm: 0.385220996896 xtb: 6.2.2 (9d81278992624c895f80dd42a50cac0aa55982e2)
C        -0.02558100000000    0.54713600000000    0.00000000000000
O        -1.14874100000000   -0.27828200000000    0.00000000000000
N         1.17432200000000   -0.26885500000000    0.00000000000000
3
 energy: -8.967701427326 gnorm: 0.228487725083 xtb: 6.2.2 (9d81278992624c895f80dd42a50cac0aa55982e2)
C        -0.01027411387945    0.37904765227290    0.00000000000000
O        -1.13111220678249   -0.19676651031072    0.00000000000000
N         1.14138632066194   -0.18228214196219    0.00000000000000
3
 energy: -8.985034858706 gnorm: 0.311462841630 xtb: 6.2.2 (9d81278992624c895f80dd42a50cac0aa55982e2)
C         0.00664708398262    0.21015908197600    0.00000000000000
O        -1.06969563277872   -0.11522703805214    0.00000000000000
N         1.06304854879610   -0.09493304392386    0.00000000000000
3
 energy: -9.018396034382 gnorm: 0.090519131561 xtb: 6.2.2 (9d81278992624c895f80dd42a50cac0aa55982e2)
C        -0.01299488953010    0.09896678209453    0.00000000000000
O        -1.19929646762530   -0.05142080432400    0.00000000000000
N         1.21229135715540   -0.04754697777053    0.00000000000000
3
 energy: -9.021775053660 gnorm: 0.045242469238 xtb: 6.2.2 (9d81278992624c895f80dd42a50cac0aa55982e2)
C        -0.01864489125830    0.09935225937232    0.00000000000000
O        -1.17086345083481   -0.04951992894205    0.00000000000000
N         1.18950834209310   -0.04983333043027    0.00000000000000
3
 energy: -9.023718456248 gnorm: 0.016749932706 xtb: 6.2.2 (9d81278992624c895f80dd42a50cac0aa55982e2)
C        -0.00989689482342    0.05304906834909    0.00000000000000
O        -1.17300848187901   -0.02868500959126    0.00000000000000
N         1.18290537670242   -0.02436505875783    0.00000000000000
3
 energy: -9.024239606191 gnorm: 0.008030255433 xtb: 6.2.2 (9d81278992624c895f80dd42a50cac0aa55982e2)
C        -0.01298908942820    0.01414700232949    0.00000000000000
O        -1.17700784724916   -0.00752148252655    0.00000000000000
N         1.18999693667736   -0.00662651980294    0.00000000000000
3
 energy: -9.024298937103 gnorm: 0.002400719899 xtb: 6.2.2 (9d81278992624c895f80dd42a50cac0aa55982e2)
C        -0.01300556166242    0.00414844520538    0.00000000000000
O        -1.17502168911094   -0.00234320565824    0.00000000000000
N         1.18802725077336   -0.00180623954714    0.00000000000000
3
 energy: -9.024303713685 gnorm: 0.000320617693 xtb: 6.2.2 (9d81278992624c895f80dd42a50cac0aa55982e2)
C        -0.01264304160755    0.00012599664890    0.00000000000000
O        -1.17483367394881   -0.00039211461718    0.00000000000000
N         1.18747671555637    0.00026511796828    0.00000000000000
