$hessian                                                                        
        1.5970959135   0.0003830888  -0.0000054048  -0.8287784087  -0.0003316867
        0.0000015769  -0.7679465080  -0.0000557153   0.0000009217
        0.0003830888   0.0459603040  -0.0000000005  -0.0003722842  -0.0233990031
        0.0000000001  -0.0000096427  -0.0225670691  -0.0000000013
       -0.0000054048  -0.0000000005   0.0459600972   0.0000028282   0.0000000009
       -0.0233988030   0.0000025797  -0.0000000009  -0.0225670506
       -0.8287784087  -0.0003722842   0.0000028282   0.9669869579   0.0004090025
       -0.0000017609  -0.1384728875  -0.0000343533   0.0000005196
       -0.0003316867  -0.0233990031   0.0000000009   0.0004090025   0.0119719990
       -0.0000000007  -0.0000777251   0.0114229139   0.0000000008
        0.0000015769   0.0000000001  -0.0233988030  -0.0000017609  -0.0000000007
        0.0119718175   0.0000001838   0.0000000006   0.0114228913
       -0.7679465080  -0.0000096427   0.0000025797  -0.1384728875  -0.0000777251
        0.0000001838   0.9063127369   0.0000893161  -0.0000014443
       -0.0000557153  -0.0225670691  -0.0000000009  -0.0000343533   0.0114229139
        0.0000000006   0.0000893161   0.0111540137   0.0000000010
        0.0000009217  -0.0000000013  -0.0225670506   0.0000005196   0.0000000008
        0.0114228913  -0.0000014443   0.0000000010   0.0111540098
