[Molden Format]
[Title]
[Atoms] AU
C      1     6 -0.23891882556682E-01  0.23822423456160E-03  0.82982845987409E-07
O      2     8 -0.22201136836051E+01 -0.72936467913158E-03  0.77509519661613E-05
N      3     7  0.22440055661519E+01  0.48925071862073E-03 -0.78339315139547E-05
[GTO]
           1 0
 s           4   1.0000000000000000     
   51.049363095579913      -0.16312063210127389     
   8.7911227406887544      -0.19911024581000730     
  0.70640422258929825       0.31882047753655751     
  0.26922813413411617       0.12706504184240380     
 p           4   1.0000000000000000     
   5.8263656140800002       0.73716451545209605     
   1.5106896018720002       0.68216371614850257     
  0.53256483288000001       0.35783053929253711     
  0.21202323690600003        5.3983030275847881E-002

           2 0
 s           4   1.0000000000000000     
   69.137961906196551      -0.20478756370077797     
   11.906129132707308      -0.24997023136827334     
  0.95670827744340703       0.40025880240639616     
  0.36462520496073686       0.15952206667693555     
 p           4   1.0000000000000000     
   8.2124193257781641        1.1321556799186829     
   2.1293576997098116        1.0476840782254817     
  0.75066448202360914       0.54956508217158984     
  0.29885246543283073        8.2908486592766617E-002

           3 0
 s           4   1.0000000000000000     
   63.594024466941008      -0.19234388414721629     
   10.951417231523665      -0.23478107924953728     
  0.87999310257376984       0.37593753901700888     
  0.33538715296521110       0.14982889271862770     
 p           4   1.0000000000000000     
   7.2965040481495080       0.97658666315667420     
   1.8918745450712575       0.90372226730345739     
  0.66694432110824120       0.47404958461536373     
  0.26552202674130870        7.1516067715011844E-002

[MO]
Sym=     1a
Ene=  -0.80071698874364705     
Spin= Alpha
Occup=     2.00000000
           1  0.33838001901840425     
           2 -0.22665956663460785     
           3  -1.0326740859133861E-004
           4   8.1399884996748783E-007
           5  0.64659501229040650     
           6  0.23500263661422852     
           7   1.0936037189485974E-004
           8  -8.3423825157769939E-007
           9   1.1773471193503183E-002
          10  -3.2226342846474826E-002
          11  -1.3996687065512242E-005
          12   1.2173699290634550E-007
Sym=     2a
Ene=  -0.71973485162003892     
Spin= Alpha
Occup=     2.00000000
           1  0.42154549399673796     
           2  0.28544940486112291     
           3   2.1195219026093418E-005
           4  -9.4962953552594009E-007
           5 -0.27701800834322365     
           6  0.20144554465936143     
           7   2.7104365738384399E-005
           8  -6.5029889072928228E-007
           9  0.45777028793902069     
          10 -0.22251111704487581     
          11  -2.9320421183113167E-005
          12   8.3909868497447872E-007
Sym=     3a
Ene=  -0.63689952743092204     
Spin= Alpha
Occup=     2.00000000
           1 -0.12307138041534663     
           2  0.25017912533394182     
           3  -9.3942910102902876E-004
           4  -2.0734559850940533E-006
           5  0.57695018991524849     
           6 -0.64886326043056808     
           7  -1.5540540237877678E-003
           8   6.6312863969646519E-007
           9  0.35999890891039316     
          10  -2.1082834019762128E-002
          11  -4.0418092387041428E-004
          12  -4.0818166280575575E-007
Sym=     4a
Ene=  -0.63364445672364900     
Spin= Alpha
Occup=     2.00000000
           1   2.4491300953218251E-006
           2  -5.2218251153365316E-006
           3  -1.1459596999811255E-002
           4  0.52270617452271151     
           5  -2.2586578047194597E-005
           6   3.4269558209384654E-005
           7  -1.4627080558308265E-002
           8  0.66718517786107312     
           9  -1.5378730777508338E-005
          10   2.3445634088138121E-006
          11  -5.0634545518173655E-003
          12  0.23095914592300953     
Sym=     5a
Ene=  -0.63364444303488920     
Spin= Alpha
Occup=     2.00000000
           1  -1.2699450563867623E-004
           2   3.4574548752177653E-004
           3  0.52270531047230695     
           4   1.1459612504042579E-002
           5   1.0921069748811285E-003
           6  -1.5274084140027972E-003
           7  0.66718336095972386     
           8   1.4627122618737481E-002
           9   7.3835209063457185E-004
          10  -7.2044615598951931E-005
          11  0.23095880036976491     
          12   5.0634622086497653E-003
Sym=     6a
Ene=  -0.49551984549428002     
Spin= Alpha
Occup=     1.99937300
           1 -0.17703832302627576     
           2 -0.19093334243924695     
           3  -2.1180947460340316E-004
           4   6.5119588250208058E-007
           5  -4.3439837398927816E-002
           6  0.23116260311975084     
           7   4.0849717404987284E-004
           8  -7.9494810586737340E-007
           9  0.66690172426404626     
          10  0.66902624594212112     
          11  -2.7063343498329867E-004
          12  -2.3285121035162664E-006
Sym=     7a
Ene=  -0.48851548267016776     
Spin= Alpha
Occup=     1.50031366
           1  -5.2483404939230877E-006
           2  -1.7815814535638162E-005
           3   2.7882107997473125E-002
           4  0.24016114817958695     
           5   1.5291439914173382E-007
           6   4.3938204310229500E-005
           7  -6.6466238071674663E-002
           8 -0.57250362662608012     
           9   3.3290462317593017E-005
          10   3.5802835017747845E-005
          11   8.8919657499239385E-002
          12  0.76590482865806053     
Sym=     8a
Ene=  -0.48851548147945800     
Spin= Alpha
Occup=     1.50031334
           1  -4.4855758866471252E-005
           2  -1.6044657794167457E-004
           3  0.24016105891839601     
           4  -2.7882116000519631E-002
           5   1.6979783728387996E-006
           6   3.9550534097823587E-004
           7 -0.57250343078470367     
           8   6.6466258247437252E-002
           9   2.8696410614504177E-004
          10   2.8511146828863845E-004
          11  0.76590478673569029     
          12  -8.8919665007484147E-002
Sym=     9a
Ene=  -0.22600041043736679     
Spin= Alpha
Occup=     0.00000000
           1   2.5356004197187894E-004
           2  -2.5520090355403961E-004
           3  0.89167437684419315     
           4   4.2815841802672436E-002
           5  -2.4299847112967723E-005
           6   1.1023159675051709E-004
           7 -0.53434505683003852     
           8  -2.5657831284584098E-002
           9  -3.7430639227765988E-006
          10   2.3627699485378307E-004
          11 -0.64435432490299238     
          12  -3.0940188097899828E-002
Sym=    10a
Ene=  -0.22600039293318222     
Spin= Alpha
Occup=     0.00000000
           1   1.2173408681184069E-005
           2  -1.5378707176847603E-005
           3   4.2815837899574251E-002
           4 -0.89167446393154570     
           5  -1.1503914475476545E-006
           6   7.1593974458421197E-006
           7  -2.5657833107835523E-002
           8  0.53434507257585295     
           9  -1.9575497731409643E-007
          10   1.3590188627802810E-005
          11  -3.0940183996705319E-002
          12  0.64435436238760491     
Sym=    11a
Ene=   0.25345663998039342     
Spin= Alpha
Occup=     0.00000000
           1  -1.1981258561085004     
           2  -4.6397761617577495E-003
           3   3.4623824265011491E-004
           4   1.1179895317158275E-008
           5  0.44244365049951384     
           6  0.65702367559470287     
           7   1.6567767379576718E-004
           8  -2.2845031122461962E-006
           9  0.47661378896700468     
          10 -0.72983263632322015     
          11  -2.0611099232784597E-004
          12   2.5288749901467042E-006
Sym=    12a
Ene=    1.1923759593276315     
Spin= Alpha
Occup=     0.00000000
           1   3.6511683487550239E-002
           2  -1.5249022182901533     
           3  -4.2685577232948738E-004
           4   5.3132704211637770E-006
           5 -0.79942051950810733     
           6 -0.73060383095634751     
           7  -3.8517459937419818E-004
           8   2.5441872136655543E-006
           9  0.78477413080165503     
          10 -0.72589112634560404     
          11  -1.2039680666267891E-005
          12   2.5239299576354058E-006
