4
 energy: -3.562970060936 gnorm: 0.000291276695 xtb: 6.2.2 (9d81278992624c895f80dd42a50cac0aa55982e2)
C        -0.00000242675964    0.00000148654616   -0.00173271298376
H         1.04219472481960   -0.22976928287051   -0.00107827435646
H        -0.72008273144449   -0.78768330478912    0.00090831652403
H        -0.32210956661896    1.01745110111172    0.00190167081620
