[Molden Format]
[Title]
[Atoms] AU
N      1     7 -0.29307971113601E+01 -0.15455889819494E+00 -0.13759925094611E+00
C      2     6 -0.10828509580265E+01  0.14938640792328E+01  0.28090344925795E+00
C      3     6  0.13114374068658E+01  0.70687435128332E-01  0.99599032535845E-01
C      4     6 -0.92700467153448E+00 -0.15691330921254E+01  0.40197661192231E+00
C      5     6  0.36292153340552E+01  0.15914047595922E+00 -0.64487984277001E+00
[GTO]
           1 0
 s           4   1.0000000000000000     
   63.594024466941008      -0.19234388414721629     
   10.951417231523665      -0.23478107924953728     
  0.87999310257376984       0.37593753901700888     
  0.33538715296521110       0.14982889271862770     
 p           4   1.0000000000000000     
   7.2965040481495080       0.97658666315667420     
   1.8918745450712575       0.90372226730345739     
  0.66694432110824120       0.47404958461536373     
  0.26552202674130870        7.1516067715011844E-002

           2 0
 s           4   1.0000000000000000     
   51.049363095579913      -0.16312063210127389     
   8.7911227406887544      -0.19911024581000730     
  0.70640422258929825       0.31882047753655751     
  0.26922813413411617       0.12706504184240380     
 p           4   1.0000000000000000     
   5.8263656140800002       0.73716451545209605     
   1.5106896018720002       0.68216371614850257     
  0.53256483288000001       0.35783053929253711     
  0.21202323690600003        5.3983030275847881E-002

           3 0
 s           4   1.0000000000000000     
   51.049363095579913      -0.16312063210127389     
   8.7911227406887544      -0.19911024581000730     
  0.70640422258929825       0.31882047753655751     
  0.26922813413411617       0.12706504184240380     
 p           4   1.0000000000000000     
   5.8263656140800002       0.73716451545209605     
   1.5106896018720002       0.68216371614850257     
  0.53256483288000001       0.35783053929253711     
  0.21202323690600003        5.3983030275847881E-002

           4 0
 s           4   1.0000000000000000     
   51.049363095579913      -0.16312063210127389     
   8.7911227406887544      -0.19911024581000730     
  0.70640422258929825       0.31882047753655751     
  0.26922813413411617       0.12706504184240380     
 p           4   1.0000000000000000     
   5.8263656140800002       0.73716451545209605     
   1.5106896018720002       0.68216371614850257     
  0.53256483288000001       0.35783053929253711     
  0.21202323690600003        5.3983030275847881E-002

           5 0
 s           4   1.0000000000000000     
   51.049363095579913      -0.16312063210127389     
   8.7911227406887544      -0.19911024581000730     
  0.70640422258929825       0.31882047753655751     
  0.26922813413411617       0.12706504184240380     
 p           4   1.0000000000000000     
   5.8263656140800002       0.73716451545209605     
   1.5106896018720002       0.68216371614850257     
  0.53256483288000001       0.35783053929253711     
  0.21202323690600003        5.3983030275847881E-002

[MO]
Sym=     1a
Ene=  -0.77139503051258762     
Spin= Alpha
Occup=     2.00000000
           1 -0.32713745277286138     
           2 -0.22040621854313847     
           3  -1.3135253403629473E-002
           4  -4.8580383718492270E-002
           5 -0.33062809171236451     
           6   2.5100859857942109E-002
           7  0.16919942324611228     
           8   1.3983689987865757E-002
           9 -0.17697570253162090     
          10  0.11457303410802135     
          11   5.6756089460853433E-003
          12  -3.9128557301091049E-003
          13 -0.33062699343446811     
          14   4.2062467451541234E-002
          15 -0.16415524266072851     
          16   2.7160115728141514E-002
          17  -2.0121879240863460E-002
          18   2.0294259896644944E-002
          19   8.7213609521883447E-004
          20  -4.0550280518081632E-003
Sym=     2a
Ene=  -0.69301485213832248     
Spin= Alpha
Occup=     2.00000000
           1 -0.28295239785384196     
           2  -3.6762366313130949E-002
           3  -3.6255682450423007E-003
           4  -4.4382874498923357E-002
           5   3.2158236645611273E-002
           6  0.22658793018797982     
           7   5.5938823463808343E-003
           8  -6.0721447176566527E-003
           9  0.48900875408176769     
          10   8.0804714200871416E-002
          11   2.6900855640008868E-003
          12  -3.5899460444904850E-002
          13   3.2156337065654489E-002
          14  0.22600764263810866     
          15   1.6937056419291111E-002
          16  -6.5203898493375627E-003
          17  0.37866496449421172     
          18 -0.13952604799923801     
          19  -5.4636711746408875E-003
          20   4.1311471510304232E-002
Sym=     3a
Ene=  -0.64538254433707543     
Spin= Alpha
Occup=     2.00000000
           1  0.38956212213593877     
           2  -2.1680445866207293E-002
           3  -1.1616247817537748E-003
           4   5.4609294009246359E-004
           5 -0.10581383800336418     
           6 -0.23931767659744507     
           7   6.5235615166673875E-003
           8  -5.6650928836306125E-002
           9  -2.3516639012557249E-003
          10  0.36338759814511062     
          11   1.3758012868146475E-002
          12 -0.11860572033784213     
          13 -0.10563303419354336     
          14 -0.23721766586200158     
          15  -3.5231057740937419E-002
          16  -5.5014795588116942E-002
          17  0.48214385280397687     
          18  -6.6232181176936480E-002
          19  -2.5499936062990595E-003
          20   2.0891683647030479E-002
Sym=     4a
Ene=  -0.64289975460627302     
Spin= Alpha
Occup=     2.00000000
           1   7.4639635508713784E-005
           2  -2.3075930821472003E-002
           3  0.45342900320555951     
           4  -1.7924768324113424E-002
           5  0.47529122625412473     
           6 -0.10024545041625317     
           7  0.11884893260054881     
           8  -4.5708217644552275E-002
           9   2.3147811123969200E-006
          10  -9.7083351442194266E-003
          11  0.19211963327070439     
          12  -7.6172935953194177E-003
          13 -0.47533280334408112     
          14   8.7412019111229838E-002
          15  0.13160693065436041     
          16   3.5783823084728494E-002
          17   8.9522783293651323E-005
          18  -2.0974984661020130E-003
          19   4.0998783392267112E-002
          20  -1.6172501788849635E-003
Sym=     5a
Ene=  -0.59672369550889293     
Spin= Alpha
Occup=     2.00000000
           1  -5.0455797179549899E-002
           2  -8.4516063715222120E-002
           3   1.6159428653619065E-002
           4  0.51749598617419690     
           5   4.6738343039153800E-002
           6  -5.0704824118934164E-002
           7  -9.8298686219270934E-003
           8  0.41420014781321574     
           9   2.0233707536821539E-002
          10   9.9151920540677854E-002
          11   1.4424763993220993E-002
          12  0.23736949249086867     
          13   4.6735191367685933E-002
          14  -5.3092901865240807E-002
          15   3.7220497818672073E-002
          16  0.41233710054470174     
          17   9.0819871202295760E-002
          18   1.8709744190328535E-002
          19   3.9824533191629230E-003
          20   7.6678113170277215E-002
Sym=     6a
Ene=  -0.57405786691185956     
Spin= Alpha
Occup=     2.00000000
           1  -1.1993090763791362E-005
           2  -1.8192759115124257E-002
           3  0.35767642274640854     
           4  -1.4141946540036912E-002
           5 -0.13822443696596265     
           6 -0.36287445377180227     
           7  -9.1449952188292674E-002
           8  -1.9583568211237089E-002
           9  -7.3336648148199442E-006
          10   2.4050845298868886E-002
          11 -0.47281603928680160     
          12   1.8688911191531085E-002
          13  0.13822526651165518     
          14  0.37020145434840762     
          15  -5.2368728583791532E-002
          16   2.5264609878068219E-002
          17  -3.2468498784405612E-006
          18   9.1410577988367096E-003
          19 -0.17970693949616140     
          20   7.1032616468139544E-003
Sym=     7a
Ene=  -0.50232966048885219     
Spin= Alpha
Occup=     2.00000000
           1 -0.55685142215431116     
           2  0.53383393741510698     
           3   3.4383990885024265E-002
           4  0.18278478150149194     
           5  0.10134558357772480     
           6  -9.4573774169215724E-002
           7  -1.3772636810418494E-002
           8  -1.8742123582162894E-002
           9 -0.26846916489807759     
          10   2.8714902875391552E-003
          11  -9.7698992611553511E-003
          12 -0.25101495901308118     
          13  0.10134130090557464     
          14  -9.5411994158798641E-002
          15   2.6020262631466602E-003
          16  -1.9386576249148801E-002
          17  0.33374541878237940     
          18  0.18377774899072927     
          19   5.9738672718457524E-004
          20 -0.22146780792310330     
Sym=     8a
Ene=  -0.48504401927339524     
Spin= Alpha
Occup=     2.00000000
           1  -4.6391356231626497E-002
           2  0.14974420187147636     
           3   7.8301540188681559E-003
           4   5.4385936651652894E-003
           5 -0.45200724494722083     
           6   4.1021941992442204E-002
           7 -0.53007972488316801     
           8   1.9852183951837927E-002
           9   2.7981369849524811E-002
          10   1.1955333306358621E-002
          11   2.4679940186740344E-003
          12   4.7057579566090191E-002
          13 -0.45201728332294983     
          14  -1.2996306887932888E-002
          15  0.53142080955320614     
          16  -2.2109580119317167E-002
          17  -4.0371692443736978E-002
          18  -6.5479826609959706E-003
          19   1.3870993059510238E-003
          20   4.3460607237837692E-002
Sym=     9a
Ene=  -0.47291329397921739     
Spin= Alpha
Occup=     2.00000000
           1 -0.11106064787424395     
           2  0.27560625947157996     
           3  -2.0402264990164415E-003
           4 -0.40634695016767736     
           5   6.7905219902911373E-002
           6  -2.5384883365488425E-002
           7   3.1970626371572441E-002
           8  -2.4525968815092190E-002
           9  -7.6576793230373169E-002
          10  0.13535900887450689     
          11   2.8233812145105647E-002
          12  0.54002037806302661     
          13   6.7901024346978395E-002
          14  -2.1916372310608633E-002
          15  -3.6206762361874444E-002
          16  -2.1843684146662951E-002
          17  0.17609268509940648     
          18  0.30404092039620423     
          19   3.2458485071751232E-002
          20  0.42988065848446350     
Sym=    10a
Ene=  -0.44955169446513449     
Spin= Alpha
Occup=     1.99999978
           1 -0.24044762240446918     
           2  0.36305313607635614     
           3   2.1831930320073988E-002
           4   8.4837110999191959E-002
           5   1.5632671695936230E-002
           6 -0.17266867917404052     
           7   6.7886184069328712E-002
           8  -5.5076494248537944E-002
           9  0.11719787499621964     
          10  0.27138099061376586     
          11   1.3352477176729849E-002
          12  -1.1675959437715334E-002
          13   1.5644809707438704E-002
          14 -0.16466988485425357     
          15  -8.9167495265948457E-002
          16  -4.8859367115947655E-002
          17 -0.51106227664173887     
          18 -0.54429686073609684     
          19  -1.7007412973501466E-002
          20  0.26967608358735118     
Sym=    11a
Ene=  -0.42044568905285784     
Spin= Alpha
Occup=     1.00000022
           1   5.7486362244095968E-006
           2  -1.3984554474759200E-002
           3  0.27469899960170735     
           4  -1.0863220918863756E-002
           5 -0.26215202321404857     
           6  -6.4949023313078919E-002
           7 -0.28751928602750521     
           8 -0.35413973052695186     
           9  -2.1533224439724161E-007
          10  -1.3131671611037787E-002
          11  0.25805382957125833     
          12  -1.0197585045962656E-002
          13  0.26215077494714667     
          14   9.2345791257162843E-002
          15 -0.25066697743773808     
          16  0.37541841548923738     
          17   8.8239251323293506E-006
          18  -2.9042594141362826E-002
          19  0.57132558708630632     
          20  -2.2586596495771851E-002
Sym=    12a
Ene=  -0.37565212216161886     
Spin= Alpha
Occup=     0.00000000
           1   2.3683330379978295E-006
           2  -3.1527617223810656E-003
           3   6.1922998056435113E-002
           4  -2.4582725505621346E-003
           5  -4.1085022903579058E-002
           6 -0.16432227209065700     
           7  -4.1470657905031912E-002
           8  0.61685193420957163     
           9  -1.7096648993009616E-006
          10  -1.5944146539110459E-003
          11   3.1364925143270363E-002
          12  -1.2388573935820046E-003
          13   4.1089492868653363E-002
          14  0.17015522142877901     
          15  -7.3034700778937617E-002
          16 -0.61231509060156153     
          17  -2.1992172093551045E-007
          18  -2.7153654181864297E-002
          19  0.53377886067769187     
          20  -2.1120856672857145E-002
Sym=    13a
Ene=  -0.34320880467012521     
Spin= Alpha
Occup=     0.00000000
           1  -2.3843573912576087E-002
           2 -0.15072743321911170     
           3   1.8690955691266792E-002
           4  0.66681908515676103     
           5  -2.9947383402051195E-002
           6   4.6100373850145628E-002
           7   9.5612942816915743E-003
           8 -0.40542369429928771     
           9   3.3081002937667872E-002
          10  -9.7472443268459150E-002
          11  -9.6924220875248684E-003
          12 -0.11975792037851911     
          13  -2.9944500822330741E-002
          14   4.8462925554525325E-002
          15  -3.6735647476279512E-002
          16 -0.40362067179668254     
          17   1.5734569229919546E-002
          18  0.26935919132867847     
          19   3.4775117467998960E-002
          20  0.53287873607916503     
Sym=    14a
Ene=  -0.27976574671210197     
Spin= Alpha
Occup=     0.00000000
           1  -2.3346472666342312E-007
           2   1.9578980881511571E-002
           3 -0.38492822912252889     
           4   1.5211924733325069E-002
           5   6.2892681110329460E-002
           6 -0.17202606579532084     
           7  0.50766614362822216     
           8 -0.23946859968556516     
           9  -8.2966693192353709E-006
          10   2.1584972193835067E-002
          11 -0.42430145076289633     
          12   1.6763895773472388E-002
          13  -6.2882454902715365E-002
          14  0.11873965437791374     
          15  0.53975562234920105     
          16  0.19807212102346403     
          17  -1.5318330310609042E-006
          18  -2.7395022495834417E-002
          19  0.53863296412489203     
          20  -2.1282853875690465E-002
Sym=    15a
Ene=  -0.20911521423551854     
Spin= Alpha
Occup=     0.00000000
           1   1.4477668376920360E-002
           2   6.1097660036068042E-002
           3   1.6323111837547297E-002
           4  0.33439952023363523     
           5  -7.2403628144889334E-002
           6  -2.0402322456440254E-002
           7   5.1583915504212138E-002
           8 -0.36530576067405313     
           9  0.16746534683497932     
          10  0.11641505412778770     
          11   3.6443075752414122E-002
          12  0.77226230938712115     
          13  -7.2400678053349626E-002
          14  -1.3602420438602585E-002
          15  -8.1968969631723523E-002
          16 -0.36000981080452782     
          17  -3.3057986801124165E-003
          18  -8.9937998303660366E-002
          19  -2.9937573372151027E-002
          20 -0.64173478497236258     
Sym=    16a
Ene=    7.9665074209449432E-002
Spin= Alpha
Occup=     0.00000000
           1  -2.3951357559528584E-005
           2  -3.3117986064039404E-003
           3   6.5033954780355702E-002
           4  -2.5807433252329048E-003
           5  0.48408361663894944     
           6  0.49692223139025299     
           7 -0.43153589790070623     
           8  -1.5138415570729509E-002
           9   7.3248106487700901E-005
          10   4.3808431238427710E-002
          11 -0.86217609215181013     
          12   3.4081700241346477E-002
          13 -0.48412668245946766     
          14 -0.45079800996809871     
          15 -0.47717946683142570     
          16   5.1067679551713534E-002
          17  -1.9846015433328990E-006
          18  -1.7613254197793155E-002
          19  0.34664607232502581     
          20  -1.3703628701437221E-002
Sym=    17a
Ene=   0.13278370075900664     
Spin= Alpha
Occup=     0.00000000
           1  -8.7765975089084153E-002
           2  0.13462632005460232     
           3   3.6124005752078588E-003
           4  -8.2048969781440426E-002
           5 -0.31622066244213703     
           6 -0.50961312841433026     
           7  0.20330641929373461     
           8   9.8258058724457115E-002
           9   1.0813638528698011     
          10 -0.41372565192279870     
          11  -2.5168575143868787E-002
          12 -0.10569403755452901     
          13 -0.31611504996417833     
          14 -0.48670555666569132     
          15 -0.24543730348102730     
          16  0.11598455575054026     
          17 -0.20071334404026328     
          18  0.46431528221378293     
          19   2.1159639182349449E-002
          20  -6.1580961183738625E-002
Sym=    18a
Ene=   0.18456683478114855     
Spin= Alpha
Occup=     0.00000000
           1  -5.4163706886055488E-006
           2  -4.4179283136934575E-002
           3  0.86813751953664431     
           4  -3.4315808515583746E-002
           5 -0.48831736969930312     
           6  0.55086648256748527     
           7  0.49625907976557243     
           8   8.9472080991787564E-002
           9  -1.9516259368075395E-005
          10   1.0826504556723991E-002
          11 -0.21275108417877403     
          12   8.4114760945323084E-003
          13  0.48833210072276190     
          14 -0.59795316484982197     
          15  0.42929662066322744     
          16 -0.12606217417463353     
          17   5.1365416041945631E-006
          18  -2.9175892501679722E-003
          19   5.7171827261852125E-002
          20  -2.2578762712859406E-003
Sym=    19a
Ene=   0.27673353615437429     
Spin= Alpha
Occup=     0.00000000
           1 -0.88066854153052765     
           2 -0.84080774238150890     
           3  -5.0721149435269973E-002
           4 -0.20069373941393995     
           5  0.38117803629494779     
           6 -0.52269984115018653     
           7 -0.37059949244189200     
           8 -0.13698413527248768     
           9  -5.6043211111361457E-002
          10 -0.11725104912384553     
          11  -3.9002318837133202E-004
          12  0.14036837012501144     
          13  0.38119431355652417     
          14 -0.55698214386432110     
          15  0.30379287263245991     
          16 -0.16364067010226982     
          17  0.13218017425176645     
          18 -0.17438591743206192     
          19  -8.1104850250018328E-003
          20   1.9432161125718612E-002
Sym=    20a
Ene=   0.75152776032131974     
Spin= Alpha
Occup=     0.00000000
           1  0.12852524837677731     
           2  0.18543826871627458     
           3   1.0864367140066750E-002
           4   3.6255233185503902E-002
           5 -0.32255171633027585     
           6 -0.16376309415131499     
           7  0.22045778750376166     
           8   9.5567401174016155E-003
           9 -0.40002206529172146     
          10  -1.2491225234143446     
          11  -5.1358318500915066E-002
          12  0.30771552455271250     
          13 -0.32251844713940930     
          14 -0.14058216906134802     
          15 -0.23445823664319745     
          16   2.7537529706098508E-002
          17  0.81427576388690681     
          18 -0.85229641319886973     
          19  -3.1579177453072642E-002
          20  0.29777207542753481     
