5
 energy: -10.956586945081 gnorm: 0.264219574081 xtb: 6.2.2 (9d81278992624c895f80dd42a50cac0aa55982e2)
N        -1.36787000000000   -0.09186000000000   -0.56265100000000
C        -0.54621000000000    0.71846200000000    0.34946000000000
C         0.80355800000000    0.06283000000000    0.55430200000000
C        -0.47193300000000   -0.74034000000000    0.40711500000000
C         1.58245500000000    0.05090800000000   -0.74822600000000
5
 energy: -11.030664226065 gnorm: 0.165518824809 xtb: 6.2.2 (9d81278992624c895f80dd42a50cac0aa55982e2)
N        -1.41783600700647   -0.08891150412395   -0.42374610471154
C        -0.52267290007228    0.74634141920124    0.26265326724614
C         0.77947022650195    0.05817308562277    0.46768657071399
C        -0.44535175784350   -0.77243910265042    0.32267771932744
C         1.60639043842030    0.05683610195036   -0.62927145257603
5
 energy: -11.033609770390 gnorm: 0.266732171251 xtb: 6.2.2 (9d81278992624c895f80dd42a50cac0aa55982e2)
N        -1.28071531092171   -0.07838909712825   -0.33412773702245
C        -0.54517099741022    0.78031803880519    0.24609089092442
C         0.73222421473719    0.04976052790274    0.31579556209946
C        -0.46422838583308   -0.80972248349213    0.30893044269127
C         1.55789047942782    0.05803301391246   -0.53668915869271
5
 energy: -11.065589170919 gnorm: 0.064716448572 xtb: 6.2.2 (9d81278992624c895f80dd42a50cac0aa55982e2)
N        -1.41037131847601   -0.08288094543339   -0.28093672244691
C        -0.55954627688164    0.78894886301567    0.23013330907362
C         0.71303699755681    0.04821131238497    0.30103164221712
C        -0.47758411552175   -0.82099904844663    0.29374339191749
C         1.73446471332259    0.06671981847938   -0.54397162076133
5
 energy: -11.070341639403 gnorm: 0.057609014153 xtb: 6.2.2 (9d81278992624c895f80dd42a50cac0aa55982e2)
N        -1.49269826016118   -0.08441227746116   -0.21374017918823
C        -0.55557289046114    0.79898525252450    0.19183067857071
C         0.71630140864126    0.04639179792469    0.25081761946335
C        -0.47246512770792   -0.83356902150075    0.25633249746459
C         1.80443486968898    0.07260424851271   -0.48524061631043
5
 energy: -11.073249920467 gnorm: 0.045185900711 xtb: 6.2.2 (9d81278992624c895f80dd42a50cac0aa55982e2)
N        -1.50440283743420   -0.08322746766232   -0.16876772297633
C        -0.57055276830222    0.80454774346153    0.18464538460674
C         0.70407932731790    0.04310104918681    0.18326137040568
C        -0.48677694282811   -0.84117359501511    0.24966432702881
C         1.85765322124664    0.07675227002908   -0.44880335906490
5
 energy: -11.074967937669 gnorm: 0.022803346030 xtb: 6.2.2 (9d81278992624c895f80dd42a50cac0aa55982e2)
N        -1.50578599726056   -0.08224810762279   -0.14221594164732
C        -0.57126384066949    0.80427653520055    0.17473934403955
C         0.70378676889375    0.04131863106465    0.13870038414307
C        -0.48748684329542   -0.84176005188212    0.23978164315100
C         1.86074991233172    0.07841299323971   -0.41100542968630
5
 energy: -11.075817119434 gnorm: 0.019041632839 xtb: 6.2.2 (9d81278992624c895f80dd42a50cac0aa55982e2)
N        -1.53902945326168   -0.08209559310738   -0.09558303224520
C        -0.57472478502865    0.80295513938883    0.15848647096734
C         0.69494043901405    0.03863191139665    0.08225286266662
C        -0.49101065605621   -0.84208275568153    0.22349624380264
C         1.90982445533248    0.08259129800342   -0.36865254519140
5
 energy: -11.076081657718 gnorm: 0.010604990180 xtb: 6.2.2 (9d81278992624c895f80dd42a50cac0aa55982e2)
N        -1.54322912487091   -0.08194660953624   -0.08642765929507
C        -0.57317314270030    0.79821108886035    0.15455258617147
C         0.69329230658487    0.03804825524497    0.06963685613060
C        -0.48993460612817   -0.83753189186302    0.21919756159541
C         1.91304456711450    0.08321915729393   -0.35695934460241
5
 energy: -11.076199205418 gnorm: 0.001882378937 xtb: 6.2.2 (9d81278992624c895f80dd42a50cac0aa55982e2)
N        -1.54851790923895   -0.08180773771521   -0.07615504367581
C        -0.57234313121916    0.79196437061700    0.15043932298141
C         0.69248903216959    0.03743644560392    0.05520507895489
C        -0.48972641117953   -0.83157919256694    0.21460504941770
C         1.91809841946805    0.08398611406124   -0.34409440767818
5
 energy: -11.076203988829 gnorm: 0.001354382356 xtb: 6.2.2 (9d81278992624c895f80dd42a50cac0aa55982e2)
N        -1.55167429001049   -0.08180426064911   -0.07198235044755
C        -0.57274416991364    0.79052280695395    0.14850173242703
C         0.69327956356364    0.03729988456853    0.05086656849000
C        -0.49026909778299   -0.83034136649402    0.21256852640641
C         1.92140799414348    0.08432293562065   -0.33995447687590
5
 energy: -11.076205226027 gnorm: 0.000860311228 xtb: 6.2.2 (9d81278992624c895f80dd42a50cac0aa55982e2)
N        -1.55091050255805   -0.08179704771160   -0.07281995105598
C        -0.57302476097117    0.79051564048682    0.14864709708032
C         0.69398247377764    0.03740972493004    0.05270803088448
C        -0.49054618690202   -0.83035249002431    0.21271372051504
C         1.92049897665360    0.08422417231905   -0.34124889742387
