      -----------------------------------------------------------      
     |                   =====================                   |     
     |                           x T B                           |     
     |                   =====================                   |     
     |                         S. Grimme                         |     
     |          Mulliken Center for Theoretical Chemistry        |     
     |                    University of Bonn                     |     
      -----------------------------------------------------------      

   * xtb version 6.2.2 (9d81278992624c895f80dd42a50cac0aa55982e2) compiled by '@Darwin' on 04/03/2020

   xtb is free software: you can redistribute it and/or modify it under
   the terms of the GNU Lesser General Public License as published by
   the Free Software Foundation, either version 3 of the License, or
   (at your option) any later version.
   
   xtb is distributed in the hope that it will be useful,
   but WITHOUT ANY WARRANTY; without even the implied warranty of
   MERCHANTABILITY or FITNESS FOR A PARTICULAR PURPOSE.  See the
   GNU Lesser General Public License for more details.
   
   Cite this work as:
   * S. Grimme, C. Bannwarth, P. Shushkov, J. Chem. Theory Comput., 2017,
     13, 1989-2009. DOI: 10.1021/acs.jctc.7b00118
   * C. Bannwarth, S. Ehlert and S. Grimme., J. Chem. Theory Comput., 2019,
     15, 1652-1671. DOI: 10.1021/acs.jctc.8b01176
   * P. Pracht, E. Caldeweyher, S. Ehlert, S. Grimme, ChemRxiv, 2019, preprint.
     DOI: 10.26434/chemrxiv.8326202.v1
   
   for DFT-D4:
   * E. Caldeweyher, C. Bannwarth and S. Grimme, J. Chem. Phys., 2017,
     147, 034112. DOI: 10.1063/1.4993215
   * E. Caldeweyher, S. Ehlert, A. Hansen, H. Neugebauer, S. Spicher,
     C. Bannwarth and S. Grimme, J. Chem. Phys., 2019, 150, 154122.
     DOI: 10.1063/1.5090222
   
   for sTDA-xTB:
   * S. Grimme and C. Bannwarth, J. Chem. Phys., 2016, 145, 054103.
     DOI: 10.1063/1.4959605
   
   in the mass-spec context:
   * V. Asgeirsson, C. Bauer and S. Grimme, Chem. Sci., 2017, 8, 4879.
     DOI: 10.1039/c7sc00601b
   
   for metadynamics refer to:
   * S. Grimme, J. Chem. Theory Comput., 2019, 155, 2847-2862
     DOI: 10.1021/acs.jctc.9b00143
   
   with help from (in alphabetical order)
   C. Bannwarth, F. Bohle, G. Brandenburg, E. Caldeweyher, M. Checinski,
   S. Dohm, S. Ehlert, S. Ehrlich, F. März, H. Neugebauer, J. Pisarek,
   P. Pracht, P. Shushkov, and S. Spicher.
   
 * started run on 2020/05/12 at 11:44:59.130     

           -------------------------------------------------
          |                Calculation Setup                |
           -------------------------------------------------

          program call               : xtb --input H1C3N1_22_S_2.input H1C3N1_22_S_2.xyz --ohess --molden --namespace H1C3N1_22_S_2 output.out
          calculation namespace      : H1C3N1_22_S_2
          coordinate file            : H1C3N1_22_S_2.xyz
          number of atoms            :                     5
          number of electrons        :                    18
          charge                     :                     0
          spin                       :                   1.0
          first test random number   :      0.13027021220588

   ID    Z sym.   atoms
    1    7 N      1
    2    6 C      2-4
    3    1 H      5

           -------------------------------------------------
          |                 G F N 2 - x T B                 |
           -------------------------------------------------

        Reference                      10.1021/acs.jctc.8b01176
      * Hamiltonian:
        H0-scaling (s, p, d)           1.850000    2.230000    2.230000
        zeta-weighting                 0.500000
      * Dispersion:
        s8                             2.700000
        a1                             0.520000
        a2                             5.000000
        s9                             5.000000
      * Repulsion:
        kExp                           1.500000    1.000000
        rExp                           1.000000
      * Coulomb:
        alpha                          2.000000
        third order                    shell-resolved
        anisotropic                    true
        a3                             3.000000
        a5                             4.000000
        cn-shift                       1.200000
        cn-exp                         4.000000
        max-rad                        5.000000


          ...................................................
          :                      SETUP                      :
          :.................................................:
          :  # basis functions                  17          :
          :  # atomic orbitals                  17          :
          :  # shells                            9          :
          :  # electrons                        18          :
          :  max. iterations                   250          :
          :  Hamiltonian                  GFN2-xTB          :
          :  restarted?                      false          :
          :  GBSA solvation                  false          :
          :  PC potential                    false          :
          :  electronic temp.          300.0000000     K    :
          :  accuracy                    1.0000000          :
          :  -> integral cutoff          0.2500000E+02      :
          :  -> integral neglect         0.1000000E-07      :
          :  -> SCF convergence          0.1000000E-05 Eh   :
          :  -> wf. convergence          0.1000000E-03 e    :
          :  Broyden damping             0.4000000          :
          ...................................................

 iter      E             dE          RMSdq      gap      omega  full diag
   1     -9.1916608 -0.919166E+01  0.893E+00    0.63       0.0  T
   2     -8.3972377  0.794423E+00  0.127E+01    0.33       1.0  T
   3     -9.4576267 -0.106039E+01  0.434E+00    0.81       1.0  T
   4     -9.3989836  0.586431E-01  0.412E+00    0.42       1.0  T
   5     -9.3129943  0.859893E-01  0.457E+00    0.64       1.0  T
   6     -9.4775642 -0.164570E+00  0.720E-01    0.67       1.0  T
   7     -9.4766811  0.883119E-03  0.763E-01    0.68       1.0  T
   8     -9.4791947 -0.251361E-02  0.329E-01    0.66       1.0  T
   9     -9.4798242 -0.629436E-03  0.886E-02    0.66       1.0  T
  10     -9.4798274 -0.322713E-05  0.596E-02    0.66       1.0  T
  11     -9.4798339 -0.652115E-05  0.204E-02    0.66       2.2  T
  12     -9.4798363 -0.235337E-05  0.608E-03    0.66       7.4  T
  13     -9.4798365 -0.208371E-06  0.246E-03    0.66      18.2  T
  14     -9.4798365 -0.313696E-07  0.261E-04    0.66     171.3  T
  15     -9.4798365 -0.364484E-09  0.124E-04    0.66     361.2  T

   *** convergence criteria satisfied after 15 iterations ***

         #    Occupation            Energy/Eh            Energy/eV
      -------------------------------------------------------------
         1        2.0000           -0.7099441             -19.3186
       ...           ...                  ...                  ...
         4        2.0000           -0.5661826             -15.4066
         5        2.0000           -0.5192569             -14.1297
         6        2.0000           -0.4973649             -13.5340
         7        2.0000           -0.4813386             -13.0979
         8        2.0000           -0.4585240             -12.4771
         9        1.0000           -0.4260068             -11.5922
        10        1.0000           -0.4018624             -10.9352 (HOMO)
        11        0.0000           -0.3776233             -10.2757 (LUMO)
        12                         -0.3422135              -9.3121
        13                         -0.1179992              -3.2109
        14                          0.0444708               1.2101
        15                          0.1184689               3.2237
       ...                                ...                  ...
        17                          0.1426499               3.8817
      -------------------------------------------------------------
                  HL-Gap            0.0242391 Eh            0.6596 eV
             Fermi-level           -0.4160041 Eh          -11.3200 eV

 transition dipole moment (au) for excitation:           9          10
     X       Y       Z   
  -0.2656   0.1580   0.1268  total (au/Debye):    0.334   0.849
 dE (eV)             :    0.657
 oscillator strength :  0.25404E-02

 SCC (total)                   0 d,  0 h,  0 min,  0.004 sec
 SCC setup                      ...        0 min,  0.000 sec (  1.710%)
 Dispersion                     ...        0 min,  0.000 sec (  0.376%)
 integral evaluation            ...        0 min,  0.001 sec ( 22.928%)
 zeroth order Hamiltonian       ...        0 min,  0.000 sec (  0.376%)
 iterations                     ...        0 min,  0.001 sec ( 33.161%)
 molecular gradient             ...        0 min,  0.001 sec ( 23.354%)
 printout                       ...        0 min,  0.001 sec ( 17.803%)

         :::::::::::::::::::::::::::::::::::::::::::::::::::::
         ::                     SUMMARY                     ::
         :::::::::::::::::::::::::::::::::::::::::::::::::::::
         :: total energy              -9.410717303765 Eh    ::
         :: gradient norm              0.263390260871 Eh/a0 ::
         :: HOMO-LUMO gap              0.659578708417 eV    ::
         ::.................................................::
         :: SCC energy                -9.479836516718 Eh    ::
         :: -> isotropic ES           -0.000506360279 Eh    ::
         :: -> anisotropic ES         -0.000842863621 Eh    ::
         :: -> anisotropic XC          0.012106901726 Eh    ::
         :: -> dispersion             -0.002099571671 Eh    ::
         :: repulsion energy           0.069119153491 Eh    ::
         :: add. restraining           0.000000000000 Eh    ::
         :::::::::::::::::::::::::::::::::::::::::::::::::::::

      ----------------------------------------------------------- 
     |                   =====================                   |
     |                        A N C O P T                        |
     |                   =====================                   |
     |               Approximate Normal Coordinate               |
     |                Rational Function Optimizer                |
      ----------------------------------------------------------- 

          ...................................................
          :                      SETUP                      :
          :.................................................:
          :   optimization level            normal          :
          :   max. optcycles                   200          :
          :   ANC micro-cycles                  20          :
          :   degrees of freedom                 9          :
          :.................................................:
          :   RF solver                   davidson          :
          :   write xtbopt.log                true          :
          :   linear?                        false          :
          :   energy convergence         0.5000000E-05 Eh   :
          :   grad. convergence          0.1000000E-02 Eh/α :
          :   maximium RF displ.         1.0000000          :
          :   Hlow (freq-cutoff)         0.1000000E-01      :
          :   Hmax (freq-cutoff)         5.0000000          :
          :   S6 in model hess.         20.0000000          :
          ...................................................

generating ANC from model Hessian ...
Using Lindh-Hessian (1995)
 Shifting diagonal of input Hessian by    0.0000000000000000     
 Lowest  eigenvalues of input Hessian
   -0.000000   -0.000000   -0.000000    0.000000    0.000000    0.000000
    0.029143    0.057220    0.110834    0.147050    0.631564    0.656626
    0.827305    1.015330    1.354227
 Highest eigenvalues
    0.147050    0.631564    0.656626    0.827305    1.015330    1.354227


........................................................................
.............................. CYCLE    1 ..............................
........................................................................
   1     -9.4798365 -0.947984E+01  0.189E-05    0.66       0.0  T
   2     -9.4798365  0.242810E-10  0.573E-05    0.66     780.1  T
   3     -9.4798365 -0.265494E-10  0.744E-06    0.66    6012.6  T
     SCC iter.                  ...        0 min,  0.000 sec
     gradient                   ...        0 min,  0.001 sec
 * total energy  :    -9.4107173 Eh     change       -0.5498677E-09 Eh
   gradient norm :     0.2633901 Eh/α   predicted     0.0000000E+00 (-100.00%)
   displ. norm   :     0.3849922 α      lambda       -0.8121974E-01
   maximum displ.:     0.2487938 α      in ANC's #3, #8, #7, ...

........................................................................
.............................. CYCLE    2 ..............................
........................................................................
   1     -9.5827220 -0.958272E+01  0.180E+00    1.01       0.0  T
   2     -9.5779272  0.479482E-02  0.144E+00    0.92       1.0  T
   3     -9.5791880 -0.126076E-02  0.120E+00    1.05       1.0  T
   4     -9.5832215 -0.403354E-02  0.546E-01    0.96       1.0  T
   5     -9.5850688 -0.184724E-02  0.248E-01    1.00       1.0  T
   6     -9.5855070 -0.438187E-03  0.101E-01    0.99       1.0  T
   7     -9.5855549 -0.479276E-04  0.232E-02    0.99       1.9  T
   8     -9.5855563 -0.143590E-05  0.637E-03    0.99       7.0  T
   9     -9.5855564 -0.724401E-07  0.191E-03    0.99      23.5  T
  10     -9.5855564 -0.128692E-07  0.319E-04    0.99     140.3  T
  11     -9.5855564 -0.433200E-09  0.128E-04    0.99     350.6  T
     SCC iter.                  ...        0 min,  0.001 sec
     gradient                   ...        0 min,  0.001 sec
 * total energy  :    -9.4783309 Eh     change       -0.6761359E-01 Eh
   gradient norm :     0.1620889 Eh/α   predicted    -0.4662903E-01 ( -31.04%)
   displ. norm   :     0.4944838 α      lambda       -0.6703241E-01
   maximum displ.:     0.2886498 α      in ANC's #3, #8, #7, ...

........................................................................
.............................. CYCLE    3 ..............................
........................................................................
   1     -9.7025646 -0.970256E+01  0.227E+00    1.06       0.0  T
   2     -9.7024163  0.148300E-03  0.135E+00    1.03       1.0  T
   3     -9.6946675  0.774881E-02  0.133E+00    1.19       1.0  T
   4     -9.7023812 -0.771377E-02  0.473E-01    1.04       1.0  T
   5     -9.7034193 -0.103805E-02  0.255E-01    1.09       1.0  T
   6     -9.7038213 -0.401998E-03  0.117E-01    1.07       1.0  T
   7     -9.7038913 -0.700426E-04  0.227E-02    1.08       2.0  T
   8     -9.7038919 -0.587934E-06  0.107E-02    1.08       4.2  T
   9     -9.7038924 -0.497511E-06  0.201E-03    1.08      22.2  T
  10     -9.7038924 -0.151478E-07  0.601E-04    1.08      74.4  T
  11     -9.7038924 -0.154521E-08  0.110E-04    1.08     406.4  T
     SCC iter.                  ...        0 min,  0.001 sec
     gradient                   ...        0 min,  0.001 sec
 * total energy  :    -9.5032158 Eh     change       -0.2488486E-01 Eh
   gradient norm :     0.2252000 Eh/α   predicted    -0.4171140E-01 (  67.62%)
   displ. norm   :     0.5258792 α      lambda       -0.5197927E-01
   maximum displ.:     0.3403310 α      in ANC's #1, #3, #4, ...

........................................................................
.............................. CYCLE    4 ..............................
........................................................................
   1     -9.6526256 -0.965263E+01  0.210E+00    1.65       0.0  T
   2     -9.5723453  0.802804E-01  0.350E+00    1.05       1.0  T
   3     -9.6484384 -0.760931E-01  0.154E+00    1.63       1.0  T
   4     -9.6582725 -0.983414E-02  0.115E+00    1.50       1.0  T
   5     -9.6617504 -0.347783E-02  0.480E-01    1.47       1.0  T
   6     -9.6617022  0.481250E-04  0.426E-01    1.49       1.0  T
   7     -9.6622208 -0.518596E-03  0.509E-02    1.49       1.0  T
   8     -9.6622257 -0.491000E-05  0.367E-02    1.48       1.2  T
   9     -9.6622299 -0.411737E-05  0.923E-03    1.48       4.8  T
  10     -9.6622299 -0.785027E-07  0.520E-03    1.48       8.6  T
  11     -9.6622299 -0.112262E-07  0.992E-04    1.48      45.1  T
  12     -9.6622299 -0.371875E-08  0.777E-04    1.48      57.6  T
     SCC iter.                  ...        0 min,  0.001 sec
     gradient                   ...        0 min,  0.001 sec
 * total energy  :    -9.5254770 Eh     change       -0.2226124E-01 Eh
   gradient norm :     0.0829277 Eh/α   predicted    -0.3317704E-01 (  49.03%)
   displ. norm   :     0.1774588 α      lambda       -0.6626793E-02
   maximum displ.:     0.1319429 α      in ANC's #1, #7, #3, ...

........................................................................
.............................. CYCLE    5 ..............................
........................................................................
   1     -9.6759897 -0.967599E+01  0.518E-01    1.59       0.0  T
   2     -9.6754947  0.494948E-03  0.382E-01    1.56       1.0  T
   3     -9.6701193  0.537538E-02  0.103E+00    1.67       1.0  T
   4     -9.6758828 -0.576343E-02  0.217E-01    1.61       1.0  T
   5     -9.6760870 -0.204222E-03  0.684E-02    1.58       1.0  T
   6     -9.6761101 -0.230475E-04  0.212E-02    1.59       2.1  T
   7     -9.6761093  0.783461E-06  0.199E-02    1.59       2.2  T
   8     -9.6761109 -0.164623E-05  0.629E-03    1.59       7.1  T
   9     -9.6761110 -0.131393E-06  0.278E-03    1.59      16.1  T
  10     -9.6761111 -0.365266E-07  0.515E-04    1.59      86.8  T
  11     -9.6761111 -0.105849E-08  0.193E-04    1.59     231.9  T
     SCC iter.                  ...        0 min,  0.001 sec
     gradient                   ...        0 min,  0.001 sec
 * total energy  :    -9.5309422 Eh     change       -0.5465182E-02 Eh
   gradient norm :     0.0619266 Eh/α   predicted    -0.3417742E-02 ( -37.46%)
   displ. norm   :     0.2914665 α      lambda       -0.1297825E-01
   maximum displ.:     0.2297789 α      in ANC's #7, #3, #5, ...

........................................................................
.............................. CYCLE    6 ..............................
........................................................................
   1     -9.7055971 -0.970560E+01  0.115E+00    1.63       0.0  T
   2     -9.6998037  0.579334E-02  0.131E+00    1.69       1.0  T
   3     -9.6859281  0.138756E-01  0.176E+00    1.54       1.0  T
   4     -9.7023119 -0.163838E-01  0.906E-01    1.75       1.0  T
   5     -9.7052838 -0.297188E-02  0.455E-01    1.66       1.0  T
   6     -9.7063311 -0.104724E-02  0.231E-01    1.66       1.0  T
   7     -9.7063528 -0.217160E-04  0.168E-01    1.66       1.0  T
   8     -9.7061910  0.161820E-03  0.200E-01    1.64       1.0  T
   9     -9.7063675 -0.176509E-03  0.827E-02    1.65       1.0  T
  10     -9.7063738 -0.627335E-05  0.111E-02    1.66       4.0  T
  11     -9.7063739 -0.174352E-06  0.721E-03    1.66       6.2  T
  12     -9.7063741 -0.154645E-06  0.132E-03    1.66      33.9  T
  13     -9.7063741 -0.720036E-08  0.617E-04    1.66      72.5  T
  14     -9.7063741 -0.764285E-09  0.136E-04    1.66     328.8  T
     SCC iter.                  ...        0 min,  0.001 sec
     gradient                   ...        0 min,  0.001 sec
 * total energy  :    -9.5365656 Eh     change       -0.5623437E-02 Eh
   gradient norm :     0.0482769 Eh/α   predicted    -0.7040397E-02 (  25.20%)
   displ. norm   :     0.4239952 α      lambda       -0.7631290E-02
   maximum displ.:     0.3539862 α      in ANC's #1, #7, #3, ...

........................................................................
.............................. CYCLE    7 ..............................
........................................................................
   1     -9.6869977 -0.968700E+01  0.198E+00    1.98       0.0  T
   2     -9.6532019  0.337958E-01  0.295E+00    2.09       1.0  T
   3     -9.6587455 -0.554366E-02  0.246E+00    1.80       1.0  T
   4     -9.6850944 -0.263488E-01  0.103E+00    2.06       1.0  T
   5     -9.6893124 -0.421803E-02  0.703E-01    1.91       1.0  T
   6     -9.6872808  0.203154E-02  0.934E-01    1.92       1.0  T
   7     -9.6869773  0.303588E-03  0.716E-01    1.89       1.0  T
   8     -9.6902063 -0.322900E-02  0.258E-01    1.95       1.0  T
   9     -9.6900448  0.161504E-03  0.336E-01    1.95       1.0  T
  10     -9.6903491 -0.304310E-03  0.351E-02    1.95       1.3  T
  11     -9.6903442  0.484668E-05  0.481E-02    1.95       1.0  T
  12     -9.6903512 -0.698320E-05  0.115E-02    1.95       3.9  T
  13     -9.6903518 -0.613138E-06  0.127E-03    1.95      35.2  T
  14     -9.6903518  0.756251E-08  0.197E-03    1.95      22.7  T
  15     -9.6903518 -0.797158E-08  0.592E-04    1.95      75.5  T
  16     -9.6903518 -0.693561E-09  0.496E-04    1.95      90.2  T
     SCC iter.                  ...        0 min,  0.001 sec
     gradient                   ...        0 min,  0.001 sec
 * total energy  :    -9.5391585 Eh     change       -0.2592924E-02 Eh
   gradient norm :     0.0451191 Eh/α   predicted    -0.4501587E-02 (  73.61%)
   displ. norm   :     0.1156310 α      lambda       -0.2606199E-02
   maximum displ.:     0.0699869 α      in ANC's #3, #2, #1, ...

........................................................................
.............................. CYCLE    8 ..............................
........................................................................
   1     -9.7042938 -0.970429E+01  0.121E+00    1.93       0.0  T
   2     -9.6439288  0.603650E-01  0.288E+00    1.72       1.0  T
   3     -9.6937736 -0.498449E-01  0.161E+00    2.06       1.0  T
   4     -9.7027326 -0.895894E-02  0.780E-01    2.00       1.0  T
   5     -9.7065205 -0.378796E-02  0.599E-01    1.96       1.0  T
   6     -9.7066599 -0.139375E-03  0.491E-01    1.94       1.0  T
   7     -9.7066455  0.144390E-04  0.230E-01    1.94       1.0  T
   8     -9.7067241 -0.786142E-04  0.229E-01    1.91       1.0  T
   9     -9.7068103 -0.861958E-04  0.322E-02    1.91       1.4  T
  10     -9.7068143 -0.405917E-05  0.227E-02    1.91       2.0  T
  11     -9.7068150 -0.686224E-06  0.108E-02    1.91       4.2  T
  12     -9.7068150  0.332102E-07  0.641E-03    1.91       7.0  T
  13     -9.7068150  0.172221E-07  0.123E-02    1.91       3.6  T
  14     -9.7068150 -0.391650E-07  0.974E-03    1.91       4.6  T
  15     -9.7068151 -0.962223E-07  0.128E-03    1.91      34.9  T
  16     -9.7068151  0.160985E-08  0.877E-04    1.91      51.0  T
  17     -9.7068151 -0.303894E-08  0.132E-04    1.91     340.0  T
     SCC iter.                  ...        0 min,  0.001 sec
     gradient                   ...        0 min,  0.001 sec
 * total energy  :    -9.5403671 Eh     change       -0.1208591E-02 Eh
   gradient norm :     0.0192006 Eh/α   predicted    -0.1320522E-02 (   9.26%)
   displ. norm   :     0.0804708 α      lambda       -0.6889467E-03
   maximum displ.:     0.0543040 α      in ANC's #7, #3, #5, ...

........................................................................
.............................. CYCLE    9 ..............................
........................................................................
   1     -9.7062183 -0.970622E+01  0.612E-01    1.90       0.0  T
   2     -9.6988238  0.739455E-02  0.134E+00    1.97       1.0  T
   3     -9.6998918 -0.106799E-02  0.118E+00    1.88       1.0  T
   4     -9.7057661 -0.587432E-02  0.402E-01    1.94       1.0  T
   5     -9.7064982 -0.732087E-03  0.188E-01    1.90       1.0  T
   6     -9.7065815 -0.833259E-04  0.130E-01    1.92       1.0  T
   7     -9.7066114 -0.299296E-04  0.627E-02    1.91       1.0  T
   8     -9.7066285 -0.171068E-04  0.372E-02    1.91       1.2  T
   9     -9.7066308 -0.222833E-05  0.120E-02    1.92       3.7  T
  10     -9.7066312 -0.406689E-06  0.158E-03    1.92      28.3  T
  11     -9.7066311  0.495853E-07  0.466E-03    1.91       9.6  T
  12     -9.7066312 -0.381088E-07  0.243E-03    1.92      18.4  T
  13     -9.7066312 -0.145573E-07  0.227E-04    1.92     197.3  T
  14     -9.7066312 -0.244292E-09  0.102E-04    1.92     440.0  T
     SCC iter.                  ...        0 min,  0.001 sec
     gradient                   ...        0 min,  0.001 sec
 * total energy  :    -9.5408755 Eh     change       -0.5083438E-03 Eh
   gradient norm :     0.0079493 Eh/α   predicted    -0.3467030E-03 ( -31.80%)
   displ. norm   :     0.1945371 α      lambda       -0.8795500E-03
   maximum displ.:     0.1303728 α      in ANC's #7, #1, #3, ...

........................................................................
.............................. CYCLE   10 ..............................
........................................................................
   1     -9.7068648 -0.970686E+01  0.119E+00    2.01       0.0  T
   2     -9.7052765  0.158828E-02  0.827E-01    2.07       1.0  T
   3     -9.6527314  0.525452E-01  0.276E+00    1.83       1.0  T
   4     -9.7031140 -0.503826E-01  0.929E-01    2.06       1.0  T
   5     -9.7067651 -0.365104E-02  0.369E-01    2.08       1.0  T
   6     -9.7075955 -0.830477E-03  0.338E-01    2.03       1.0  T
   7     -9.7075875  0.807071E-05  0.333E-01    2.03       1.0  T
   8     -9.7074889  0.985177E-04  0.221E-01    2.01       1.0  T
   9     -9.7076605 -0.171527E-03  0.161E-01    2.01       1.0  T
  10     -9.7076759 -0.154212E-04  0.782E-02    2.01       1.0  T
  11     -9.7076799 -0.403400E-05  0.148E-02    2.00       3.0  T
  12     -9.7076801 -0.152081E-06  0.113E-02    2.00       4.0  T
  13     -9.7076807 -0.666798E-06  0.943E-03    2.00       4.7  T
  14     -9.7076808 -0.659461E-07  0.230E-03    2.00      19.4  T
  15     -9.7076808 -0.147446E-07  0.766E-04    2.00      58.4  T
  16     -9.7076808 -0.717465E-09  0.216E-04    2.00     207.2  T
     SCC iter.                  ...        0 min,  0.001 sec
     gradient                   ...        0 min,  0.001 sec
 * total energy  :    -9.5412373 Eh     change       -0.3618503E-03 Eh
   gradient norm :     0.0149949 Eh/α   predicted    -0.4564176E-03 (  26.13%)
   displ. norm   :     0.0292733 α      lambda       -0.2671704E-03
   maximum displ.:     0.0176329 α      in ANC's #1, #4, #3, ...

........................................................................
.............................. CYCLE   11 ..............................
........................................................................
   1     -9.7131434 -0.971314E+01  0.459E-01    1.97       0.0  T
   2     -9.6886989  0.244445E-01  0.201E+00    1.90       1.0  T
   3     -9.7073829 -0.186840E-01  0.114E+00    2.04       1.0  T
   4     -9.7098464 -0.246352E-02  0.833E-01    2.03       1.0  T
   5     -9.7132824 -0.343596E-02  0.196E-01    1.99       1.0  T
   6     -9.7133382 -0.558578E-04  0.158E-01    1.99       1.0  T
   7     -9.7133803 -0.420529E-04  0.151E-01    1.98       1.0  T
   8     -9.7134425 -0.622042E-04  0.108E-01    1.98       1.0  T
   9     -9.7134726 -0.301039E-04  0.275E-02    1.98       1.6  T
  10     -9.7134760 -0.341496E-05  0.634E-03    1.97       7.1  T
  11     -9.7134760 -0.201844E-07  0.197E-03    1.97      22.7  T
  12     -9.7134760 -0.202408E-07  0.104E-03    1.97      42.8  T
  13     -9.7134760 -0.425012E-08  0.809E-04    1.97      55.3  T
  14     -9.7134760 -0.892781E-09  0.851E-05    1.97     525.4  T
     SCC iter.                  ...        0 min,  0.001 sec
     gradient                   ...        0 min,  0.001 sec
 * total energy  :    -9.5413129 Eh     change       -0.7553906E-04 Eh
   gradient norm :     0.0069647 Eh/α   predicted    -0.1336989E-03 (  76.99%)
   displ. norm   :     0.0191410 α      lambda       -0.8527991E-04
   maximum displ.:     0.0153981 α      in ANC's #4, #2, #7, ...

........................................................................
.............................. CYCLE   12 ..............................
........................................................................
   1     -9.7120274 -0.971203E+01  0.933E-02    1.98       0.0  T
   2     -9.7118106  0.216861E-03  0.209E-01    1.98       1.0  T
   3     -9.7116961  0.114507E-03  0.276E-01    1.97       1.0  T
   4     -9.7120217 -0.325674E-03  0.635E-02    1.97       1.0  T
   5     -9.7120229 -0.119431E-05  0.495E-02    1.97       1.0  T
   6     -9.7120344 -0.115184E-04  0.776E-03    1.98       5.8  T
   7     -9.7120348 -0.359491E-06  0.202E-03    1.98      22.1  T
   8     -9.7120348  0.182788E-08  0.184E-03    1.98      24.3  T
   9     -9.7120348  0.162244E-07  0.246E-03    1.98      18.2  T
  10     -9.7120348 -0.262061E-07  0.412E-04    1.98     108.5  T
  11     -9.7120348 -0.692108E-09  0.387E-05    1.98    1154.9  T
     SCC iter.                  ...        0 min,  0.001 sec
     gradient                   ...        0 min,  0.001 sec
 * total energy  :    -9.5413479 Eh     change       -0.3498679E-04 Eh
   gradient norm :     0.0027221 Eh/α   predicted    -0.4265443E-04 (  21.92%)
   displ. norm   :     0.0191493 α      lambda       -0.2102125E-04
   maximum displ.:     0.0152744 α      in ANC's #1, #7, #5, ...

........................................................................
.............................. CYCLE   13 ..............................
........................................................................
   1     -9.7117236 -0.971172E+01  0.117E-01    1.98       0.0  T
   2     -9.7116811  0.425550E-04  0.108E-01    1.98       1.0  T
   3     -9.7110429  0.638202E-03  0.384E-01    1.99       1.0  T
   4     -9.7117216 -0.678742E-03  0.379E-02    1.98       1.2  T
   5     -9.7117249 -0.326558E-05  0.263E-02    1.98       1.7  T
   6     -9.7117282 -0.331580E-05  0.120E-02    1.98       3.7  T
   7     -9.7117285 -0.317095E-06  0.747E-03    1.98       6.0  T
   8     -9.7117287 -0.161611E-06  0.371E-03    1.98      12.1  T
   9     -9.7117287 -0.543127E-07  0.560E-04    1.98      79.9  T
  10     -9.7117287 -0.127309E-08  0.168E-04    1.98     266.7  T
     SCC iter.                  ...        0 min,  0.001 sec
     gradient                   ...        0 min,  0.001 sec
 * total energy  :    -9.5413587 Eh     change       -0.1088966E-04 Eh
   gradient norm :     0.0022243 Eh/α   predicted    -0.1051552E-04 (  -3.44%)
   displ. norm   :     0.0082029 α      lambda       -0.1000310E-04
   maximum displ.:     0.0053683 α      in ANC's #1, #3, #5, ...

........................................................................
.............................. CYCLE   14 ..............................
........................................................................
   1     -9.7122974 -0.971230E+01  0.109E-01    1.98       0.0  T
   2     -9.7113259  0.971415E-03  0.444E-01    1.97       1.0  T
   3     -9.7118427 -0.516740E-03  0.317E-01    2.00       1.0  T
   4     -9.7122856 -0.442959E-03  0.780E-02    1.99       1.0  T
   5     -9.7123111 -0.254526E-04  0.220E-02    1.98       2.0  T
   6     -9.7123126 -0.151114E-05  0.690E-03    1.98       6.5  T
   7     -9.7123125  0.813264E-07  0.651E-03    1.98       6.9  T
   8     -9.7123127 -0.152745E-06  0.366E-03    1.98      12.2  T
   9     -9.7123127 -0.527223E-07  0.437E-04    1.98     102.4  T
  10     -9.7123127 -0.807130E-09  0.855E-05    1.98     523.4  T
     SCC iter.                  ...        0 min,  0.001 sec
     gradient                   ...        0 min,  0.001 sec
 * total energy  :    -9.5413671 Eh     change       -0.8316375E-05 Eh
   gradient norm :     0.0021360 Eh/α   predicted    -0.5000438E-05 ( -39.87%)
   displ. norm   :     0.0275607 α      lambda       -0.2886874E-04
   maximum displ.:     0.0167092 α      in ANC's #1, #3, #5, ...

........................................................................
.............................. CYCLE   15 ..............................
........................................................................
   1     -9.7130728 -0.971307E+01  0.281E-01    1.99       0.0  T
   2     -9.7117929  0.127985E-02  0.532E-01    1.97       1.0  T
   3     -9.7093194  0.247354E-02  0.897E-01    2.03       1.0  T
   4     -9.7129942 -0.367482E-02  0.175E-01    1.99       1.0  T
   5     -9.7131269 -0.132663E-03  0.260E-02    1.98       1.7  T
   6     -9.7131243  0.255023E-05  0.311E-02    1.99       1.4  T
   7     -9.7131285 -0.413495E-05  0.164E-02    1.99       2.7  T
   8     -9.7131293 -0.858651E-06  0.702E-03    1.99       6.4  T
   9     -9.7131295 -0.163197E-06  0.230E-03    1.99      19.4  T
  10     -9.7131295 -0.202209E-07  0.349E-04    1.99     128.1  T
  11     -9.7131295 -0.190205E-09  0.216E-04    1.99     207.4  T
     SCC iter.                  ...        0 min,  0.001 sec
     gradient                   ...        0 min,  0.001 sec
 * total energy  :    -9.5413853 Eh     change       -0.1825080E-04 Eh
   gradient norm :     0.0018978 Eh/α   predicted    -0.1444493E-04 ( -20.85%)
   displ. norm   :     0.0181927 α      lambda       -0.6421204E-05
   maximum displ.:     0.0091430 α      in ANC's #1, #3, #5, ...

........................................................................
.............................. CYCLE   16 ..............................
........................................................................
   1     -9.7128280 -0.971283E+01  0.149E-01    1.98       0.0  T
   2     -9.7123389  0.489101E-03  0.320E-01    2.00       1.0  T
   3     -9.7122737  0.651243E-04  0.351E-01    1.97       1.0  T
   4     -9.7128513 -0.577561E-03  0.243E-02    1.99       1.8  T
   5     -9.7128343  0.170405E-04  0.574E-02    1.98       1.0  T
   6     -9.7128512 -0.169876E-04  0.591E-03    1.99       7.6  T
   7     -9.7128514 -0.155569E-06  0.180E-03    1.99      24.9  T
   8     -9.7128514 -0.599219E-08  0.935E-04    1.99      47.8  T
   9     -9.7128514  0.976052E-08  0.171E-03    1.99      26.2  T
  10     -9.7128514 -0.639986E-08  0.113E-03    1.99      39.6  T
  11     -9.7128514 -0.524669E-08  0.289E-04    1.99     154.8  T
     SCC iter.                  ...        0 min,  0.001 sec
     gradient                   ...        0 min,  0.001 sec
 * total energy  :    -9.5413892 Eh     change       -0.3907389E-05 Eh
   gradient norm :     0.0007267 Eh/α   predicted    -0.3212315E-05 ( -17.79%)
   displ. norm   :     0.0056547 α      lambda       -0.9521529E-06
   maximum displ.:     0.0040121 α      in ANC's #1, #3, #5, ...

   *** GEOMETRY OPTIMIZATION CONVERGED AFTER 16 ITERATIONS ***

------------------------------------------------------------------------
 total energy gain   :        -0.1306719 Eh      -81.9979 kcal/mol
 total RMSD          :         0.9914091 a0        0.5246 Å
 total power (kW/mol):       -21.4424416 (step)-7075.5602 (real)
------------------------------------------------------------------------

 ANCopt (total)                0 d,  0 h,  0 min,  0.048 sec
 optimizer setup                ...        0 min,  0.000 sec (  0.124%)
 model hessian                  ...        0 min,  0.000 sec (  0.189%)
 ANC generation                 ...        0 min,  0.000 sec (  0.099%)
 coordinate transformation      ...        0 min,  0.000 sec (  0.076%)
 single point calculation       ...        0 min,  0.047 sec ( 97.130%)
 optimization log               ...        0 min,  0.000 sec (  0.757%)
 hessian update                 ...        0 min,  0.000 sec (  0.070%)
 rational function              ...        0 min,  0.000 sec (  0.694%)

================
 final structure:
================
5
 xtb: 6.2.2 (9d81278992624c895f80dd42a50cac0aa55982e2)
N         1.82735805444159   -0.48168400493810   -0.01702493319247
C         0.70918677502065   -0.00906483580298    0.00790450234415
C        -0.74176663594118   -0.03788689550467   -0.00909200325097
C        -0.17858435807843    1.16936967057623    0.11080128660970
H        -1.61619383544264   -0.64073393433048   -0.09258985251040

 Bond Distances (Angstroems)
 ---------------------------
N1-C2=1.2142         C2-N1=1.2142         C2-C3=1.4513         C2-C4=1.4790         C3-C2=1.4513         C3-C4=1.3375         
C3-H5=1.0654         C4-C2=1.4790         C4-C3=1.3375         H5-C3=1.0654         
 C  H  Rav=1.0654 sigma=0.0000  Rmin=1.0654  Rmax=1.0654     1
 C  C  Rav=1.4226 sigma=0.0612  Rmin=1.3375  Rmax=1.4790     3
 N  C  Rav=1.2142 sigma=0.0000  Rmin=1.2142  Rmax=1.2142     1

 selected bond angles (degree)
 --------------------
C3-C2-N1=155.88                C4-C2-N1=149.81                C4-C2-C3= 54.31                C4-C3-C2= 63.90                
H5-C3-C2=146.38                H5-C3-C4=149.70                C3-C4-C2= 61.79                

 selected dihedral angles (degree)
 ---------------------------------
C4-C3-C2-N1=178.98            H5-C3-C2-N1=357.26            H5-C3-C2-C4=178.28            C3-C4-C2-N1=180.83            
C2-C4-C3-H5=181.89            
           -------------------------------------------------
          |                Final Singlepoint                |
           -------------------------------------------------

          ...................................................
          :                      SETUP                      :
          :.................................................:
          :  # basis functions                  17          :
          :  # atomic orbitals                  17          :
          :  # shells                            9          :
          :  # electrons                        18          :
          :  max. iterations                   250          :
          :  Hamiltonian                  GFN2-xTB          :
          :  restarted?                      false          :
          :  GBSA solvation                  false          :
          :  PC potential                    false          :
          :  electronic temp.          300.0000000     K    :
          :  accuracy                    1.0000000          :
          :  -> integral cutoff          0.2500000E+02      :
          :  -> integral neglect         0.1000000E-07      :
          :  -> SCF convergence          0.1000000E-05 Eh   :
          :  -> wf. convergence          0.1000000E-03 e    :
          :  Broyden damping             0.4000000          :
          ...................................................

 iter      E             dE          RMSdq      gap      omega  full diag
   1     -9.7128514 -0.971285E+01  0.490E-04    1.99       0.0  T
   2     -9.7128514  0.215648E-07  0.204E-03    1.99      22.0  T
   3     -9.7128514 -0.100794E-07  0.162E-03    1.99      27.7  T
   4     -9.7128514 -0.113405E-07  0.352E-04    1.99     127.2  T
   5     -9.7128514 -0.399783E-09  0.128E-04    1.99     350.0  T

   *** convergence criteria satisfied after 5 iterations ***

         #    Occupation            Energy/Eh            Energy/eV
      -------------------------------------------------------------
         1        2.0000           -0.7090162             -19.2933
       ...           ...                  ...                  ...
         4        2.0000           -0.5612260             -15.2717
         5        2.0000           -0.5399477             -14.6927
         6        2.0000           -0.5144732             -13.9995
         7        1.9904           -0.4488533             -12.2139
         8        1.6524           -0.4450516             -12.1105
         9        1.3573           -0.4438956             -12.0790
        10        1.0000           -0.3524494              -9.5906 (HOMO)
        11                         -0.2794880              -7.6053 (LUMO)
        12                         -0.2161699              -5.8823
        13                         -0.0105762              -0.2878
        14                          0.0372869               1.0146
        15                          0.1642521               4.4695
       ...                                ...                  ...
        17                          0.8306111              22.6021
      -------------------------------------------------------------
                  HL-Gap            0.0729614 Eh            1.9854 eV
             Fermi-level           -0.3802111 Eh          -10.3461 eV

 transition dipole moment (au) for excitation:           9          10
     X       Y       Z   
  -1.0705   0.8430   0.0691  total (au/Debye):    1.364   3.468
 dE (eV)             :    2.488
 oscillator strength :  0.16047E+00

 SCC (total)                   0 d,  0 h,  0 min,  0.004 sec
 SCC setup                      ...        0 min,  0.000 sec (  1.320%)
 Dispersion                     ...        0 min,  0.000 sec (  0.280%)
 integral evaluation            ...        0 min,  0.001 sec ( 26.588%)
 zeroth order Hamiltonian       ...        0 min,  0.000 sec (  0.367%)
 iterations                     ...        0 min,  0.001 sec ( 16.750%)
 molecular gradient             ...        0 min,  0.001 sec ( 28.594%)
 printout                       ...        0 min,  0.001 sec ( 25.802%)

         :::::::::::::::::::::::::::::::::::::::::::::::::::::
         ::                     SUMMARY                     ::
         :::::::::::::::::::::::::::::::::::::::::::::::::::::
         :: total energy              -9.541389220451 Eh    ::
         :: gradient norm              0.000770372471 Eh/a0 ::
         :: HOMO-LUMO gap              1.985379908737 eV    ::
         ::.................................................::
         :: SCC energy                -9.712851410385 Eh    ::
         :: -> isotropic ES            0.009316028196 Eh    ::
         :: -> anisotropic ES          0.000083425029 Eh    ::
         :: -> anisotropic XC          0.013680300944 Eh    ::
         :: -> dispersion             -0.002071073733 Eh    ::
         :: repulsion energy           0.171462136928 Eh    ::
         :: add. restraining           0.000000000000 Eh    ::
         :::::::::::::::::::::::::::::::::::::::::::::::::::::

           ------------------------------------------------- 
          |                Numerical Hessian                |
           ------------------------------------------------- 
step length          :   0.00500
SCC accuracy         :   0.30000
Hessian scale factor :   1.00000
frozen atoms in %    :   0.00000    0
RMS gradient         :   0.00077
estimated CPU  time      0.00 min
estimated wall time      0.00 min

writing file <hessian>.

 projected vibrational frequencies (cm-1)
eigval :       -0.00    -0.00    -0.00     0.00     0.00     0.00
eigval :      242.47   310.53   412.35   604.99   754.21   901.46
eigval :     1349.03  1797.12  3183.03
           -------------------------------------------------
          |                Property Printout                |
           -------------------------------------------------

    * Orbital Energies and Occupations

         #    Occupation            Energy/Eh            Energy/eV
      -------------------------------------------------------------
         1        2.0000           -0.7090163             -19.2933
         2        2.0000           -0.6609660             -17.9858
         3        2.0000           -0.6024504             -16.3935
         4        2.0000           -0.5612262             -15.2717
         5        2.0000           -0.5399477             -14.6927
         6        2.0000           -0.5144733             -13.9995
         7        1.9903           -0.4488531             -12.2139
         8        1.6524           -0.4450516             -12.1105
         9        1.3573           -0.4438957             -12.0790
        10        1.0000           -0.3524494              -9.5906 (HOMO)
        11                         -0.2794883              -7.6053 (LUMO)
        12                         -0.2161698              -5.8823
        13                         -0.0105763              -0.2878
        14                          0.0372868               1.0146
        15                          0.1642519               4.4695
        16                          0.6059149              16.4878
        17                          0.8306112              22.6021
      -------------------------------------------------------------
                  HL-Gap            0.0729611 Eh            1.9854 eV
             Fermi-level           -0.3802112 Eh          -10.3461 eV

     #   Z        covCN         q      C6AA      α(0)
     1   7 N      0.911    -0.244    26.360     7.426
     2   6 C      2.868     0.175    24.247     8.072
     3   6 C      2.887     0.021    27.535     8.603
     4   6 C      1.959    -0.052    32.469     9.202
     5   1 H      0.927     0.100     1.786     2.090

 Mol. C6AA /au·bohr⁶  :        498.026290
 Mol. C8AA /au·bohr⁸  :      12994.579916
 Mol. α(0) /au        :         35.391857


Wiberg/Mayer (AO) data.
largest (>0.10) Wiberg bond orders for each atom
          total WBO             WBO to atom ...
     1  N   2.069        C    2 1.945
     2  C   3.791        N    1 1.945    C    3 0.942    C    4 0.895
     3  C   3.566        C    4 1.624    C    2 0.942    H    5 0.941
     4  C   2.586        C    3 1.624    C    2 0.895
Molecule has the following symmetry elements: (sigma) 
It seems to be the Cs point group
     5  H   0.962        C    3 0.941

MOs/occ written to file <molden.input>


molecular dipole:
                 x           y           z       tot (Debye)
 q only:       -0.925      -0.018      -0.018
   full:       -1.331      -0.164      -0.038       3.410
molecular quadrupole (traceless):
                xx          xy          yy          xz          yz          zz
 q only:       -1.473       1.759       0.505       0.132      -0.015       0.969
  q+dip:       -2.044       3.540       0.952       0.286       0.074       1.091
   full:       -3.431       3.493       0.289       0.231      -0.177       3.142

           -------------------------------------------------
          |                Geometry Summary                 |
           -------------------------------------------------

      molecular mass/u    :       51.0468517
   center of mass at/Å    :        0.4198110       0.1192694       0.0192895
  moments of inertia/u·Å² :        0.1309481E+02   0.5986824E+02   0.7296233E+02
rotational constants/cm⁻¹ :        0.1287353E+01   0.2815789E+00   0.2310457E+00

 * 3 selected distances

     #   Z        #   Z                                     value/Å
     1   7 N      2   6 C                                 1.2142065
     3   6 C      4   6 C                                 1.3375414 (max)
     3   6 C      5   1 H                                 1.0653729 (min)

 * 3 distinct bonds (by element types)

   Z      Z             #   av. dist./Å        max./Å        min./Å
   1 H    6 C           1     1.0653729     1.0653729     1.0653729
   6 C    6 C           1     1.3375414     1.3375414     1.3375414
   6 C    7 N           1     1.2142065     1.2142065     1.2142065

           -------------------------------------------------
          |               Frequency Printout                |
           -------------------------------------------------
 projected vibrational frequencies (cm-1)
eigval :       -0.00    -0.00    -0.00     0.00     0.00     0.00
eigval :      242.47   310.53   412.35   604.99   754.21   901.46
eigval :     1349.03  1797.12  3183.03
 reduced masses (amu)
   1:  9.58   2: 11.74   3: 13.31   4: 13.11   5: 12.20   6: 12.10   7: 11.99   8: 11.16
   9:  3.90  10:  9.65  11:  8.64  12:  9.59  13: 11.99  14: 12.15  15:  2.03
 IR intensities (amu)
   1:  0.34   2:  0.06   3:  0.16   4:  0.15   5:  0.08   6:  0.14   7:  0.52   8:  0.19
   9:  0.23  10:  1.42  11:  0.42  12:  0.76  13:  1.70  14:  1.10  15:  0.17
 Raman intensities (amu)
   1:  0.00   2:  0.00   3:  0.00   4:  0.00   5:  0.00   6:  0.00   7:  0.00   8:  0.00
   9:  0.00  10:  0.00  11:  0.00  12:  0.00  13:  0.00  14:  0.00  15:  0.00
 output can be read by thermo (or use thermo option).
 writing <g98.out> molden fake output.
 recommended (thermochemical) frequency scaling factor: 1.0
           -------------------------------------------------
          |             Thermodynamic Functions             |
           -------------------------------------------------

cs  symmetry found (for desy threshold:  0.10E+00) used in thermo

          ...................................................
          :                      SETUP                      :
          :.................................................:
          :  # frequencies                           9      :
          :  # imaginary freq.                       0      :
          :  linear?                             false      :
          :  only rotor calc.                    false      :
          :  symmetry                               cs      :
          :  rotational number                       1      :
          :  scaling factor                  1.0000000      :
          :  rotor cutoff                   50.0000000 cm⁻¹ :
          :  imag. cutoff                  -20.0000000 cm⁻¹ :
          :.................................................:

    mode    ω/cm⁻¹     T·S(HO)/kcal·mol⁻¹    T·S(FR)/kcal·mol⁻¹   T·S(vib)
   ------------------------------------------------------------------------
       1    242.47    -0.00000 ( 99.82%)     0.01400 (  0.18%)     0.00003
   ------------------------------------------------------------------------

   temp. (K)  partition function   enthalpy   heat capacity  entropy
                                   cal/mol     cal/K/mol   cal/K/mol   J/K/mol
 298.15  VIB   2.38                  951.339      7.272      4.917
         ROT  0.183E+05              888.752      2.981     22.482
         INT  0.435E+05             1840.091     10.253     27.399
         TR   0.353E+27             1481.254      4.968     37.697
         TOT                        3321.3449    15.2214    65.0954   272.3590

   temp. (K)  partition function   enthalpy   heat capacity  entropy
                                   cal/mol     cal/K/mol   cal/K/mol   J/K/mol
 120.00  VIB   1.09                   72.036      2.175      0.778
         ROT  0.467E+04              357.707      2.981     19.769
         INT  0.510E+04              429.743      5.156     20.547
         TR   0.901E+26              596.178      4.968     33.177
         TOT                        1025.9212    10.1237    53.7242   224.7822

   temp. (K)  partition function   enthalpy   heat capacity  entropy
                                   cal/mol     cal/K/mol   cal/K/mol   J/K/mol
 100.00  VIB   1.05                   35.615      1.468      0.448
         ROT  0.355E+04              298.089      2.981     19.225
         INT  0.371E+04              333.704      4.449     19.673
         TR   0.685E+26              496.815      4.968     32.272
         TOT                         830.5193     9.4175    51.9452   217.3388

   temp. (K)  partition function   enthalpy   heat capacity  entropy
                                   cal/mol     cal/K/mol   cal/K/mol   J/K/mol
  80.00  VIB   1.02                   13.058      0.800      0.199
         ROT  0.254E+04              238.471      2.981     18.560
         INT  0.258E+04              251.529      3.781     18.759
         TR   0.490E+26              397.452      4.968     31.164
         TOT                         648.9815     8.7494    49.9228   208.8770

   temp. (K)  partition function   enthalpy   heat capacity  entropy
                                   cal/mol     cal/K/mol   cal/K/mol   J/K/mol
  60.00  VIB   1.00                    2.654      0.276      0.052
         ROT  0.165E+04              178.853      2.981     17.703
         INT  0.166E+04              181.508      3.257     17.755
         TR   0.319E+26              298.089      4.968     29.735
         TOT                         479.5969     8.2252    47.4901   198.6985

   temp. (K)  partition function   enthalpy   heat capacity  entropy
                                   cal/mol     cal/K/mol   cal/K/mol   J/K/mol
  40.00  VIB   1.00                    0.126      0.028      0.003
         ROT   898.                  119.236      2.981     16.494
         INT   898.                  119.362      3.009     16.497
         TR   0.173E+26              198.726      4.968     27.722
         TOT                         318.0876     7.9773    44.2190   185.0124

   temp. (K)  partition function   enthalpy   heat capacity  entropy
                                   cal/mol     cal/K/mol   cal/K/mol   J/K/mol
  20.00  VIB   1.00                    0.000      0.000     -0.002
         ROT   317.                   59.618      2.981     14.428
         INT   317.                   59.618      2.981     14.426
         TR   0.613E+25               99.363      4.968     24.280
         TOT                         158.9808     7.9491    38.7054   161.9436

   temp. (K)  partition function   enthalpy   heat capacity  entropy
                                   cal/mol     cal/K/mol   cal/K/mol   J/K/mol
  10.00  VIB   1.00                    0.000      0.000     -0.004
         ROT   112.                   29.809      2.981     12.362
         INT   112.                   29.809      2.981     12.358
         TR   0.217E+25               49.681      4.968     20.838
         TOT                          79.4904     7.9490    33.1954   138.8894

       T/K    H(0)-H(T)+PV         H(T)/Eh          T*S/Eh         G(T)/Eh
   ------------------------------------------------------------------------
    298.15    0.529290E-02    0.270612E-01    0.309289E-01   -0.386767E-02
    120.00    0.163491E-02    0.234032E-01    0.102738E-01    0.131294E-01
    100.00    0.132352E-02    0.230919E-01    0.827800E-02    0.148139E-01
     80.00    0.103422E-02    0.228026E-01    0.636456E-02    0.164380E-01
     60.00    0.764286E-03    0.225326E-01    0.454081E-02    0.179918E-01
     40.00    0.506905E-03    0.222752E-01    0.281870E-02    0.194565E-01
     20.00    0.253352E-03    0.220217E-01    0.123362E-02    0.207881E-01
     10.00    0.126676E-03    0.218950E-01    0.529002E-03    0.213660E-01 (used)
   ------------------------------------------------------------------------

         :::::::::::::::::::::::::::::::::::::::::::::::::::::
         ::                  THERMODYNAMIC                  ::
         :::::::::::::::::::::::::::::::::::::::::::::::::::::
         :: total free energy          -9.520023206942 Eh   ::
         ::.................................................::
         :: total energy               -9.541389220245 Eh   ::
         :: zero point energy           0.021768338956 Eh   ::
         :: G(RRHO) w/o ZPVE           -0.000402325652 Eh   ::
         :: G(RRHO) contrib.            0.021366013304 Eh   ::
         :::::::::::::::::::::::::::::::::::::::::::::::::::::

optimized geometry written to: xtbopt.xyz


           -------------------------------------------------
          | TOTAL ENERGY               -9.541389220245 Eh   |
          | TOTAL ENTHALPY             -9.519494205274 Eh   |
          | TOTAL FREE ENERGY          -9.520023206942 Eh   |
          | GRADIENT NORM               0.000770115394 Eh/α |
          | HOMO-LUMO GAP               1.985371264355 eV   |
           -------------------------------------------------

------------------------------------------------------------------------
 * finished run on 2020/05/12 at 11:44:59.286     
------------------------------------------------------------------------
 total:
 * wall-time:     0 d,  0 h,  0 min,  0.155 sec
 *  cpu-time:     0 d,  0 h,  0 min,  0.155 sec
 * ratio c/w:     0.996 speedup
 SCF:
 * wall-time:     0 d,  0 h,  0 min,  0.004 sec
 *  cpu-time:     0 d,  0 h,  0 min,  0.004 sec
 * ratio c/w:     1.000 speedup
 ANC optimizer:
 * wall-time:     0 d,  0 h,  0 min,  0.053 sec
 *  cpu-time:     0 d,  0 h,  0 min,  0.053 sec
 * ratio c/w:     0.999 speedup
 numerical hessian:
 * wall-time:     0 d,  0 h,  0 min,  0.082 sec
 *  cpu-time:     0 d,  0 h,  0 min,  0.082 sec
 * ratio c/w:     0.999 speedup

