5
 energy: -9.541389220451 gnorm: 0.000770372471 xtb: 6.2.2 (9d81278992624c895f80dd42a50cac0aa55982e2)
N         1.82735547288840   -0.48169360266896   -0.01703047117809
C         0.70918675513529   -0.00906853530030    0.00790204263636
C        -0.74176686603875   -0.03788302749144   -0.00908934787178
C        -0.17857784850627    1.16937079900663    0.11079986905078
H        -1.61619751348217   -0.64072563354767   -0.09258309263726
