5
 energy: -6.475269923651 gnorm: 0.000419828863 xtb: 6.2.2 (9d81278992624c895f80dd42a50cac0aa55982e2)
C         0.79501815115501   -0.50835096055436    0.02656682819794
N        -0.41566821915537   -0.04899200719542    0.00148978883365
H         1.51649095541537    0.33308381634756   -0.00943936995513
H        -0.71098704388459    0.93234052714474   -0.04780259391159
H        -1.18485384353043   -0.70808137574252    0.02918534683514
