$hessian                                                                        
        0.3956740043  -0.0724163772  -0.0457216761  -0.2209356895  -0.1149415743
        0.1025984713  -0.0501460260  -0.0082893915   0.0186561643  -0.0884556366
        0.0346624614  -0.0212150962  -0.0361366522   0.1609848817  -0.0543178634
       -0.0724163772   0.3094690895  -0.0793298209  -0.0120239405  -0.0200497196
        0.0164768140   0.0611202575   0.0153234985  -0.0288787021  -0.0389498626
       -0.0156379099   0.0151569187   0.0622699229  -0.2891049585   0.0765747904
       -0.0457216761  -0.0793298209   0.0726486875   0.0755358766   0.0339795233
       -0.0692825618  -0.0347406461   0.0007261287   0.0077074345   0.0173389989
        0.0173392977   0.0127980737  -0.0124125533   0.0272848713  -0.0238716339
       -0.2209356895  -0.0120239405   0.0755358766   0.3678891180   0.0057632367
        0.0063437715   0.0365268152   0.0296278326   0.0128378711  -0.2213436766
        0.0018603142  -0.0815343609   0.0378634330  -0.0252274431  -0.0131831584
       -0.1149415743  -0.0200497196   0.0339795233   0.0057632367   0.1788544418
       -0.1215135618  -0.0195816814  -0.0723193554   0.0269432552   0.1042791240
       -0.0144398253   0.0336656816   0.0244808950  -0.0720455416   0.0269251017
        0.1025984713   0.0164768140  -0.0692825618   0.0063437715  -0.1215135618
        0.1563683205   0.0247745649   0.0479114829  -0.0055550791  -0.1078330511
        0.0114631146  -0.0748242427  -0.0258837567   0.0456621504  -0.0067064370
       -0.0501460260   0.0611202575  -0.0347406461   0.0365268152  -0.0195816814
        0.0247745649   0.2920741509   0.0756870379  -0.0384016620  -0.0274265999
       -0.0515162536   0.0109087104  -0.2510283401  -0.0657093604   0.0374590328
       -0.0082893915   0.0153234985   0.0007261287   0.0296278326  -0.0723193554
        0.0479114829   0.0756870379   0.3145008514  -0.0440680130  -0.1488434284
       -0.2993074425   0.0231805914   0.0518179493   0.0418024480  -0.0277501900
        0.0186561643  -0.0288787021   0.0077074345   0.0128378711   0.0269432552
       -0.0055550791  -0.0384016620  -0.0440680130   0.0165851065   0.0503077812
        0.0774256699  -0.0219243864  -0.0434001547  -0.0314222100   0.0031869244
       -0.0884556366  -0.0389498626   0.0173389989  -0.2213436766   0.1042791240
       -0.1078330511  -0.0274265999  -0.1488434284   0.0503077812   0.3850337200
        0.0784190581   0.0589129602  -0.0478078068   0.0050951089  -0.0187266892
        0.0346624614  -0.0156379099   0.0173392977   0.0018603142  -0.0144398253
        0.0114631146  -0.0515162536  -0.2993074425   0.0774256699   0.0784190581
        0.3169562155  -0.0745322391  -0.0634255802   0.0124289622  -0.0316958431
       -0.0212150962   0.0151569187   0.0127980737  -0.0815343609   0.0336656816
       -0.0748242427   0.0109087104   0.0231805914  -0.0219243864   0.0589129602
       -0.0745322391   0.0757150145   0.0329277864   0.0025290474   0.0082355408
       -0.0361366522   0.0622699229  -0.0124125533   0.0378634330   0.0244808950
       -0.0258837567  -0.2510283401   0.0518179493  -0.0434001547  -0.0478078068
       -0.0634255802   0.0329277864   0.2971093661  -0.0751431871   0.0487686782
        0.1609848817  -0.2891049585   0.0272848713  -0.0252274431  -0.0720455416
        0.0456621504  -0.0657093604   0.0418024480  -0.0314222100   0.0050951089
        0.0124289622   0.0025290474  -0.0751431871   0.3069190899  -0.0440538589
       -0.0543178634   0.0765747904  -0.0238716339  -0.0131831584   0.0269251017
       -0.0067064370   0.0374590328  -0.0277501900   0.0031869244  -0.0187266892
       -0.0316958431   0.0082355408   0.0487686782  -0.0440538589   0.0191556057
