 Entering Gaussian System
 *********************************************
 Gaussian 98:
 frequency output generated by the xtb code
 *********************************************
                         Standard orientation:
 --------------------------------------------------------------------
  Center     Atomic     Atomic              Coordinates (Angstroms)
  Number     Number      Type              X           Y           Z
 --------------------------------------------------------------------
    1          6             0        1.166118   -0.402722    0.009040
    2          7             0        0.013909   -0.843478    0.479039
    3          6             0       -0.743208    0.835178   -0.242197
    4          6             0       -1.144399   -0.460332   -0.025196
    5          6             0        0.707581    0.871353   -0.220687
 --------------------------------------------------------------------
     1 basis functions        1 primitive gaussians
     1 alpha electrons        1 beta electrons

 Harmonic frequencies (cm**-1), IR intensities (KM/Mole),
 Raman scattering activities (A**4/amu), Raman depolarization ratios,
 reduced masses (AMU), force constants (mDyne/A) and normal coordinates:
                      1                      2                      3
                        a                      a                      a 
 Frequencies --  -514.5518               429.4515               456.2100
 Red. masses --    12.1365                12.9468                12.0159
 Frc consts  --     0.0000                 0.0000                 0.0000
 IR Inten    --     0.0372                 0.1849                 0.5720
 Raman Activ --     0.0000                 0.0000                 0.0000
 Depolar     --     0.0000                 0.0000                 0.0000
 Atom AN      X      Y      Z        X      Y      Z        X      Y      Z
   1   6     0.19  -0.20  -0.14    -0.00   0.23   0.40    -0.17  -0.01  -0.33
   2   7     0.25   0.01   0.00     0.02  -0.56  -0.40    -0.05   0.01   0.01
   3   6    -0.32   0.30  -0.42     0.01   0.06  -0.20     0.22  -0.38  -0.42
   4   6     0.18   0.21   0.15    -0.03   0.23   0.42    -0.18  -0.00   0.31
   5   6    -0.32  -0.32   0.41    -0.01   0.07  -0.19     0.19   0.39   0.43
                      4                      5                      6
                        a                      a                      a 
 Frequencies --   584.3115              1053.4297              1079.1899
 Red. masses --    12.9291                12.2693                12.8991
 Frc consts  --     0.0000                 0.0000                 0.0000
 IR Inten    --     0.4891                 1.2161                 1.1827
 Raman Activ --     0.0000                 0.0000                 0.0000
 Depolar     --     0.0000                 0.0000                 0.0000
 Atom AN      X      Y      Z        X      Y      Z        X      Y      Z
   1   6    -0.42   0.07  -0.20     0.36   0.41  -0.19    -0.29  -0.32   0.20
   2   7     0.00  -0.49   0.46    -0.00  -0.24   0.27     0.67   0.01   0.01
   3   6    -0.10   0.18  -0.05    -0.15  -0.28   0.04    -0.07  -0.19   0.07
   4   6     0.42   0.09  -0.19    -0.37   0.39  -0.20    -0.30   0.32  -0.21
   5   6     0.09   0.18  -0.05     0.16  -0.27   0.05    -0.07   0.18  -0.07
                      7                      8                      9
                        a                      a                      a 
 Frequencies --  1104.5450              1303.6521              1351.9037
 Red. masses --    12.0563                12.2654                12.2207
 Frc consts  --     0.0000                 0.0000                 0.0000
 IR Inten    --     0.5492                 0.4478                 1.0662
 Raman Activ --     0.0000                 0.0000                 0.0000
 Depolar     --     0.0000                 0.0000                 0.0000
 Atom AN      X      Y      Z        X      Y      Z        X      Y      Z
   1   6    -0.00   0.12  -0.07    -0.44   0.26   0.03     0.37  -0.36   0.03
   2   7     0.00  -0.10   0.12    -0.00   0.27  -0.23    -0.32  -0.01  -0.01
   3   6     0.68  -0.05   0.02    -0.04  -0.41   0.09    -0.18  -0.37   0.10
   4   6    -0.00   0.12  -0.08     0.42   0.27   0.05     0.35   0.38  -0.02
   5   6    -0.68  -0.08   0.00     0.05  -0.41   0.09    -0.19   0.36  -0.10
