[Molden Format]
[Title]
[Atoms] AU
C      1     6  0.22036427248908E+01 -0.76103413476084E+00  0.17083996847390E-01
N      2     7  0.26284615086257E-01 -0.15939419619169E+01  0.90525320355200E+00
C      3     6 -0.14044591717415E+01  0.15782576476270E+01 -0.45768637217709E+00
C      4     6 -0.21625998196291E+01 -0.86990198530242E+00 -0.47614234244622E-01
C      5     6  0.13371335411031E+01  0.16466185446139E+01 -0.41703848370693E+00
[GTO]
           1 0
 s           4   1.0000000000000000     
   51.049363095579913      -0.16312063210127389     
   8.7911227406887544      -0.19911024581000730     
  0.70640422258929825       0.31882047753655751     
  0.26922813413411617       0.12706504184240380     
 p           4   1.0000000000000000     
   5.8263656140800002       0.73716451545209605     
   1.5106896018720002       0.68216371614850257     
  0.53256483288000001       0.35783053929253711     
  0.21202323690600003        5.3983030275847881E-002

           2 0
 s           4   1.0000000000000000     
   63.594024466941008      -0.19234388414721629     
   10.951417231523665      -0.23478107924953728     
  0.87999310257376984       0.37593753901700888     
  0.33538715296521110       0.14982889271862770     
 p           4   1.0000000000000000     
   7.2965040481495080       0.97658666315667420     
   1.8918745450712575       0.90372226730345739     
  0.66694432110824120       0.47404958461536373     
  0.26552202674130870        7.1516067715011844E-002

           3 0
 s           4   1.0000000000000000     
   51.049363095579913      -0.16312063210127389     
   8.7911227406887544      -0.19911024581000730     
  0.70640422258929825       0.31882047753655751     
  0.26922813413411617       0.12706504184240380     
 p           4   1.0000000000000000     
   5.8263656140800002       0.73716451545209605     
   1.5106896018720002       0.68216371614850257     
  0.53256483288000001       0.35783053929253711     
  0.21202323690600003        5.3983030275847881E-002

           4 0
 s           4   1.0000000000000000     
   51.049363095579913      -0.16312063210127389     
   8.7911227406887544      -0.19911024581000730     
  0.70640422258929825       0.31882047753655751     
  0.26922813413411617       0.12706504184240380     
 p           4   1.0000000000000000     
   5.8263656140800002       0.73716451545209605     
   1.5106896018720002       0.68216371614850257     
  0.53256483288000001       0.35783053929253711     
  0.21202323690600003        5.3983030275847881E-002

           5 0
 s           4   1.0000000000000000     
   51.049363095579913      -0.16312063210127389     
   8.7911227406887544      -0.19911024581000730     
  0.70640422258929825       0.31882047753655751     
  0.26922813413411617       0.12706504184240380     
 p           4   1.0000000000000000     
   5.8263656140800002       0.73716451545209605     
   1.5106896018720002       0.68216371614850257     
  0.53256483288000001       0.35783053929253711     
  0.21202323690600003        5.3983030275847881E-002

[MO]
Sym=     1a
Ene=  -0.74077972289515115     
Spin= Alpha
Occup=     2.00000000
           1 -0.24460787090394745     
           2  0.13980794904698701     
           3  -3.7349638126982110E-002
           4  -1.1919947097283170E-002
           5 -0.37911403324040160     
           6   2.7000803201688295E-003
           7 -0.18200922347126067     
           8  0.12422610542330681     
           9 -0.22682791106690903     
          10  -7.1090739200140585E-002
          11  0.10242849225094657     
          12  -3.1757258573469227E-002
          13 -0.24461454773520963     
          14 -0.13736277554366208     
          15  -4.4259211567677412E-002
          16  -1.6027687215416375E-002
          17 -0.22681186563024794     
          18   6.6812778007999549E-002
          19  0.10585819490085467     
          20  -2.9708744346613667E-002
Sym=     2a
Ene=  -0.67502920473833350     
Spin= Alpha
Occup=     2.00000000
           1  0.39869260916835836     
           2  -6.5822119651882463E-002
           3   3.2862140961451743E-002
           4   4.0987201422994536E-002
           5  -3.4964080474933310E-005
           6  0.40021575624402628     
           7   9.9877076954555666E-003
           8   5.9352416825368673E-003
           9 -0.20157592631961063     
          10   9.1584054921941369E-002
          11  0.11700358321285173     
          12  -2.9944580275535274E-002
          13 -0.39870042959774088     
          14  -6.2875706247760801E-002
          15  -3.6040492176809047E-002
          16  -4.2903365414954479E-002
          17  0.20164338389199729     
          18   9.6334522474879447E-002
          19 -0.11232341773778380     
          20   3.2728376490296598E-002
Sym=     3a
Ene=  -0.65549983096919751     
Spin= Alpha
Occup=     2.00000000
           1   5.8250587222511759E-002
           2  -7.8145573224283657E-002
           3 -0.20350332882650007     
           4   7.1572728040330547E-002
           5  0.51572379532323465     
           6   4.8481532132489853E-003
           7 -0.17233847455826040     
           8  -3.4485167583703430E-002
           9 -0.36153863516201318     
          10 -0.10337617387726006     
          11  -1.9469909435963710E-002
          12   1.0257431040489913E-002
          13   5.8182996244989092E-002
          14   8.6021587369938826E-002
          15 -0.19940938202615183     
          16   7.3994983568219319E-002
          17 -0.36149394313903954     
          18  0.10388801648855096     
          19  -1.4316221259101286E-002
          20   1.3336310263470279E-002
Sym=     4a
Ene=  -0.58863750793162573     
Spin= Alpha
Occup=     2.00000000
           1   1.9400401846701408E-002
           2 -0.10128463554297031     
           3 -0.30081973567475384     
           4  0.14394186470189282     
           5   1.0463659926231657E-006
           6  0.39023918602255531     
           7   9.7462089525162231E-003
           8   5.7844315559424375E-003
           9  0.33988690505105718     
          10 -0.18369892091554779     
          11  -3.9912487328594586E-002
          12  -2.2901473087346660E-002
          13  -1.9445210429214405E-002
          14 -0.11180968344947784     
          15  0.29550769501428065     
          16 -0.14709410800879111     
          17 -0.33988318848406857     
          18 -0.18607582908683398     
          19   3.0718975077829152E-002
          20   1.7427596759307742E-002
Sym=     5a
Ene=  -0.57942955302801324     
Spin= Alpha
Occup=     2.00000000
           1 -0.28223566767911468     
           2 -0.10532281836415804     
           3  -8.4374459913014344E-002
           4  0.15438841434855549     
           5  0.28644673626260686     
           6  -1.9983537423415338E-003
           7  -6.4023885888323320E-002
           8  0.24121800070579758     
           9  0.14807453070275212     
          10  0.27508795488223203     
          11  0.25787062944109185     
          12   5.1271338369383683E-002
          13 -0.28222531427033526     
          14  0.10477770925247648     
          15  -7.9169731665295909E-002
          16  0.15752206920476183     
          17  0.14808640900486339     
          18 -0.28897608405708253     
          19  0.24380695609889674     
          20   4.2904193475105809E-002
Sym=     6a
Ene=  -0.57097177695769197     
Spin= Alpha
Occup=     2.00000000
           1   1.8455224835684698E-002
           2   7.4499123676588508E-002
           3  0.16868063813747455     
           4  0.26072183561196316     
           5   4.9742480399484167E-002
           6  -1.5168804830080759E-002
           7  0.33354263138663526     
           8  0.46253106199295979     
           9  -8.4602093947572704E-002
          10 -0.13881735990172528     
          11  -6.5668619671181108E-002
          12  0.24432835016764384     
          13   1.8451247368217499E-002
          14  -9.0494333455603704E-002
          15  0.16457553997994659     
          16  0.25827637184508351     
          17  -8.4591531041028123E-002
          18  0.13461968727332113     
          19  -5.8853429162766764E-002
          20  0.24837249686485000     
Sym=     7a
Ene=  -0.51634134367881745     
Spin= Alpha
Occup=     2.00000000
           1  0.25063851011097654     
           2  0.25367739994992650     
           3  -7.9638380320294529E-003
           4   3.4076070785326235E-002
           5  0.22102826946118154     
           6   8.5736407109433914E-003
           7 -0.50781590637991569     
           8  0.27649398280013843     
           9  0.29039561933481506     
          10 -0.17625049171664986     
          11  0.13655048875407669     
          12  -7.5509800994167167E-002
          13  0.25064839176279985     
          14 -0.25386784291742093     
          15  -2.0597537347187906E-002
          16   2.6540981422502490E-002
          17  0.29036662220890891     
          18  0.17136470886429925     
          19  0.14518696564822850     
          20  -7.0344374353586953E-002
Sym=     8a
Ene=  -0.45090224056649569     
Spin= Alpha
Occup=     2.00000000
           1 -0.15432496536214235     
           2  -9.0545587895477286E-002
           3  0.13307530535738193     
           4  -6.6169219641444899E-002
           5  0.22549612654206158     
           6  -1.0419654281131939E-002
           7   6.9737177653864779E-002
           8  0.48968684709664140     
           9  -4.0840443659402897E-002
          10   1.5065984700054604E-003
          11 -0.20514361394620695     
          12 -0.47496906661213084     
          13 -0.15990141117548873     
          14   8.9652334370813019E-002
          15  0.14098553891896928     
          16  -5.6233614417753569E-002
          17  -4.4512211564244876E-002
          18   2.1815324473590369E-002
          19 -0.20771132910698867     
          20 -0.47872616983820415     
Sym=     9a
Ene=  -0.45068022578433792     
Spin= Alpha
Occup=     2.00000000
           1 -0.31093940077877058     
           2 -0.24048315547162849     
           3  0.18492554506674330     
           4  0.39864415695345728     
           5   2.0280680250664464E-003
           6  0.15816330718995808     
           7   4.5776383741195454E-003
           8   6.7643618908264629E-003
           9 -0.20417378826304830     
          10   6.9114072069875673E-002
          11 -0.17175023247506871     
          12 -0.22925487114078166     
          13  0.30812890785116104     
          14 -0.21749728427989085     
          15 -0.19387436140122727     
          16 -0.40653324946224012     
          17  0.20339911553751111     
          18   5.4029154999954594E-002
          19  0.17108774760409953     
          20  0.22248354354906191     
Sym=    10a
Ene=  -0.40820716632871024     
Spin= Alpha
Occup=     1.00000000
           1 -0.21680865115077361     
           2 -0.50907318405236779     
           3   1.2469564772162770E-002
           4 -0.32193091773797833     
           5  -9.9574669450594152E-004
           6  0.17709045337633911     
           7   5.1844129364901053E-003
           8   3.7119770571250972E-003
           9 -0.11394935430420600     
          10  -5.0891208006958448E-002
          11   8.0838156258712102E-002
          12  0.24012288894989664     
          13  0.22016278323998553     
          14 -0.52015600728355826     
          15  -4.0620890495649258E-002
          16  0.30726016198113160     
          17  0.11232030955572526     
          18  -4.3878572128350744E-002
          19  -8.4687459033525217E-002
          20 -0.24226956175911638     
Sym=    11a
Ene=  -0.40729785060485219     
Spin= Alpha
Occup=     1.00000000
           1  0.32663469692691421     
           2  0.30837776349752710     
           3 -0.23767540054952102     
           4   6.3625253242516597E-002
           5 -0.19520920093236607     
           6  -7.8070194695875842E-003
           7  0.14888824819858754     
           8  0.21345297724896081     
           9 -0.15711220214497232     
          10  0.42205165892775010     
          11 -0.13655587537683025     
          12  -6.7087912899555860E-002
          13  0.32439097931556682     
          14 -0.29260334413328187     
          15 -0.25243482266364231     
          16   5.1498716940004546E-002
          17 -0.15838555357838727     
          18 -0.41217197635709102     
          19 -0.15661781024107688     
          20  -7.6937142162893130E-002
Sym=    12a
Ene=  -0.38791763780642041     
Spin= Alpha
Occup=     0.99993841
           1   4.3039607195068134E-003
           2  -9.8722553796847037E-002
           3  0.31049216856953887     
           4   5.8572580282181437E-002
           5   2.5588122355247539E-005
           6 -0.12659170301685665     
           7  -3.2519339689951266E-003
           8  -1.8915321237376358E-003
           9  0.32664186655703770     
          10 -0.20143406479752599     
          11  0.48059225341072076     
          12 -0.20867668833868031     
          13  -4.4269737956386199E-003
          14  -8.1258332690627419E-002
          15 -0.31487232526375547     
          16  -6.1267616065629082E-002
          17 -0.32664555660296957     
          18 -0.18328081206137994     
          19 -0.49025962541341594     
          20  0.20306050498043676     
Sym=    13a
Ene=  -0.36949655875121495     
Spin= Alpha
Occup=     0.00006159
           1 -0.13744247644062052     
           2  -2.2733870301217606E-002
           3  0.17396647226386636     
           4 -0.11421365393500325     
           5   4.0172822548280515E-002
           6   1.4994332238397983E-002
           7 -0.67325225063802263     
           8  0.12188557907723700     
           9  -4.9515684281477380E-002
          10  0.20579683465116760     
          11 -0.37019267479882273     
          12  0.28758152298263856     
          13 -0.13743173019464652     
          14   1.7423279716501622E-002
          15  0.17505393209207154     
          16 -0.11359952964202065     
          17  -4.9445275194982617E-002
          18 -0.19549566872417820     
          19 -0.38005465157778068     
          20  0.28155808181574499     
Sym=    14a
Ene=  -0.24948323703985503     
Spin= Alpha
Occup=     0.00000000
           1   4.3195304176692033E-002
           2  -3.6734102996746544E-002
           3 -0.16609310512281325     
           4 -0.62890825526453731     
           5  0.16129977874718679     
           6  -1.4153840102728426E-002
           7  0.27224712054878103     
           8  0.49789575389768226     
           9  -2.6245143193076820E-003
          10  -5.1777628189964911E-002
          11  0.12659899358926896     
          12  0.24768852263841162     
          13   4.3212976533811905E-002
          14   6.3628065308047266E-002
          15 -0.16367372826206128     
          16 -0.62759046997902335     
          17  -2.6470479946692940E-003
          18   3.8053126185787024E-002
          19  0.12876637485887199     
          20  0.24874267241667833     
Sym=    15a
Ene=  -0.22515674296298452     
Spin= Alpha
Occup=     0.00000000
           1   6.2223886697402073E-002
           2 -0.11365556466696007     
           3 -0.16705685500028802     
           4 -0.40478020880578580     
           5   3.0367756366646767E-005
           6  -7.5487126333195070E-002
           7  -1.8292466843038300E-003
           8  -1.0149413098843863E-003
           9  -5.4328007987644783E-002
          10   7.1555178808692887E-004
          11 -0.14041296210528345     
          12 -0.67776807190453459     
          13  -6.2199975011129574E-002
          14 -0.13373825928174693     
          15  0.16082651430485459     
          16  0.40084544138011519     
          17   5.4330276486667654E-002
          18  -2.6338804432180639E-002
          19  0.13983115753109912     
          20  0.67751654961076258     
Sym=    16a
Ene=   0.12465157433986472     
Spin= Alpha
Occup=     0.00000000
           1   7.0999073526932036E-002
           2 -0.46355193695033592     
           3 -0.55005555518201954     
           4  0.19536720459642468     
           5 -0.80527302118724664     
           6  -1.3528963648037164E-003
           7 -0.18119202326760592     
           8  0.40003797461591223     
           9  0.29691308479153361     
          10 -0.21449200972975926     
          11 -0.24644289038018283     
          12   2.9078451695143417E-002
          13   7.0968027731946756E-002
          14  0.48437143190368748     
          15 -0.52657008898463364     
          16  0.20947812154022938     
          17  0.29678330674344355     
          18  0.22557725350452718     
          19 -0.23533983605657993     
          20   3.5574795097500854E-002
Sym=    17a
Ene=   0.18601384385890407     
Spin= Alpha
Occup=     0.00000000
           1 -0.21897964987872526     
           2   5.2341957311761098E-002
           3  0.14039935024681438     
           4 -0.16401935248916558     
           5   1.0777171299151177E-004
           6  0.45358244950975002     
           7   1.1353203499666684E-002
           8   6.6655488511087914E-003
           9  0.60113562269987431     
          10  0.80582591517477242     
          11   6.6828997849550948E-003
          12  -2.7114745520721798E-002
          13  0.21883444738729660     
          14   5.4217478155197632E-002
          15 -0.13776462060122330     
          16  0.16556582082302099     
          17 -0.60107337827916529     
          18  0.80402296232806314     
          19   3.3377149146763860E-002
          20   5.1002218933621661E-002
Sym=    18a
Ene=   0.33574067525581786     
Spin= Alpha
Occup=     0.00000000
           1  -7.9139812473793342E-002
           2 -0.22978389108292976     
           3 -0.65413711452225731     
           4  0.28907781245199810     
           5  -2.4694196565297905E-004
           6 -0.66471370246023642     
           7  -1.6707622234790366E-002
           8  -9.7140374194515100E-003
           9 -0.17054251966665432     
          10  0.46152481695687031     
          11  0.52217791383200418     
          12  -3.7744650682105418E-002
          13   7.9567462416157489E-002
          14 -0.25297067879847018     
          15  0.64231223406320048     
          16 -0.29620157981883560     
          17  0.17030657090495091     
          18  0.48554411641839224     
          19 -0.49831176390090043     
          20   5.1735121010891359E-002
Sym=    19a
Ene=   0.39847571531753939     
Spin= Alpha
Occup=     0.00000000
           1  0.62635558652971346     
           2 -0.50338924269900442     
           3  0.43905029465343204     
           4  -8.0524861969123174E-003
           5 -0.50171817392918294     
           6   4.7277029623568187E-003
           7 -0.33942661182789635     
           8  0.28222229505922497     
           9 -0.43974686690974607     
          10  0.16611174611524304     
          11  0.46493351327981297     
          12  -7.1938343386336798E-002
          13  0.62660937833131236     
          14  0.48134470657011286     
          15  0.46317374815783091     
          16   6.8417434187247553E-003
          17 -0.43984463516131944     
          18 -0.18703808951026266     
          19  0.45631009402539968     
          20  -7.7150452583922766E-002
Sym=    20a
Ene=   0.50558944056414934     
Spin= Alpha
Occup=     0.00000000
           1  0.68771870456614814     
           2 -0.54324848886027055     
           3  0.18881898710023612     
           4  0.14462276000013954     
           5  -5.9827344427932621E-005
           6 -0.76124136247231899     
           7  -1.9047779859356444E-002
           8  -1.1242101419806029E-002
           9  0.45814288390084829     
          10  0.13653508724820210     
          11 -0.48556423083762140     
          12  0.12471716643362499     
          13 -0.68744775435907446     
          14 -0.52851475820324934     
          15 -0.21528207421236650     
          16 -0.16052282813764113     
          17 -0.45836114046314885     
          18  0.11574229653598941     
          19  0.49209087713484917     
          20 -0.12101363232999540     
