$hessian                                                                        
        0.4197169764  -0.0345180170   0.0856605714  -0.2700336161   0.0458176359
       -0.0349569023  -0.0481829287   0.0545867856   0.0017163360  -0.0816119217
       -0.0603063538  -0.0718103332  -0.0198885098  -0.0055800506   0.0193903281
       -0.0345180170   0.4034322681   0.1078316959   0.0400201075  -0.0405290452
        0.0039162729   0.0631876541  -0.2572637137   0.0014521772  -0.0639281225
       -0.1114208026  -0.1098522438  -0.0047616221   0.0057812934  -0.0033479022
        0.0856605714   0.1078316959   0.1789565027  -0.0218963890   0.0022485220
       -0.0323819129  -0.0033526125  -0.0147206644  -0.0198745091  -0.0779719445
       -0.0922440869  -0.1323218809   0.0175603746  -0.0031154667   0.0056218002
       -0.2700336161   0.0400201075  -0.0218963890   0.4512866192  -0.0273467231
       -0.0563280044  -0.0176770232   0.0185755175  -0.0113887053  -0.0242111828
        0.0016455422  -0.0211793634  -0.1393647970  -0.0328944442   0.1107924621
        0.0458176359  -0.0405290452   0.0022485220  -0.0273467231   0.0733943444
       -0.0600375840   0.0243510219  -0.0076231275   0.0091544307  -0.0079111797
        0.0058271377  -0.0026990285  -0.0349107550  -0.0310693094   0.0513336598
       -0.0349569023   0.0039162729  -0.0323819129  -0.0563280044  -0.0600375840
        0.1949004837  -0.0046110907   0.0015825017   0.0024700801  -0.0194262532
        0.0037780188  -0.0044416577   0.1153222506   0.0507607906  -0.1605469932
       -0.0481829287   0.0631876541  -0.0033526125  -0.0176770232   0.0243510219
       -0.0046110907   0.0608023951  -0.0765576723   0.0083820465   0.0041760701
       -0.0111224450  -0.0016722478   0.0008814868   0.0001414414   0.0012539045
        0.0545867856  -0.2572637137  -0.0147206644   0.0185755175  -0.0076231275
        0.0015825017  -0.0765576723   0.2831619449   0.0141342863   0.0032716507
       -0.0199633936  -0.0014816103   0.0001237185   0.0016882900   0.0004854868
        0.0017163360   0.0014521772  -0.0198745091  -0.0113887053   0.0091544307
        0.0024700801   0.0083820465   0.0141342863   0.0184498387   0.0022861963
       -0.0204528402  -0.0006958991  -0.0009958735  -0.0042880540  -0.0003495106
       -0.0816119217  -0.0639281225  -0.0779719445  -0.0242111828  -0.0079111797
       -0.0194262532   0.0041760701   0.0032716507   0.0022861963   0.1009043905
        0.0697327782   0.0945415483   0.0007426439  -0.0011651267   0.0005704530
       -0.0603063538  -0.1114208026  -0.0922440869   0.0016455422   0.0058271377
        0.0037780188  -0.0111224450  -0.0199633936  -0.0204528402   0.0697327782
        0.1267225841   0.1106453437   0.0000504784  -0.0011655256  -0.0017264354
       -0.0718103332  -0.1098522438  -0.1323218809  -0.0211793634  -0.0026990285
       -0.0044416577  -0.0016722478  -0.0014816103  -0.0006958991   0.0945415483
        0.1106453437   0.1348351757   0.0001203960   0.0033875390   0.0026242620
       -0.0198885098  -0.0047616221   0.0175603746  -0.1393647970  -0.0349107550
        0.1153222506   0.0008814868   0.0001237185  -0.0009958735   0.0007426439
        0.0000504784   0.0001203960   0.1576291762   0.0394981801  -0.1320071477
       -0.0055800506   0.0057812934  -0.0031154667  -0.0328944442  -0.0310693094
        0.0507607906   0.0001414414   0.0016882900  -0.0042880540  -0.0011651267
       -0.0011655256   0.0033875390   0.0394981801   0.0247652517  -0.0467448090
        0.0193903281  -0.0033479022   0.0056218002   0.1107924621   0.0513336598
       -0.1605469932   0.0012539045   0.0004854868  -0.0003495106   0.0005704530
       -0.0017264354   0.0026242620  -0.1320071477  -0.0467448090   0.1526504415
