5
 energy: -5.489511853221 gnorm: 0.064286917174 xtb: 6.2.2 (9d81278992624c895f80dd42a50cac0aa55982e2)
C        -0.58611700000000   -0.06983500000000    0.32692500000000
C         0.90086000000000   -0.32508600000000    0.47252500000000
H        -0.76965900000000    1.01567700000000    0.18592700000000
H        -0.98094500000000   -0.63202000000000   -0.54483300000000
H         1.43586100000000    0.01126400000000   -0.44054300000000
5
 energy: -5.496575711903 gnorm: 0.024956353847 xtb: 6.2.2 (9d81278992624c895f80dd42a50cac0aa55982e2)
C        -0.55458807636720   -0.04632457323905    0.26479847332375
C         0.88200059376697   -0.30227727343603    0.42655268940116
H        -0.82961314486367    1.02323779952363    0.23122491048188
H        -1.04511804584063   -0.65736953984368   -0.51413231433376
H         1.54731867330454   -0.01726641300487   -0.40844275887303
5
 energy: -5.497569468155 gnorm: 0.011911066444 xtb: 6.2.2 (9d81278992624c895f80dd42a50cac0aa55982e2)
C        -0.54517981735930   -0.04342975597724    0.25555142165217
C         0.86884382029036   -0.28948031285025    0.40149911935701
H        -0.84481422108892    1.00451469277144    0.23349957025699
H        -1.05616415223252   -0.64367599655340   -0.49747904412818
H         1.57731437039039   -0.02792862739055   -0.39307006713799
5
 energy: -5.497734138140 gnorm: 0.006804180088 xtb: 6.2.2 (9d81278992624c895f80dd42a50cac0aa55982e2)
C        -0.54061154692932   -0.03902684127155    0.24430313871275
C         0.87796280447951   -0.28874548451130    0.39721352668097
H        -0.85817778091050    1.00577355656674    0.23853981948793
H        -1.06989938398542   -0.64535078921818   -0.49374379417403
H         1.59072590734573   -0.03265044156571   -0.38631169070761
5
 energy: -5.497787985847 gnorm: 0.001679594150 xtb: 6.2.2 (9d81278992624c895f80dd42a50cac0aa55982e2)
C        -0.54373109745396   -0.03617798524778    0.23878165355467
C         0.87994321316384   -0.28667614878514    0.39196243789434
H        -0.86155393370237    1.00588037410151    0.24263004976516
H        -1.07359796084959   -0.64770020188504   -0.49073659547804
H         1.59893977884208   -0.03532603818356   -0.38263654573613
5
 energy: -5.497792424603 gnorm: 0.000655759748 xtb: 6.2.2 (9d81278992624c895f80dd42a50cac0aa55982e2)
C        -0.54567324465911   -0.03432782468859    0.23517156433796
C         0.87937582004421   -0.28526942262671    0.38899772927007
H        -0.86233807885495    1.00624243493068    0.24569713591506
H        -1.07469779031345   -0.65000090878176   -0.48887203963916
H         1.60333329378331   -0.03664427883362   -0.38099338988393
