 Entering Gaussian System
 *********************************************
 Gaussian 98:
 frequency output generated by the xtb code
 *********************************************
                         Standard orientation:
 --------------------------------------------------------------------
  Center     Atomic     Atomic              Coordinates (Angstroms)
  Number     Number      Type              X           Y           Z
 --------------------------------------------------------------------
    1          6             0       -0.545673   -0.034325    0.235174
    2          6             0        0.879376   -0.285273    0.388995
    3          1             0       -0.862332    1.006247    0.245698
    4          1             0       -1.074703   -0.649996   -0.488867
    5          1             0        1.603332   -0.036653   -0.380999
 --------------------------------------------------------------------
     1 basis functions        1 primitive gaussians
     1 alpha electrons        1 beta electrons

 Harmonic frequencies (cm**-1), IR intensities (KM/Mole),
 Raman scattering activities (A**4/amu), Raman depolarization ratios,
 reduced masses (AMU), force constants (mDyne/A) and normal coordinates:
                      1                      2                      3
                        a                      a                      a 
 Frequencies --   625.5673               702.6320               907.7203
 Red. masses --     2.0239                 2.5169                 4.1144
 Frc consts  --     0.0000                 0.0000                 0.0000
 IR Inten    --     0.1673                 0.1991                 0.1955
 Raman Activ --     0.0000                 0.0000                 0.0000
 Depolar     --     0.0000                 0.0000                 0.0000
 Atom AN      X      Y      Z        X      Y      Z        X      Y      Z
   1   6     0.01   0.09   0.04    -0.04   0.14  -0.31     0.28   0.10  -0.30
   2   6    -0.03  -0.26  -0.12     0.14  -0.01  -0.01    -0.06  -0.12   0.30
   3   1     0.16   0.07  -0.35    -0.34  -0.10   0.45    -0.06  -0.04   0.24
   4   1    -0.17  -0.17   0.30    -0.36  -0.19   0.41    -0.08  -0.14   0.19
   5   1     0.09   0.71   0.31     0.34  -0.15   0.25    -0.60   0.26  -0.42
                      4                      5                      6
                        a                      a                      a 
 Frequencies --   924.5091              1227.4411              1332.5871
 Red. masses --     3.3823                11.0591                 1.9786
 Frc consts  --     0.0000                 0.0000                 0.0000
 IR Inten    --     0.0340                 0.2409                 0.0245
 Raman Activ --     0.0000                 0.0000                 0.0000
 Depolar     --     0.0000                 0.0000                 0.0000
 Atom AN      X      Y      Z        X      Y      Z        X      Y      Z
   1   6    -0.04  -0.34  -0.15     0.62  -0.10   0.05     0.27  -0.07   0.09
   2   6     0.03   0.24   0.11    -0.68   0.16  -0.16     0.03  -0.03   0.05
   3   1     0.61   0.11   0.09     0.06  -0.05   0.10    -0.54  -0.16  -0.37
   4   1    -0.56   0.27   0.07     0.06  -0.06   0.10    -0.46   0.49  -0.08
   5   1    -0.01  -0.03  -0.02     0.10  -0.10   0.18    -0.04   0.02  -0.03
                      7                      8                      9
                        a                      a                      a 
 Frequencies --  2908.0321              2931.9043              2945.5714
 Red. masses --     1.7408                 1.4087                 2.0955
 Frc consts  --     0.0000                 0.0000                 0.0000
 IR Inten    --     0.1787                 0.1517                 0.1827
 Raman Activ --     0.0000                 0.0000                 0.0000
 Depolar     --     0.0000                 0.0000                 0.0000
 Atom AN      X      Y      Z        X      Y      Z        X      Y      Z
   1   6     0.02  -0.02   0.03    -0.13   0.06  -0.10    -0.04  -0.28  -0.13
   2   6    -0.17  -0.06   0.18    -0.06  -0.01   0.04    -0.00  -0.01  -0.00
   3   1    -0.05   0.17   0.01     0.18  -0.65  -0.05    -0.21   0.63   0.00
   4   1    -0.08  -0.11  -0.11     0.31   0.41   0.42     0.34   0.37   0.45
   5   1     0.64   0.20  -0.64     0.17   0.05  -0.17     0.00   0.00   0.00
