2
 energy: -5.532304188965 gnorm: 0.327895295245 xtb: 6.2.2 (9d81278992624c895f80dd42a50cac0aa55982e2)
N         0.70000000000000    0.00000000000000    0.00000000000000
N        -0.70000000000000    0.00000000000000    0.00000000000000
2
 energy: -5.601918916833 gnorm: 0.122955112069 xtb: 6.2.2 (9d81278992624c895f80dd42a50cac0aa55982e2)
N         0.60015848225276    0.00000000000000    0.00000000000000
N        -0.60015848225276   -0.00000000000000    0.00000000000000
2
 energy: -5.592307554509 gnorm: 0.306613563598 xtb: 6.2.2 (9d81278992624c895f80dd42a50cac0aa55982e2)
N         0.54171901705305    0.00000000000000    0.00000000000000
N        -0.54171901705305   -0.00000000000000    0.00000000000000
2
 energy: -5.605583853124 gnorm: 0.032178579338 xtb: 6.2.2 (9d81278992624c895f80dd42a50cac0aa55982e2)
N         0.58292554621477    0.00000000000000    0.00000000000000
N        -0.58292554621477   -0.00000000000000    0.00000000000000
2
 energy: -5.605795295523 gnorm: 0.008019281145 xtb: 6.2.2 (9d81278992624c895f80dd42a50cac0aa55982e2)
N         0.57901216584643    0.00000000000000    0.00000000000000
N        -0.57901216584643   -0.00000000000000    0.00000000000000
2
 energy: -5.605808711967 gnorm: 0.000317442979 xtb: 6.2.2 (9d81278992624c895f80dd42a50cac0aa55982e2)
N         0.57771319941442    0.00000000000000    0.00000000000000
N        -0.57771319941442   -0.00000000000000    0.00000000000000
2
 energy: -5.605808727203 gnorm: 0.000163718173 xtb: 6.2.2 (9d81278992624c895f80dd42a50cac0aa55982e2)
N         0.57778739183025    0.00000000000000    0.00000000000000
N        -0.57778739183025   -0.00000000000000    0.00000000000000
