[Molden Format]
[Title]
[Atoms] AU
N      1     7  0.10918598274968E+01 -0.57169646880750E-05 -0.38113097920829E-05
N      2     7 -0.10918598274968E+01  0.57169646880388E-05  0.38113097920829E-05
[GTO]
           1 0
 s           4   1.0000000000000000     
   63.594024466941008      -0.19234388414721629     
   10.951417231523665      -0.23478107924953728     
  0.87999310257376984       0.37593753901700888     
  0.33538715296521110       0.14982889271862770     
 p           4   1.0000000000000000     
   7.2965040481495080       0.97658666315667420     
   1.8918745450712575       0.90372226730345739     
  0.66694432110824120       0.47404958461536373     
  0.26552202674130870        7.1516067715011844E-002

           2 0
 s           4   1.0000000000000000     
   63.594024466941008      -0.19234388414721629     
   10.951417231523665      -0.23478107924953728     
  0.87999310257376984       0.37593753901700888     
  0.33538715296521110       0.14982889271862770     
 p           4   1.0000000000000000     
   7.2965040481495080       0.97658666315667420     
   1.8918745450712575       0.90372226730345739     
  0.66694432110824120       0.47404958461536373     
  0.26552202674130870        7.1516067715011844E-002

[MO]
Sym=     1a
Ene=  -0.69906580938970442     
Spin= Alpha
Occup=     2.00000000
           1 -0.50100623444872350     
           2  0.24548372116912753     
           3  -1.2829399920074722E-006
           4  -8.5529332798890803E-007
           5 -0.50100622577066745     
           6 -0.24548372303029053     
           7   1.2829400022757341E-006
           8   8.5529333457399839E-007
Sym=     2a
Ene=  -0.58482246148797534     
Spin= Alpha
Occup=     2.00000000
           1  0.60890930394866727     
           2  0.33619427459887374     
           3  -1.7960194340569022E-006
           4  -1.1973462909470505E-006
           5 -0.60890929891490253     
           6  0.33619425645128542     
           7  -1.7960193380681733E-006
           8  -1.1973462272304116E-006
Sym=     3a
Ene=  -0.55083962903461092     
Spin= Alpha
Occup=     2.00000000
           1  -8.3424667850050827E-009
           2  -8.1759777207559217E-007
           3 -0.45364844976011359     
           4  0.44755341396550319     
           5   8.3424653288527949E-009
           6  -8.1759775718862590E-007
           7 -0.45364844255442638     
           8  0.44755340685663042     
Sym=     4a
Ene=  -0.55083962894413940     
Spin= Alpha
Occup=     2.00000000
           1   4.0293350018074381E-008
           2   3.9489219158109277E-006
           3  0.44755341394987452     
           4  0.45364844975158841     
           5  -4.0293348049050613E-008
           6   3.9489218504157668E-006
           7  0.44755340684100037     
           8  0.45364844254590292     
Sym=     5a
Ene=  -0.48022063463740094     
Spin= Alpha
Occup=     1.00000000
           1  0.41884834857477488     
           2  0.59317541159269260     
           3  -3.1142475098153307E-006
           4  -2.0761650051184734E-006
           5  0.41884836560324723     
           6 -0.59317541867708845     
           7   3.1142475444441005E-006
           8   2.0761650296737700E-006
Sym=     6a
Ene=  -0.31278296655273508     
Spin= Alpha
Occup=     0.50000001
           1   1.4157441340211569E-009
           2   1.0225873015841931E-006
           3  0.57322710162741086     
           4 -0.56726763539656333     
           5   1.4157439056258790E-009
           6  -1.0225873115463415E-006
           7 -0.57322710731264348     
           8  0.56726764102268912     
Sym=     7a
Ene=  -0.31278296645431569     
Spin= Alpha
Occup=     0.49999999
           1  -6.8912753142966385E-009
           2  -4.9775464257515964E-006
           3 -0.56726763538941105     
           4 -0.57322710162899737     
           5  -6.8912751734936536E-009
           6   4.9775464749269810E-006
           7  0.56726764101553850     
           8  0.57322710731422877     
Sym=     8a
Ene=   0.53542807825063898     
Spin= Alpha
Occup=     0.00000000
           1 -0.81663690512366816     
           2  0.99710750769284517     
           3  -5.2207525496480342E-006
           4  -3.4805016997561187E-006
           5  0.81663690546717260     
           6  0.99710750913896840     
           7  -5.2207525571948504E-006
           8  -3.4805017048065780E-006
