2
 energy: -5.605808727203 gnorm: 0.000163374022 xtb: 6.2.2 (9d81278992624c895f80dd42a50cac0aa55982e2)
N         0.57778739181881   -0.00000302528771   -0.00000201685847
N        -0.57778739181881    0.00000302528771    0.00000201685847
