$hessian                                                                        
        0.9894601974   0.4656019693   0.1953975179  -0.9207612386  -0.4254162820
       -0.1792019474   0.0065249927   0.0096364821  -0.0043446062   0.0069383250
       -0.0011723642   0.0069105536  -0.0821622766  -0.0486498051  -0.0187615180
        0.4656019693   0.2373677288   0.0923940772  -0.4259443037  -0.2328593512
       -0.0845489427   0.0028231919   0.0033199594  -0.0032340896   0.0045632469
       -0.0009053617   0.0028954460  -0.0470441044  -0.0069229753  -0.0075064909
        0.1953975179   0.0923940772   0.0543333186  -0.1786723601  -0.0841840429
       -0.0657488361   0.0028428647   0.0015672322  -0.0012944820   0.0008293152
       -0.0012349824   0.0006754985  -0.0203973377  -0.0085422841   0.0120345010
       -0.9207612386  -0.4259443037  -0.1786723601   1.2089229752   0.5432077507
        0.2303640145  -0.0354939032  -0.0368379671   0.0066023892  -0.0276333790
       -0.0024108038  -0.0218352759  -0.2250344544  -0.0780146761  -0.0364587677
       -0.4254162820  -0.2328593512  -0.0841840429   0.5432077507   0.3286165638
        0.1078776071  -0.0111697819  -0.0070057765   0.0098941093  -0.0245700266
       -0.0017216563  -0.0080070264  -0.0820516601  -0.0870297798  -0.0255806471
       -0.1792019474  -0.0845489427  -0.0657488361   0.2303640145   0.1078776071
        0.1167062941  -0.0203272153  -0.0081063750   0.0041840693   0.0014216631
        0.0076299185   0.0001262885  -0.0322565150  -0.0228522079  -0.0552678158
        0.0065249927   0.0028231919   0.0028428647  -0.0354939032  -0.0111697819
       -0.0203272153   0.3869676326  -0.0005423756   0.2693644710   0.0110512469
        0.0799353374  -0.0778556347  -0.3690499690  -0.0710463718  -0.1740244857
        0.0096364821   0.0033199594   0.0015672322  -0.0368379671  -0.0070057765
       -0.0081063750  -0.0005423756   0.1580455456  -0.1605632531   0.0283834291
       -0.1481812881   0.1779024012  -0.0006395685  -0.0061784405  -0.0108000054
       -0.0043446062  -0.0032340896  -0.0012944820   0.0066023892   0.0098941093
        0.0041840693   0.2693644710  -0.1605632531   0.3613644297  -0.0241168372
        0.2140750955  -0.2370782588  -0.2475054168  -0.0601718622  -0.1271757582
        0.0069383250   0.0045632469   0.0008293152  -0.0276333790  -0.0245700266
        0.0014216631   0.0110512469   0.0283834291  -0.0241168372   0.1115134099
        0.0756475241  -0.0021949422  -0.1018696028  -0.0840241735   0.0240608011
       -0.0011723642  -0.0009053617  -0.0012349824  -0.0024108038  -0.0017216563
        0.0076299185   0.0799353374  -0.1481812881   0.2140750955   0.0756475241
        0.2687555201  -0.2248784674  -0.1519996934  -0.1179472140   0.0044084357
        0.0069105536   0.0028954460   0.0006754985  -0.0218352759  -0.0080070264
        0.0001262885  -0.0778556347   0.1779024012  -0.2370782588  -0.0021949422
       -0.2248784674   0.2353444701   0.0949752993   0.0520876465   0.0009320017
       -0.0821622766  -0.0470441044  -0.0203973377  -0.2250344544  -0.0820516601
       -0.0322565150  -0.3690499690  -0.0006395685  -0.2475054168  -0.1018696028
       -0.1519996934   0.0949752993   0.7781163028   0.2817350265   0.2051839703
       -0.0486498051  -0.0069229753  -0.0085422841  -0.0780146761  -0.0870297798
       -0.0228522079  -0.0710463718  -0.0061784405  -0.0601718622  -0.0840241735
       -0.1179472140   0.0520876465   0.2817350265   0.2180784097   0.0394787077
       -0.0187615180  -0.0075064909   0.0120345010  -0.0364587677  -0.0255806471
       -0.0552678158  -0.1740244857  -0.0108000054  -0.1271757582   0.0240608011
        0.0044084357   0.0009320017   0.2051839703   0.0394787077   0.1694770714
