 Entering Gaussian System, Link 0=g16
 Initial command:
 /applis/site/cecic/gaussian16/B.01/nehalem/g16/l1.exe "/bettik/tinaccil/g16/12213983_C6H4_1Ag/Gau-3099.inp" -scrdir="/bettik/tinaccil/g16/12213983_C6H4_1Ag/"
 Entering Link 1 = /applis/site/cecic/gaussian16/B.01/nehalem/g16/l1.exe PID=      3101.
  
 Copyright (c) 1988-2017, Gaussian, Inc.  All Rights Reserved.
  
 This is part of the Gaussian(R) 16 program.  It is based on
 the Gaussian(R) 09 system (copyright 2009, Gaussian, Inc.),
 the Gaussian(R) 03 system (copyright 2003, Gaussian, Inc.),
 the Gaussian(R) 98 system (copyright 1998, Gaussian, Inc.),
 the Gaussian(R) 94 system (copyright 1995, Gaussian, Inc.),
 the Gaussian 92(TM) system (copyright 1992, Gaussian, Inc.),
 the Gaussian 90(TM) system (copyright 1990, Gaussian, Inc.),
 the Gaussian 88(TM) system (copyright 1988, Gaussian, Inc.),
 the Gaussian 86(TM) system (copyright 1986, Carnegie Mellon
 University), and the Gaussian 82(TM) system (copyright 1983,
 Carnegie Mellon University). Gaussian is a federally registered
 trademark of Gaussian, Inc.
  
 This software contains proprietary and confidential information,
 including trade secrets, belonging to Gaussian, Inc.
  
 This software is provided under written license and may be
 used, copied, transmitted, or stored only in accord with that
 written license.
  
 The following legend is applicable only to US Government
 contracts under FAR:
  
                    RESTRICTED RIGHTS LEGEND
  
 Use, reproduction and disclosure by the US Government is
 subject to restrictions as set forth in subparagraphs (a)
 and (c) of the Commercial Computer Software - Restricted
 Rights clause in FAR 52.227-19.
  
 Gaussian, Inc.
 340 Quinnipiac St., Bldg. 40, Wallingford CT 06492
  
  
 ---------------------------------------------------------------
 Warning -- This program may not be used in any manner that
 competes with the business of Gaussian, Inc. or will provide
 assistance to any competitor of Gaussian, Inc.  The licensee
 of this program is prohibited from giving any competitor of
 Gaussian, Inc. access to this program.  By using this program,
 the user acknowledges that Gaussian, Inc. is engaged in the
 business of creating and licensing software in the field of
 computational chemistry and represents and warrants to the
 licensee that it is not a competitor of Gaussian, Inc. and that
 it will not use this program in any manner prohibited above.
 ---------------------------------------------------------------
  

 Cite this work as:
 Gaussian 16, Revision B.01,
 M. J. Frisch, G. W. Trucks, H. B. Schlegel, G. E. Scuseria, 
 M. A. Robb, J. R. Cheeseman, G. Scalmani, V. Barone, 
 G. A. Petersson, H. Nakatsuji, X. Li, M. Caricato, A. V. Marenich, 
 J. Bloino, B. G. Janesko, R. Gomperts, B. Mennucci, H. P. Hratchian, 
 J. V. Ortiz, A. F. Izmaylov, J. L. Sonnenberg, D. Williams-Young, 
 F. Ding, F. Lipparini, F. Egidi, J. Goings, B. Peng, A. Petrone, 
 T. Henderson, D. Ranasinghe, V. G. Zakrzewski, J. Gao, N. Rega, 
 G. Zheng, W. Liang, M. Hada, M. Ehara, K. Toyota, R. Fukuda, 
 J. Hasegawa, M. Ishida, T. Nakajima, Y. Honda, O. Kitao, H. Nakai, 
 T. Vreven, K. Throssell, J. A. Montgomery, Jr., J. E. Peralta, 
 F. Ogliaro, M. J. Bearpark, J. J. Heyd, E. N. Brothers, K. N. Kudin, 
 V. N. Staroverov, T. A. Keith, R. Kobayashi, J. Normand, 
 K. Raghavachari, A. P. Rendell, J. C. Burant, S. S. Iyengar, 
 J. Tomasi, M. Cossi, J. M. Millam, M. Klene, C. Adamo, R. Cammi, 
 J. W. Ochterski, R. L. Martin, K. Morokuma, O. Farkas, 
 J. B. Foresman, and D. J. Fox, Gaussian, Inc., Wallingford CT, 2016.
 
 ******************************************
 Gaussian 16:  ES64L-G16RevB.01 20-Dec-2017
                26-Sep-2020 
 ******************************************
 %nosave
 %nproc=8
 Will use up to    8 processors via shared memory.
 %mem=2gb
 %chk=input
 --------------------------------------------------------
 #P M062X/cc-pvtz nosymm opt(noeigentest) optcyc=120 freq
 --------------------------------------------------------
 1/6=120,11=1,18=20,19=15,26=3,38=1/1,3;
 2/9=110,12=2,15=1,17=6,18=5,40=1/2;
 3/5=16,6=1,11=2,25=1,30=1,71=1,74=-55/1,2,3;
 4//1;
 5/5=2,38=5/2;
 6/7=2,8=2,9=2,10=2,28=1/1;
 7/30=1/1,2,3,16;
 1/6=120,11=1,18=20,19=15,26=3/3(2);
 2/9=110,15=1/2;
 99//99;
 2/9=110,15=1/2;
 3/5=16,6=1,11=2,25=1,30=1,71=1,74=-55/1,2,3;
 4/5=5,16=3,69=1/1;
 5/5=2,38=5/2;
 7/30=1/1,2,3,16;
 1/6=120,11=1,18=20,19=15,26=3/3(-5);
 2/9=110,15=1/2;
 6/7=2,8=2,9=2,10=2,19=2,28=1/1;
 99/9=1/99;
 Leave Link    1 at Sat Sep 26 00:36:27 2020, MaxMem=   268435456 cpu:               0.8 elap:               0.1
 (Enter /applis/site/cecic/gaussian16/B.01/nehalem/g16/l101.exe)
 -----
 Title
 -----
 Symbolic Z-matrix:
 Charge =  0 Multiplicity = 1
 C
 C                    1    B1
 C                    1    B2       2    A2
 C                    2    B3       1    A3       3    D3       0
 H                    1    B4       2    A4       3    D4       0
 H                    2    B5       1    A5       3    D5       0
 C                    2    B6       1    A6       3    D6       0
 C                    2    B7       1    A7       3    D7       0
 H                    2    B8       1    A8       3    D8       0
 H                    2    B9       1    A9       3    D9       0
       Variables:
  B1                    1.34449                  
  B2                    1.4255                   
  A2                  122.81928                  
  B3                    1.4255                   
  A3                  122.81928                  
  D3                  180.                       
  B4                    1.08629                  
  A4                  119.52004                  
  D4                  180.                       
  B5                    1.08629                  
  A5                  119.52004                  
  D5                  360.                       
  B6                    3.54596                  
  A6                   38.59988                  
  D6                    0.                       
  B7                    2.63242                  
  A7                  122.81928                  
  D7                  180.                       
  B8                    4.56155                  
  A8                   42.84091                  
  D8                  360.                       
  B9                    3.69072                  
  A9                  122.81736                  
  D9                  180.                       
 
 ITRead=  0  0  0  0  0  0  0  0  0  0
 MicOpt= -1 -1 -1 -1 -1 -1 -1 -1 -1 -1
 NAtoms=     10 NQM=       10 NQMF=       0 NMMI=      0 NMMIF=      0
                NMic=       0 NMicF=      0.
                    Isotopes and Nuclear Properties:
 (Nuclear quadrupole moments (NQMom) in fm**2, nuclear magnetic moments (NMagM)
  in nuclear magnetons)

  Atom         1           2           3           4           5           6           7           8           9          10
 IAtWgt=          12          12          12          12           1           1          12          12           1           1
 AtmWgt=  12.0000000  12.0000000  12.0000000  12.0000000   1.0078250   1.0078250  12.0000000  12.0000000   1.0078250   1.0078250
 NucSpn=           0           0           0           0           1           1           0           0           1           1
 AtZEff=  -0.0000000  -0.0000000  -0.0000000  -0.0000000  -0.0000000  -0.0000000  -0.0000000  -0.0000000  -0.0000000  -0.0000000
 NQMom=    0.0000000   0.0000000   0.0000000   0.0000000   0.0000000   0.0000000   0.0000000   0.0000000   0.0000000   0.0000000
 NMagM=    0.0000000   0.0000000   0.0000000   0.0000000   2.7928460   2.7928460   0.0000000   0.0000000   2.7928460   2.7928460
 AtZNuc=   6.0000000   6.0000000   6.0000000   6.0000000   1.0000000   1.0000000   6.0000000   6.0000000   1.0000000   1.0000000
 Leave Link  101 at Sat Sep 26 00:36:27 2020, MaxMem=   268435456 cpu:               2.1 elap:               0.3
 (Enter /applis/site/cecic/gaussian16/B.01/nehalem/g16/l103.exe)

 GradGradGradGradGradGradGradGradGradGradGradGradGradGradGradGradGradGrad
 Berny optimization.
 Initialization pass.
                           ----------------------------
                           !    Initial Parameters    !
                           ! (Angstroms and Degrees)  !
 --------------------------                            --------------------------
 ! Name  Definition              Value          Derivative Info.                !
 --------------------------------------------------------------------------------
 ! R1    R(1,2)                  1.3445         estimate D2E/DX2                !
 ! R2    R(1,3)                  1.4255         estimate D2E/DX2                !
 ! R3    R(1,5)                  1.0863         estimate D2E/DX2                !
 ! R4    R(2,4)                  1.4255         estimate D2E/DX2                !
 ! R5    R(2,6)                  1.0863         estimate D2E/DX2                !
 ! R6    R(3,7)                  1.2069         estimate D2E/DX2                !
 ! R7    R(4,8)                  1.2069         estimate D2E/DX2                !
 ! R8    R(7,9)                  1.0583         estimate D2E/DX2                !
 ! R9    R(8,10)                 1.0583         estimate D2E/DX2                !
 ! A1    A(2,1,3)              122.8193         estimate D2E/DX2                !
 ! A2    A(2,1,5)              119.52           estimate D2E/DX2                !
 ! A3    A(3,1,5)              117.6607         estimate D2E/DX2                !
 ! A4    A(1,2,4)              122.8193         estimate D2E/DX2                !
 ! A5    A(1,2,6)              119.52           estimate D2E/DX2                !
 ! A6    A(4,2,6)              117.6607         estimate D2E/DX2                !
 ! A7    L(1,3,7,6,-1)         180.0002         estimate D2E/DX2                !
 ! A8    L(2,4,8,5,-1)         180.0            estimate D2E/DX2                !
 ! A9    L(3,7,9,6,-1)         179.9931         estimate D2E/DX2                !
 ! A10   L(4,8,10,5,-1)        179.9933         estimate D2E/DX2                !
 ! A11   L(1,3,7,6,-2)         180.0            estimate D2E/DX2                !
 ! A12   L(2,4,8,5,-2)         180.0            estimate D2E/DX2                !
 ! A13   L(3,7,9,6,-2)         180.0            estimate D2E/DX2                !
 ! A14   L(4,8,10,5,-2)        180.0            estimate D2E/DX2                !
 ! D1    D(3,1,2,4)            180.0            estimate D2E/DX2                !
 ! D2    D(3,1,2,6)              0.0            estimate D2E/DX2                !
 ! D3    D(5,1,2,4)              0.0            estimate D2E/DX2                !
 ! D4    D(5,1,2,6)            180.0            estimate D2E/DX2                !
 --------------------------------------------------------------------------------
 Trust Radius=3.00D-01 FncErr=1.00D-07 GrdErr=1.00D-06 EigMax=2.50D+02 EigMin=1.00D-04
 Number of steps in this run=    100 maximum allowed number of steps=    100.
 GradGradGradGradGradGradGradGradGradGradGradGradGradGradGradGradGradGrad

 Leave Link  103 at Sat Sep 26 00:36:28 2020, MaxMem=   268435456 cpu:               0.2 elap:               0.1
 (Enter /applis/site/cecic/gaussian16/B.01/nehalem/g16/l202.exe)
                          Input orientation:                          
 ---------------------------------------------------------------------
 Center     Atomic      Atomic             Coordinates (Angstroms)
 Number     Number       Type             X           Y           Z
 ---------------------------------------------------------------------
      1          6           0        0.000000    0.000000    0.000000
      2          6           0        0.000000    0.000000    1.344490
      3          6           0        1.197968    0.000000   -0.772608
      4          6           0       -1.197968    0.000000    2.117098
      5          1           0       -0.945272    0.000000   -0.535245
      6          1           0        0.945272    0.000000    1.879735
      7          6           0        2.212246    0.000000   -1.426755
      8          6           0       -2.212244    0.000000    2.771238
      9          1           0        3.101694    0.000000   -2.000242
     10          1           0       -3.101690    0.000000    3.344723
 ---------------------------------------------------------------------
                    Distance matrix (angstroms):
                    1          2          3          4          5
     1  C    0.000000
     2  C    1.344490   0.000000
     3  C    1.425500   2.432536   0.000000
     4  C    2.432536   1.425500   3.753786   0.000000
     5  H    1.086290   2.104030   2.156343   2.664354   0.000000
     6  H    2.104030   1.086290   2.664354   2.156343   3.066967
     7  C    2.632425   3.545960   1.206925   4.918176   3.280961
     8  C    3.545953   2.632420   4.918170   1.206920   3.540911
     9  H    3.690728   4.561550   2.265228   5.953115   4.303969
    10  H    4.561541   3.690720   5.953106   2.265220   4.438952
                    6          7          8          9         10
     6  H    0.000000
     7  C    3.540919   0.000000
     8  C    3.280958   6.099120   0.000000
     9  H    4.438962   1.058303   7.141776   0.000000
    10  H    4.303962   7.141773   1.058300   8.188445   0.000000
 Symmetry turned off by external request.
 Stoichiometry    C6H4
 Framework group  CS[SG(C6H4)]
 Deg. of freedom    17
 Full point group                 CS      NOp   2
 Rotational constants (GHZ):          45.6306856           1.4604678           1.4151734
 Leave Link  202 at Sat Sep 26 00:36:28 2020, MaxMem=   268435456 cpu:               0.3 elap:               0.1
 (Enter /applis/site/cecic/gaussian16/B.01/nehalem/g16/l301.exe)
 Standard basis: CC-pVTZ (5D, 7F)
 Ernie: Thresh=  0.10000D-02 Tol=  0.10000D-05 Strict=F.
 Ernie:  18 primitive shells out of 188 were deleted.
   236 basis functions,   380 primitive gaussians,   270 cartesian basis functions
    20 alpha electrons       20 beta electrons
       nuclear repulsion energy       161.8070010069 Hartrees.
 IExCor= 4336 DFT=T Ex+Corr=M062X ExCW=0 ScaHFX=  0.540000
 ScaDFX=  1.000000  1.000000  1.000000  1.000000 ScalE2=  1.000000  1.000000
 IRadAn=      5 IRanWt=     -1 IRanGd=            0 ICorTp=0 IEmpDi=  4
 NAtoms=   10 NActive=   10 NUniq=   10 SFac= 1.00D+00 NAtFMM=   60 NAOKFM=F Big=F
 Integral buffers will be    131072 words long.
 Raffenetti 2 integral format.
 Two-electron integral symmetry is turned off.
 Leave Link  301 at Sat Sep 26 00:36:28 2020, MaxMem=   268435456 cpu:               0.5 elap:               0.1
 (Enter /applis/site/cecic/gaussian16/B.01/nehalem/g16/l302.exe)
 NPDir=0 NMtPBC=     1 NCelOv=     1 NCel=       1 NClECP=     1 NCelD=      1
         NCelK=      1 NCelE2=     1 NClLst=     1 CellRange=     0.0.
 One-electron integrals computed using PRISM.
 NBasis=   236 RedAO= T EigKep=  2.39D-05  NBF=   236
 NBsUse=   236 1.00D-06 EigRej= -1.00D+00 NBFU=   236
 Precomputing XC quadrature grid using
 IXCGrd= 4 IRadAn=           5 IRanWt=          -1 IRanGd=           0 AccXCQ= 0.00D+00.
 Generated NRdTot=       0 NPtTot=           0 NUsed=           0 NTot=          32
 NSgBfM=   270   270   270   270   270 MxSgAt=    10 MxSgA2=    10.
 Leave Link  302 at Sat Sep 26 00:36:28 2020, MaxMem=   268435456 cpu:               2.1 elap:               0.3
 (Enter /applis/site/cecic/gaussian16/B.01/nehalem/g16/l303.exe)
 DipDrv:  MaxL=1.
 Leave Link  303 at Sat Sep 26 00:36:28 2020, MaxMem=   268435456 cpu:               0.5 elap:               0.2
 (Enter /applis/site/cecic/gaussian16/B.01/nehalem/g16/l401.exe)
 ExpMin= 1.03D-01 ExpMax= 8.24D+03 ExpMxC= 2.81D+02 IAcc=3 IRadAn=         5 AccDes= 0.00D+00
 Harris functional with IExCor= 1009 and IRadAn=       5 diagonalized for initial guess.
 HarFok:  IExCor= 1009 AccDes= 0.00D+00 IRadAn=         5 IDoV= 1 UseB2=F ITyADJ=14
 ICtDFT=  3500011 ScaDFX=  1.000000  1.000000  1.000000  1.000000
 FoFCou: FMM=F IPFlag=           0 FMFlag=      100000 FMFlg1=           0
         NFxFlg=           0 DoJE=T BraDBF=F KetDBF=T FulRan=T
         wScrn=  0.000000 ICntrl=       500 IOpCl=  0 I1Cent=   200000004 NGrid=           0
         NMat0=    1 NMatS0=      1 NMatT0=    0 NMatD0=    1 NMtDS0=    0 NMtDT0=    0
 Symmetry not used in FoFCou.
 Harris En= -230.814391032233    
 JPrj=0 DoOrth=F DoCkMO=F.
 Leave Link  401 at Sat Sep 26 00:36:29 2020, MaxMem=   268435456 cpu:               6.9 elap:               1.0
 (Enter /applis/site/cecic/gaussian16/B.01/nehalem/g16/l502.exe)
 Two-electron integral symmetry not used.
 Closed shell SCF:
 Using DIIS extrapolation, IDIIS=  1040.
 NGot=   268435456 LenX=   268285690 LenY=   268212349
 Requested convergence on RMS density matrix=1.00D-08 within 128 cycles.
 Requested convergence on MAX density matrix=1.00D-06.
 Requested convergence on             energy=1.00D-06.
 No special actions if energy rises.
 Fock matrices will be formed incrementally for  20 cycles.
 Integral accuracy reduced to 1.0D-05 until final iterations.

 Cycle   1  Pass 0  IDiag  1:
 FoFJK:  IHMeth= 1 ICntrl=       0 DoSepK=F KAlg= 0 I1Cent=           0 FoldK=F
 IRaf= 930000000 NMat=       1 IRICut=       1 DoRegI=T DoRafI=F ISym2E= 0 IDoP0=0 IntGTp=1.
 FoFCou: FMM=F IPFlag=           0 FMFlag=      100000 FMFlg1=           0
         NFxFlg=           0 DoJE=F BraDBF=F KetDBF=F FulRan=T
         wScrn=  0.000000 ICntrl=         0 IOpCl=  0 I1Cent=           0 NGrid=           0
         NMat0=    1 NMatS0=      1 NMatT0=    0 NMatD0=    1 NMtDS0=    0 NMtDT0=    0
 Symmetry not used in FoFCou.
 E= -230.691431636066    
 DIIS: error= 3.93D-02 at cycle   1 NSaved=   1.
 NSaved= 1 IEnMin= 1 EnMin= -230.691431636066     IErMin= 1 ErrMin= 3.93D-02
 ErrMax= 3.93D-02  0.00D+00 EMaxC= 1.00D-01 BMatC= 2.00D-01 BMatP= 2.00D-01
 IDIUse=3 WtCom= 6.07D-01 WtEn= 3.93D-01
 Coeff-Com:  0.100D+01
 Coeff-En:   0.100D+01
 Coeff:      0.100D+01
 Gap=     0.254 Goal=   None    Shift=    0.000
 GapD=    0.254 DampG=1.000 DampE=0.500 DampFc=0.5000 IDamp=-1.
 Damping current iteration by 5.00D-01
 RMSDP=2.80D-03 MaxDP=5.32D-02              OVMax= 1.39D-01

 Cycle   2  Pass 0  IDiag  1:
 RMSU=  1.39D-03    CP:  9.85D-01
 E= -230.788400000518     Delta-E=       -0.096968364451 Rises=F Damp=T
 DIIS: error= 8.88D-03 at cycle   2 NSaved=   2.
 NSaved= 2 IEnMin= 2 EnMin= -230.788400000518     IErMin= 2 ErrMin= 8.88D-03
 ErrMax= 8.88D-03  0.00D+00 EMaxC= 1.00D-01 BMatC= 1.57D-02 BMatP= 2.00D-01
 IDIUse=3 WtCom= 9.11D-01 WtEn= 8.88D-02
 Coeff-Com: -0.286D+00 0.129D+01
 Coeff-En:   0.000D+00 0.100D+01
 Coeff:     -0.261D+00 0.126D+01
 Gap=     0.263 Goal=   None    Shift=    0.000
 RMSDP=9.08D-04 MaxDP=2.08D-02 DE=-9.70D-02 OVMax= 5.57D-02

 Cycle   3  Pass 0  IDiag  1:
 RMSU=  8.50D-04    CP:  9.80D-01  1.23D+00
 E= -230.868004088710     Delta-E=       -0.079604088192 Rises=F Damp=F
 DIIS: error= 1.30D-03 at cycle   3 NSaved=   3.
 NSaved= 3 IEnMin= 3 EnMin= -230.868004088710     IErMin= 3 ErrMin= 1.30D-03
 ErrMax= 1.30D-03  0.00D+00 EMaxC= 1.00D-01 BMatC= 2.72D-04 BMatP= 1.57D-02
 IDIUse=3 WtCom= 9.87D-01 WtEn= 1.30D-02
 Coeff-Com: -0.486D-01 0.148D+00 0.901D+00
 Coeff-En:   0.000D+00 0.000D+00 0.100D+01
 Coeff:     -0.479D-01 0.146D+00 0.902D+00
 Gap=     0.259 Goal=   None    Shift=    0.000
 RMSDP=1.01D-04 MaxDP=1.55D-03 DE=-7.96D-02 OVMax= 5.59D-03

 Cycle   4  Pass 0  IDiag  1:
 RMSU=  9.87D-05    CP:  9.80D-01  1.24D+00  1.00D+00
 E= -230.868208337180     Delta-E=       -0.000204248471 Rises=F Damp=F
 DIIS: error= 7.55D-04 at cycle   4 NSaved=   4.
 NSaved= 4 IEnMin= 4 EnMin= -230.868208337180     IErMin= 4 ErrMin= 7.55D-04
 ErrMax= 7.55D-04  0.00D+00 EMaxC= 1.00D-01 BMatC= 8.90D-05 BMatP= 2.72D-04
 IDIUse=3 WtCom= 9.92D-01 WtEn= 7.55D-03
 Coeff-Com: -0.143D-01 0.372D-01 0.400D+00 0.577D+00
 Coeff-En:   0.000D+00 0.000D+00 0.114D+00 0.886D+00
 Coeff:     -0.142D-01 0.369D-01 0.398D+00 0.579D+00
 Gap=     0.260 Goal=   None    Shift=    0.000
 RMSDP=2.48D-05 MaxDP=7.08D-04 DE=-2.04D-04 OVMax= 3.11D-03

 Cycle   5  Pass 0  IDiag  1:
 RMSU=  2.15D-05    CP:  9.80D-01  1.24D+00  1.01D+00  8.99D-01
 E= -230.868293108387     Delta-E=       -0.000084771206 Rises=F Damp=F
 DIIS: error= 2.02D-04 at cycle   5 NSaved=   5.
 NSaved= 5 IEnMin= 5 EnMin= -230.868293108387     IErMin= 5 ErrMin= 2.02D-04
 ErrMax= 2.02D-04  0.00D+00 EMaxC= 1.00D-01 BMatC= 2.60D-06 BMatP= 8.90D-05
 IDIUse=3 WtCom= 9.98D-01 WtEn= 2.02D-03
 Coeff-Com: -0.916D-03 0.204D-02 0.574D-01 0.158D+00 0.784D+00
 Coeff-En:   0.000D+00 0.000D+00 0.000D+00 0.000D+00 0.100D+01
 Coeff:     -0.914D-03 0.203D-02 0.573D-01 0.157D+00 0.784D+00
 Gap=     0.260 Goal=   None    Shift=    0.000
 RMSDP=1.13D-05 MaxDP=1.97D-04 DE=-8.48D-05 OVMax= 1.12D-03

 Cycle   6  Pass 0  IDiag  1:
 RMSU=  8.24D-06    CP:  9.80D-01  1.24D+00  1.01D+00  9.76D-01  1.05D+00
 E= -230.868294691310     Delta-E=       -0.000001582923 Rises=F Damp=F
 DIIS: error= 1.82D-04 at cycle   6 NSaved=   6.
 NSaved= 6 IEnMin= 6 EnMin= -230.868294691310     IErMin= 6 ErrMin= 1.82D-04
 ErrMax= 1.82D-04  0.00D+00 EMaxC= 1.00D-01 BMatC= 2.01D-06 BMatP= 2.60D-06
 IDIUse=3 WtCom= 9.98D-01 WtEn= 1.82D-03
 Coeff-Com:  0.135D-02-0.389D-02-0.119D-01 0.335D-01 0.506D+00 0.475D+00
 Coeff-En:   0.000D+00 0.000D+00 0.000D+00 0.000D+00 0.334D+00 0.666D+00
 Coeff:      0.135D-02-0.388D-02-0.119D-01 0.334D-01 0.505D+00 0.476D+00
 Gap=     0.260 Goal=   None    Shift=    0.000
 RMSDP=4.39D-06 MaxDP=1.10D-04 DE=-1.58D-06 OVMax= 6.22D-04

 Initial convergence to 1.0D-05 achieved.  Increase integral accuracy.
 Cycle   7  Pass 1  IDiag  1:
 E= -230.868288144695     Delta-E=        0.000006546615 Rises=F Damp=F
 DIIS: error= 8.49D-05 at cycle   1 NSaved=   1.
 NSaved= 1 IEnMin= 1 EnMin= -230.868288144695     IErMin= 1 ErrMin= 8.49D-05
 ErrMax= 8.49D-05  0.00D+00 EMaxC= 1.00D-01 BMatC= 8.22D-07 BMatP= 8.22D-07
 IDIUse=1 WtCom= 1.00D+00 WtEn= 0.00D+00
 Coeff-Com:  0.100D+01
 Coeff:      0.100D+01
 Gap=     0.260 Goal=   None    Shift=    0.000
 RMSDP=4.39D-06 MaxDP=1.10D-04 DE= 6.55D-06 OVMax= 1.94D-04

 Cycle   8  Pass 1  IDiag  1:
 RMSU=  1.07D-04    CP:  1.00D+00
 E= -230.868288426418     Delta-E=       -0.000000281723 Rises=F Damp=F
 DIIS: error= 3.77D-05 at cycle   2 NSaved=   2.
 NSaved= 2 IEnMin= 2 EnMin= -230.868288426418     IErMin= 2 ErrMin= 3.77D-05
 ErrMax= 3.77D-05  0.00D+00 EMaxC= 1.00D-01 BMatC= 8.85D-08 BMatP= 8.22D-07
 IDIUse=1 WtCom= 1.00D+00 WtEn= 0.00D+00
 Coeff-Com:  0.124D+00 0.876D+00
 Coeff:      0.124D+00 0.876D+00
 Gap=     0.260 Goal=   None    Shift=    0.000
 RMSDP=3.89D-06 MaxDP=1.17D-04 DE=-2.82D-07 OVMax= 2.50D-04

 Cycle   9  Pass 1  IDiag  1:
 RMSU=  1.91D-06    CP:  1.00D+00  1.03D+00
 E= -230.868288337784     Delta-E=        0.000000088634 Rises=F Damp=F
 DIIS: error= 4.42D-05 at cycle   3 NSaved=   3.
 NSaved= 3 IEnMin= 2 EnMin= -230.868288426418     IErMin= 2 ErrMin= 3.77D-05
 ErrMax= 4.42D-05  0.00D+00 EMaxC= 1.00D-01 BMatC= 1.81D-07 BMatP= 8.85D-08
 IDIUse=1 WtCom= 1.00D+00 WtEn= 0.00D+00
 Coeff-Com: -0.134D-01 0.595D+00 0.419D+00
 Coeff:     -0.134D-01 0.595D+00 0.419D+00
 Gap=     0.260 Goal=   None    Shift=    0.000
 RMSDP=1.10D-06 MaxDP=2.84D-05 DE= 8.86D-08 OVMax= 1.19D-04

 Cycle  10  Pass 1  IDiag  1:
 RMSU=  7.63D-07    CP:  1.00D+00  1.04D+00  7.32D-01
 E= -230.868288517043     Delta-E=       -0.000000179258 Rises=F Damp=F
 DIIS: error= 2.71D-06 at cycle   4 NSaved=   4.
 NSaved= 4 IEnMin= 4 EnMin= -230.868288517043     IErMin= 4 ErrMin= 2.71D-06
 ErrMax= 2.71D-06  0.00D+00 EMaxC= 1.00D-01 BMatC= 2.68D-10 BMatP= 8.85D-08
 IDIUse=1 WtCom= 1.00D+00 WtEn= 0.00D+00
 Coeff-Com: -0.470D-02 0.115D+00 0.886D-01 0.801D+00
 Coeff:     -0.470D-02 0.115D+00 0.886D-01 0.801D+00
 Gap=     0.260 Goal=   None    Shift=    0.000
 RMSDP=1.29D-07 MaxDP=2.14D-06 DE=-1.79D-07 OVMax= 1.40D-05

 Cycle  11  Pass 1  IDiag  1:
 RMSU=  6.78D-08    CP:  1.00D+00  1.04D+00  7.62D-01  1.06D+00
 E= -230.868288517434     Delta-E=       -0.000000000391 Rises=F Damp=F
 DIIS: error= 7.31D-07 at cycle   5 NSaved=   5.
 NSaved= 5 IEnMin= 5 EnMin= -230.868288517434     IErMin= 5 ErrMin= 7.31D-07
 ErrMax= 7.31D-07  0.00D+00 EMaxC= 1.00D-01 BMatC= 6.26D-11 BMatP= 2.68D-10
 IDIUse=1 WtCom= 1.00D+00 WtEn= 0.00D+00
 Coeff-Com:  0.744D-03-0.596D-01-0.429D-01 0.246D+00 0.855D+00
 Coeff:      0.744D-03-0.596D-01-0.429D-01 0.246D+00 0.855D+00
 Gap=     0.260 Goal=   None    Shift=    0.000
 RMSDP=6.87D-08 MaxDP=1.47D-06 DE=-3.91D-10 OVMax= 4.88D-06

 Cycle  12  Pass 1  IDiag  1:
 RMSU=  4.42D-08    CP:  1.00D+00  1.04D+00  7.72D-01  1.11D+00  1.21D+00
 E= -230.868288517535     Delta-E=       -0.000000000102 Rises=F Damp=F
 DIIS: error= 2.84D-07 at cycle   6 NSaved=   6.
 NSaved= 6 IEnMin= 6 EnMin= -230.868288517535     IErMin= 6 ErrMin= 2.84D-07
 ErrMax= 2.84D-07  0.00D+00 EMaxC= 1.00D-01 BMatC= 3.69D-12 BMatP= 6.26D-11
 IDIUse=1 WtCom= 1.00D+00 WtEn= 0.00D+00
 Coeff-Com:  0.488D-03-0.239D-01-0.180D-01 0.205D-01 0.250D+00 0.771D+00
 Coeff:      0.488D-03-0.239D-01-0.180D-01 0.205D-01 0.250D+00 0.771D+00
 Gap=     0.260 Goal=   None    Shift=    0.000
 RMSDP=1.08D-08 MaxDP=2.07D-07 DE=-1.02D-10 OVMax= 1.85D-06

 Cycle  13  Pass 1  IDiag  1:
 RMSU=  7.79D-09    CP:  1.00D+00  1.04D+00  7.72D-01  1.11D+00  1.28D+00
                    CP:  1.09D+00
 E= -230.868288517543     Delta-E=       -0.000000000008 Rises=F Damp=F
 DIIS: error= 4.97D-08 at cycle   7 NSaved=   7.
 NSaved= 7 IEnMin= 7 EnMin= -230.868288517543     IErMin= 7 ErrMin= 4.97D-08
 ErrMax= 4.97D-08  0.00D+00 EMaxC= 1.00D-01 BMatC= 2.87D-13 BMatP= 3.69D-12
 IDIUse=1 WtCom= 1.00D+00 WtEn= 0.00D+00
 Coeff-Com:  0.124D-04 0.237D-02 0.137D-02-0.247D-01-0.576D-01 0.129D+00
 Coeff-Com:  0.950D+00
 Coeff:      0.124D-04 0.237D-02 0.137D-02-0.247D-01-0.576D-01 0.129D+00
 Coeff:      0.950D+00
 Gap=     0.260 Goal=   None    Shift=    0.000
 RMSDP=6.71D-09 MaxDP=1.54D-07 DE=-7.62D-12 OVMax= 5.85D-07

 SCF Done:  E(RM062X) =  -230.868288518     A.U. after   13 cycles
            NFock= 13  Conv=0.67D-08     -V/T= 2.0063
 KE= 2.294277974668D+02 PE=-8.585060716109D+02 EE= 2.364029846196D+02
 Leave Link  502 at Sat Sep 26 00:36:53 2020, MaxMem=   268435456 cpu:             183.9 elap:              23.6
 (Enter /applis/site/cecic/gaussian16/B.01/nehalem/g16/l601.exe)
 Copying SCF densities to generalized density rwf, IOpCl= 0 IROHF=0.

 **********************************************************************

            Population analysis using the SCF Density.

 **********************************************************************

 Alpha  occ. eigenvalues --  -10.58429 -10.58324 -10.55672 -10.55672 -10.54896
 Alpha  occ. eigenvalues --  -10.54896  -0.93825  -0.87144  -0.82878  -0.73527
 Alpha  occ. eigenvalues --   -0.62173  -0.62167  -0.57998  -0.54788  -0.48076
 Alpha  occ. eigenvalues --   -0.43642  -0.37639  -0.35511  -0.34829  -0.29406
 Alpha virt. eigenvalues --   -0.03371   0.06164   0.06870   0.08964   0.09000
 Alpha virt. eigenvalues --    0.10856   0.11699   0.11794   0.15015   0.18845
 Alpha virt. eigenvalues --    0.23942   0.27367   0.27669   0.30068   0.30196
 Alpha virt. eigenvalues --    0.31964   0.32863   0.33973   0.34214   0.38896
 Alpha virt. eigenvalues --    0.40041   0.40077   0.42180   0.43449   0.44862
 Alpha virt. eigenvalues --    0.46791   0.47009   0.50789   0.50999   0.51796
 Alpha virt. eigenvalues --    0.54151   0.56038   0.57739   0.58810   0.61698
 Alpha virt. eigenvalues --    0.64157   0.65106   0.67922   0.68970   0.71677
 Alpha virt. eigenvalues --    0.71893   0.75226   0.77387   0.81560   0.81641
 Alpha virt. eigenvalues --    0.86871   0.88751   0.90560   0.90685   0.91092
 Alpha virt. eigenvalues --    0.92354   0.93873   0.95293   0.96664   0.97329
 Alpha virt. eigenvalues --    1.02129   1.05020   1.05091   1.05688   1.12397
 Alpha virt. eigenvalues --    1.17394   1.19952   1.24110   1.25909   1.26818
 Alpha virt. eigenvalues --    1.27969   1.31709   1.33454   1.37203   1.39440
 Alpha virt. eigenvalues --    1.42441   1.43159   1.48613   1.48847   1.50532
 Alpha virt. eigenvalues --    1.56332   1.57318   1.61262   1.68177   1.73923
 Alpha virt. eigenvalues --    1.76270   1.81160   2.00443   2.02442   2.02874
 Alpha virt. eigenvalues --    2.03723   2.15299   2.17587   2.25211   2.25563
 Alpha virt. eigenvalues --    2.25586   2.27662   2.33507   2.37318   2.39429
 Alpha virt. eigenvalues --    2.40323   2.41678   2.46130   2.47689   2.48638
 Alpha virt. eigenvalues --    2.49826   2.52606   2.52793   2.52826   2.53159
 Alpha virt. eigenvalues --    2.54124   2.58336   2.58755   2.62179   2.64741
 Alpha virt. eigenvalues --    2.70439   2.71671   2.74007   2.77143   2.78080
 Alpha virt. eigenvalues --    2.79758   2.80640   2.83078   2.87994   2.88094
 Alpha virt. eigenvalues --    2.88804   2.90146   2.90245   2.90842   2.93030
 Alpha virt. eigenvalues --    2.93075   2.93273   2.94045   2.94176   2.95052
 Alpha virt. eigenvalues --    2.95433   2.95478   2.95565   3.00063   3.02661
 Alpha virt. eigenvalues --    3.04565   3.05292   3.05794   3.09964   3.11078
 Alpha virt. eigenvalues --    3.12205   3.16866   3.18629   3.18631   3.20268
 Alpha virt. eigenvalues --    3.26642   3.27610   3.29632   3.36423   3.36441
 Alpha virt. eigenvalues --    3.39153   3.39643   3.41179   3.44183   3.46725
 Alpha virt. eigenvalues --    3.47055   3.53978   3.55920   3.57914   3.59495
 Alpha virt. eigenvalues --    3.71300   3.72913   3.73771   3.83146   3.83660
 Alpha virt. eigenvalues --    3.86210   3.86322   3.90358   3.90503   3.92750
 Alpha virt. eigenvalues --    3.98982   4.01981   4.02739   4.04337   4.07400
 Alpha virt. eigenvalues --    4.11657   4.16613   4.17089   4.19237   4.23493
 Alpha virt. eigenvalues --    4.29406   4.30987   4.35763   4.51345   4.51839
 Alpha virt. eigenvalues --    4.59449   4.59627   4.63959   4.77910   4.91235
 Alpha virt. eigenvalues --    4.91668   5.02157   5.06910   5.10153   5.11966
 Alpha virt. eigenvalues --    5.15646   5.24002   5.25275   5.52722   5.54651
 Alpha virt. eigenvalues --    5.66513   5.69111   5.75205   5.77894   5.80207
 Alpha virt. eigenvalues --    5.87285   5.94843   6.16109   6.17781   6.31100
 Alpha virt. eigenvalues --    8.68926   8.77763  11.98407  14.14123  16.52319
 Alpha virt. eigenvalues --   16.71614
          Condensed to atoms (all electrons):
               1          2          3          4          5          6
     1  C    4.961945   0.532117   0.443650  -0.055811   0.414481  -0.057978
     2  C    0.532117   4.961948  -0.055811   0.443650  -0.057978   0.414482
     3  C    0.443650  -0.055811   5.067818   0.007175  -0.039763   0.005761
     4  C   -0.055811   0.443650   0.007175   5.067822   0.005761  -0.039763
     5  H    0.414481  -0.057978  -0.039763   0.005761   0.517092   0.005004
     6  H   -0.057978   0.414482   0.005761  -0.039763   0.005004   0.517092
     7  C   -0.089668   0.006877   0.703325  -0.000099  -0.002147   0.003411
     8  C    0.006878  -0.089671  -0.000099   0.703320   0.003411  -0.002147
     9  H   -0.001030  -0.000042  -0.084755  -0.000012  -0.000089  -0.000007
    10  H   -0.000042  -0.001030  -0.000012  -0.084758  -0.000007  -0.000089
               7          8          9         10
     1  C   -0.089668   0.006878  -0.001030  -0.000042
     2  C    0.006877  -0.089671  -0.000042  -0.001030
     3  C    0.703325  -0.000099  -0.084755  -0.000012
     4  C   -0.000099   0.703320  -0.000012  -0.084758
     5  H   -0.002147   0.003411  -0.000089  -0.000007
     6  H    0.003411  -0.002147  -0.000007  -0.000089
     7  C    5.022759   0.000009   0.445360  -0.000000
     8  C    0.000009   5.022766  -0.000000   0.445361
     9  H    0.445360  -0.000000   0.503150  -0.000000
    10  H   -0.000000   0.445361  -0.000000   0.503153
 Mulliken charges:
               1
     1  C   -0.154542
     2  C   -0.154543
     3  C   -0.047289
     4  C   -0.047286
     5  H    0.154234
     6  H    0.154234
     7  C   -0.089828
     8  C   -0.089828
     9  H    0.137425
    10  H    0.137423
 Sum of Mulliken charges =  -0.00000
 Mulliken charges with hydrogens summed into heavy atoms:
               1
     1  C   -0.000308
     2  C   -0.000309
     3  C   -0.047289
     4  C   -0.047286
     7  C    0.047597
     8  C    0.047595
 Electronic spatial extent (au):  <R**2>=            841.7767
 Charge=             -0.0000 electrons
 Dipole moment (field-independent basis, Debye):
    X=             -0.0000    Y=              0.0000    Z=              0.0000  Tot=              0.0000
 Quadrupole moment (field-independent basis, Debye-Ang):
   XX=            -26.9650   YY=            -38.1184   ZZ=            -31.5718
   XY=             -0.0000   XZ=             -4.7226   YZ=              0.0000
 Traceless Quadrupole moment (field-independent basis, Debye-Ang):
   XX=              5.2534   YY=             -5.9000   ZZ=              0.6466
   XY=             -0.0000   XZ=             -4.7226   YZ=              0.0000
 Octapole moment (field-independent basis, Debye-Ang**2):
  XXX=             -0.0000  YYY=              0.0000  ZZZ=            -63.6719  XYY=             -0.0001
  XXY=              0.0000  XXZ=            -18.1272  XZZ=             -6.3494  YZZ=              0.0000
  YYZ=            -25.6248  XYZ=             -0.0000
 Hexadecapole moment (field-independent basis, Debye-Ang**3):
 XXXX=           -401.4954 YYYY=            -44.1383 ZZZZ=           -618.4605 XXXY=             -0.0000
 XXXZ=            112.4748 YYYX=              0.0000 YYYZ=              0.0000 ZZZX=            160.0215
 ZZZY=              0.0000 XXYY=           -105.0160 XXZZ=            -88.5028 YYZZ=           -126.5305
 XXYZ=              0.0000 YYXZ=             86.4306 ZZXY=             -0.0000
 N-N= 1.618070010069D+02 E-N=-8.585060671031D+02  KE= 2.294277974668D+02
 No NMR shielding tensors so no spin-rotation constants.
 Leave Link  601 at Sat Sep 26 00:36:53 2020, MaxMem=   268435456 cpu:               1.2 elap:               0.3
 (Enter /applis/site/cecic/gaussian16/B.01/nehalem/g16/l701.exe)
 ... and contract with generalized density number  0.
 Compute integral first derivatives.
 Leave Link  701 at Sat Sep 26 00:36:54 2020, MaxMem=   268435456 cpu:               1.6 elap:               0.4
 (Enter /applis/site/cecic/gaussian16/B.01/nehalem/g16/l702.exe)
 L702 exits ... SP integral derivatives will be done elsewhere.
 Leave Link  702 at Sat Sep 26 00:36:54 2020, MaxMem=   268435456 cpu:               0.3 elap:               0.1
 (Enter /applis/site/cecic/gaussian16/B.01/nehalem/g16/l703.exe)
 Integral derivatives from FoFJK, PRISM(SPDF).
 Compute integral first derivatives, UseDBF=F ICtDFT=           0.
 Calling FoFJK, ICntrl=      2127 FMM=F ISym2X=0 I1Cent= 0 IOpClX= 0 NMat=1 NMatS=1 NMatT=0.
 FoFJK:  IHMeth= 1 ICntrl=    2127 DoSepK=F KAlg= 0 I1Cent=           0 FoldK=F
 IRaf=         0 NMat=       1 IRICut=       1 DoRegI=T DoRafI=F ISym2E= 0 IDoP0=0 IntGTp=1.
 FoFCou: FMM=F IPFlag=           0 FMFlag=      100000 FMFlg1=         800
         NFxFlg=           0 DoJE=F BraDBF=F KetDBF=F FulRan=T
         wScrn=  0.000000 ICntrl=      2127 IOpCl=  0 I1Cent=           0 NGrid=           0
         NMat0=    1 NMatS0=      1 NMatT0=    0 NMatD0=    1 NMtDS0=    0 NMtDT0=    0
 Symmetry not used in FoFCou.
 Leave Link  703 at Sat Sep 26 00:37:00 2020, MaxMem=   268435456 cpu:              46.5 elap:               5.9
 (Enter /applis/site/cecic/gaussian16/B.01/nehalem/g16/l716.exe)
 Dipole        =-1.02598656D-06 2.88512764D-15 1.44649710D-06
 -------------------------------------------------------------------
 Center     Atomic                   Forces (Hartrees/Bohr)
 Number     Number              X              Y              Z
 -------------------------------------------------------------------
      1        6          -0.000254237   -0.000000000    0.004383353
      2        6           0.000254449    0.000000000   -0.004383299
      3        6           0.010600555   -0.000000000   -0.005636173
      4        6          -0.010591739   -0.000000000    0.005630052
      5        1           0.002355486    0.000000000    0.000662696
      6        1          -0.002355477   -0.000000000   -0.000662741
      7        6          -0.016218642    0.000000000    0.009826757
      8        6           0.016211536   -0.000000000   -0.009821796
      9        1           0.002879802    0.000000000   -0.001937326
     10        1          -0.002881734    0.000000000    0.001938478
 -------------------------------------------------------------------
 Cartesian Forces:  Max     0.016218642 RMS     0.006004309
 Leave Link  716 at Sat Sep 26 00:37:00 2020, MaxMem=   268435456 cpu:               0.3 elap:               0.1
 (Enter /applis/site/cecic/gaussian16/B.01/nehalem/g16/l103.exe)

 GradGradGradGradGradGradGradGradGradGradGradGradGradGradGradGradGradGrad
 Berny optimization.
 FormGI is forming the generalized inverse of G from B-inverse, IUseBI=4.
 Internal  Forces:  Max     0.015485565 RMS     0.004709288
 Search for a local minimum.
 Step number   1 out of a maximum of  100
 All quantities printed in internal units (Hartrees-Bohrs-Radians)
 RMS Force = .47093D-02 SwitMx=.10000D-02 MixMth= 1
 Mixed Optimization -- RFO/linear search
 Second derivative matrix not updated -- first step.
 ITU=  0
     Eigenvalues ---    0.00654   0.00654   0.00654   0.00654   0.02823
     Eigenvalues ---    0.02823   0.02823   0.04643   0.04643   0.04643
     Eigenvalues ---    0.04643   0.16000   0.16000   0.22000   0.22000
     Eigenvalues ---    0.35245   0.35245   0.38748   0.38749   0.41643
     Eigenvalues ---    0.41643   0.56210   1.01419   1.01421
 RFO step:  Lambda=-8.29461514D-04 EMin= 6.54121972D-03
 Linear search not attempted -- first point.
 Iteration  1 RMS(Cart)=  0.02582918 RMS(Int)=  0.00038176
 Iteration  2 RMS(Cart)=  0.00060538 RMS(Int)=  0.00000003
 Iteration  3 RMS(Cart)=  0.00000004 RMS(Int)=  0.00000000
 ITry= 1 IFail=0 DXMaxC= 4.45D-02 DCOld= 1.00D+10 DXMaxT= 3.00D-01 DXLimC= 3.00D+00 Rises=F
 Variable       Old X    -DE/DX   Delta X   Delta X   Delta X     New X
                                 (Linear)    (Quad)   (Total)
    R1        2.54072  -0.00730   0.00000  -0.01297  -0.01297   2.52775
    R2        2.69380  -0.00352   0.00000  -0.00844  -0.00844   2.68536
    R3        2.05279  -0.00238   0.00000  -0.00673  -0.00673   2.04606
    R4        2.69380  -0.00352   0.00000  -0.00844  -0.00844   2.68536
    R5        2.05279  -0.00238   0.00000  -0.00673  -0.00673   2.04606
    R6        2.28076  -0.01549   0.00000  -0.01526  -0.01526   2.26550
    R7        2.28075  -0.01547   0.00000  -0.01525  -0.01525   2.26550
    R8        1.99990   0.00347   0.00000   0.00894   0.00894   2.00884
    R9        1.99990   0.00347   0.00000   0.00894   0.00894   2.00884
    A1        2.14360  -0.00014   0.00000  -0.00063  -0.00063   2.14297
    A2        2.08602   0.00067   0.00000   0.00404   0.00404   2.09006
    A3        2.05357  -0.00053   0.00000  -0.00341  -0.00341   2.05015
    A4        2.14360  -0.00014   0.00000  -0.00063  -0.00063   2.14297
    A5        2.08602   0.00067   0.00000   0.00404   0.00404   2.09006
    A6        2.05357  -0.00053   0.00000  -0.00341  -0.00341   2.05015
    A7        3.14160   0.00150   0.00000   0.03171   0.03171   3.17331
    A8        3.14159   0.00150   0.00000   0.03172   0.03172   3.17331
    A9        3.14147   0.00013   0.00000   0.01818   0.01818   3.15965
   A10        3.14148   0.00013   0.00000   0.01816   0.01816   3.15964
   A11        3.14159   0.00000   0.00000   0.00000   0.00000   3.14159
   A12        3.14159   0.00000   0.00000   0.00000   0.00000   3.14159
   A13        3.14159  -0.00000   0.00000  -0.00000   0.00000   3.14159
   A14        3.14159   0.00000   0.00000   0.00000   0.00000   3.14159
    D1        3.14159   0.00000   0.00000   0.00000   0.00000   3.14159
    D2        0.00000  -0.00000   0.00000  -0.00000  -0.00000   0.00000
    D3        0.00000   0.00000   0.00000   0.00000  -0.00000   0.00000
    D4        3.14159  -0.00000   0.00000  -0.00000   0.00000   3.14159
         Item               Value     Threshold  Converged?
 Maximum Force            0.015486     0.000450     NO 
 RMS     Force            0.004709     0.000300     NO 
 Maximum Displacement     0.044513     0.001800     NO 
 RMS     Displacement     0.025901     0.001200     NO 
 Predicted change in Energy=-4.162880D-04
 Lowest energy point so far.  Saving SCF results.
 GradGradGradGradGradGradGradGradGradGradGradGradGradGradGradGradGradGrad

 Leave Link  103 at Sat Sep 26 00:37:00 2020, MaxMem=   268435456 cpu:               1.0 elap:               0.2
 (Enter /applis/site/cecic/gaussian16/B.01/nehalem/g16/l202.exe)
                          Input orientation:                          
 ---------------------------------------------------------------------
 Center     Atomic      Atomic             Coordinates (Angstroms)
 Number     Number       Type             X           Y           Z
 ---------------------------------------------------------------------
      1          6           0        0.009413   -0.000000    0.003497
      2          6           0       -0.009409   -0.000000    1.340992
      3          6           0        1.214818    0.000000   -0.749053
      4          6           0       -1.214815    0.000000    2.093543
      5          1           0       -0.922944   -0.000000   -0.546972
      6          1           0        0.922948   -0.000000    1.891462
      7          6           0        2.211113   -0.000000   -1.415868
      8          6           0       -2.211110   -0.000000    2.760359
      9          1           0        3.083713    0.000000   -2.022998
     10          1           0       -3.083721    0.000000    3.367473
 ---------------------------------------------------------------------
                    Distance matrix (angstroms):
                    1          2          3          4          5
     1  C    0.000000
     2  C    1.337628   0.000000
     3  C    1.421033   2.422194   0.000000
     4  C    2.422194   1.421033   3.739448   0.000000
     5  H    1.082730   2.097369   2.147292   2.656597   0.000000
     6  H    2.097369   1.082730   2.656597   2.147293   3.058312
     7  C    2.619558   3.539915   1.198852   4.904381   3.252275
     8  C    3.539916   2.619559   4.904382   1.198853   3.549339
     9  H    3.682120   4.569884   2.261792   5.951744   4.269889
    10  H    4.569880   3.682121   5.951742   2.261793   4.471223
                    6          7          8          9         10
     6  H    0.000000
     7  C    3.549338   0.000000
     8  C    3.252276   6.082510   0.000000
     9  H    4.471231   1.063032   7.135521   0.000000
    10  H    4.269895   7.135518   1.063032   8.191118   0.000000
 Symmetry turned off by external request.
 Stoichiometry    C6H4
 Framework group  CS[SG(C6H4)]
 Deg. of freedom    17
 Full point group                 CS      NOp   2
 Rotational constants (GHZ):          47.4958768           1.4669912           1.4230382
 Leave Link  202 at Sat Sep 26 00:37:00 2020, MaxMem=   268435456 cpu:               0.1 elap:               0.0
 (Enter /applis/site/cecic/gaussian16/B.01/nehalem/g16/l301.exe)
 Standard basis: CC-pVTZ (5D, 7F)
 Ernie: Thresh=  0.10000D-02 Tol=  0.10000D-05 Strict=F.
 Ernie:  18 primitive shells out of 188 were deleted.
   236 basis functions,   380 primitive gaussians,   270 cartesian basis functions
    20 alpha electrons       20 beta electrons
       nuclear repulsion energy       162.4240405740 Hartrees.
 IExCor= 4336 DFT=T Ex+Corr=M062X ExCW=0 ScaHFX=  0.540000
 ScaDFX=  1.000000  1.000000  1.000000  1.000000 ScalE2=  1.000000  1.000000
 IRadAn=      5 IRanWt=     -1 IRanGd=            0 ICorTp=0 IEmpDi=  4
 NAtoms=   10 NActive=   10 NUniq=   10 SFac= 1.00D+00 NAtFMM=   60 NAOKFM=F Big=F
 Integral buffers will be    131072 words long.
 Raffenetti 2 integral format.
 Two-electron integral symmetry is turned off.
 Leave Link  301 at Sat Sep 26 00:37:00 2020, MaxMem=   268435456 cpu:               0.4 elap:               0.1
 (Enter /applis/site/cecic/gaussian16/B.01/nehalem/g16/l302.exe)
 NPDir=0 NMtPBC=     1 NCelOv=     1 NCel=       1 NClECP=     1 NCelD=      1
         NCelK=      1 NCelE2=     1 NClLst=     1 CellRange=     0.0.
 One-electron integrals computed using PRISM.
 NBasis=   236 RedAO= T EigKep=  2.10D-05  NBF=   236
 NBsUse=   236 1.00D-06 EigRej= -1.00D+00 NBFU=   236
 Precomputing XC quadrature grid using
 IXCGrd= 4 IRadAn=           5 IRanWt=          -1 IRanGd=           0 AccXCQ= 0.00D+00.
 Generated NRdTot=       0 NPtTot=           0 NUsed=           0 NTot=          32
 NSgBfM=   270   270   270   270   270 MxSgAt=    10 MxSgA2=    10.
 Leave Link  302 at Sat Sep 26 00:37:01 2020, MaxMem=   268435456 cpu:               1.5 elap:               0.2
 (Enter /applis/site/cecic/gaussian16/B.01/nehalem/g16/l303.exe)
 DipDrv:  MaxL=1.
 Leave Link  303 at Sat Sep 26 00:37:01 2020, MaxMem=   268435456 cpu:               0.5 elap:               0.1
 (Enter /applis/site/cecic/gaussian16/B.01/nehalem/g16/l401.exe)
 Initial guess from the checkpoint file:  "input.chk"
 B after Tr=     0.005198   -0.000000    0.000012
         Rot=    0.999998   -0.000000    0.002045    0.000000 Ang=   0.23 deg.
 Guess basis will be translated and rotated to current coordinates.
 JPrj=2 DoOrth=T DoCkMO=T.
 Generating alternative initial guess.
 ExpMin= 1.03D-01 ExpMax= 8.24D+03 ExpMxC= 2.81D+02 IAcc=3 IRadAn=         5 AccDes= 0.00D+00
 Harris functional with IExCor= 1009 and IRadAn=       5 diagonalized for initial guess.
 HarFok:  IExCor= 1009 AccDes= 0.00D+00 IRadAn=         5 IDoV= 1 UseB2=F ITyADJ=14
 ICtDFT=  3500011 ScaDFX=  1.000000  1.000000  1.000000  1.000000
 FoFCou: FMM=F IPFlag=           0 FMFlag=      100000 FMFlg1=           0
         NFxFlg=           0 DoJE=T BraDBF=F KetDBF=T FulRan=T
         wScrn=  0.000000 ICntrl=       500 IOpCl=  0 I1Cent=   200000004 NGrid=           0
         NMat0=    1 NMatS0=      1 NMatT0=    0 NMatD0=    1 NMtDS0=    0 NMtDT0=    0
 Symmetry not used in FoFCou.
 Harris En= -230.820741105907    
 Leave Link  401 at Sat Sep 26 00:37:02 2020, MaxMem=   268435456 cpu:               7.2 elap:               1.0
 (Enter /applis/site/cecic/gaussian16/B.01/nehalem/g16/l502.exe)
 Two-electron integral symmetry not used.
 Closed shell SCF:
 Using DIIS extrapolation, IDIIS=  1040.
 NGot=   268435456 LenX=   268285690 LenY=   268212349
 Requested convergence on RMS density matrix=1.00D-08 within 128 cycles.
 Requested convergence on MAX density matrix=1.00D-06.
 Requested convergence on             energy=1.00D-06.
 No special actions if energy rises.
 Fock matrices will be formed incrementally for  20 cycles.
 Integral accuracy reduced to 1.0D-05 until final iterations.

 Cycle   1  Pass 0  IDiag  1:
 FoFJK:  IHMeth= 1 ICntrl=       0 DoSepK=F KAlg= 0 I1Cent=           0 FoldK=F
 IRaf= 930000000 NMat=       1 IRICut=       1 DoRegI=T DoRafI=F ISym2E= 0 IDoP0=0 IntGTp=1.
 FoFCou: FMM=F IPFlag=           0 FMFlag=      100000 FMFlg1=           0
         NFxFlg=           0 DoJE=F BraDBF=F KetDBF=F FulRan=T
         wScrn=  0.000000 ICntrl=         0 IOpCl=  0 I1Cent=           0 NGrid=           0
         NMat0=    1 NMatS0=      1 NMatT0=    0 NMatD0=    1 NMtDS0=    0 NMtDT0=    0
 Symmetry not used in FoFCou.
 E= -230.867708450078    
 DIIS: error= 2.16D-03 at cycle   1 NSaved=   1.
 NSaved= 1 IEnMin= 1 EnMin= -230.867708450078     IErMin= 1 ErrMin= 2.16D-03
 ErrMax= 2.16D-03  0.00D+00 EMaxC= 1.00D-01 BMatC= 1.33D-03 BMatP= 1.33D-03
 IDIUse=3 WtCom= 9.78D-01 WtEn= 2.16D-02
 Coeff-Com:  0.100D+01
 Coeff-En:   0.100D+01
 Coeff:      0.100D+01
 Gap=     1.002 Goal=   None    Shift=    0.000
 GapD=    1.002 DampG=2.000 DampE=1.000 DampFc=2.0000 IDamp=-1.
 RMSDP=1.95D-04 MaxDP=3.61D-03              OVMax= 7.33D-03

 Cycle   2  Pass 0  IDiag  1:
 RMSU=  1.94D-04    CP:  1.00D+00
 E= -230.868534106148     Delta-E=       -0.000825656070 Rises=F Damp=F
 DIIS: error= 5.07D-04 at cycle   2 NSaved=   2.
 NSaved= 2 IEnMin= 2 EnMin= -230.868534106148     IErMin= 2 ErrMin= 5.07D-04
 ErrMax= 5.07D-04  0.00D+00 EMaxC= 1.00D-01 BMatC= 4.37D-05 BMatP= 1.33D-03
 IDIUse=3 WtCom= 9.95D-01 WtEn= 5.07D-03
 Coeff-Com:  0.310D-03 0.100D+01
 Coeff-En:   0.000D+00 0.100D+01
 Coeff:      0.308D-03 0.100D+01
 Gap=     0.263 Goal=   None    Shift=    0.000
 RMSDP=4.08D-05 MaxDP=9.19D-04 DE=-8.26D-04 OVMax= 3.35D-03

 Cycle   3  Pass 0  IDiag  1:
 RMSU=  3.97D-05    CP:  1.00D+00  1.05D+00
 E= -230.868539986386     Delta-E=       -0.000005880238 Rises=F Damp=F
 DIIS: error= 7.31D-04 at cycle   3 NSaved=   3.
 NSaved= 3 IEnMin= 3 EnMin= -230.868539986386     IErMin= 2 ErrMin= 5.07D-04
 ErrMax= 7.31D-04  0.00D+00 EMaxC= 1.00D-01 BMatC= 4.81D-05 BMatP= 4.37D-05
 IDIUse=3 WtCom= 2.70D-01 WtEn= 7.30D-01
 Coeff-Com: -0.289D-01 0.529D+00 0.500D+00
 Coeff-En:   0.000D+00 0.462D+00 0.538D+00
 Coeff:     -0.780D-02 0.480D+00 0.528D+00
 Gap=     0.263 Goal=   None    Shift=    0.000
 RMSDP=2.21D-05 MaxDP=6.22D-04 DE=-5.88D-06 OVMax= 2.74D-03

 Cycle   4  Pass 0  IDiag  1:
 RMSU=  1.52D-05    CP:  1.00D+00  1.03D+00  6.02D-01
 E= -230.868580217775     Delta-E=       -0.000040231389 Rises=F Damp=F
 DIIS: error= 3.19D-04 at cycle   4 NSaved=   4.
 NSaved= 4 IEnMin= 4 EnMin= -230.868580217775     IErMin= 4 ErrMin= 3.19D-04
 ErrMax= 3.19D-04  0.00D+00 EMaxC= 1.00D-01 BMatC= 9.02D-06 BMatP= 4.37D-05
 IDIUse=3 WtCom= 9.97D-01 WtEn= 3.19D-03
 Coeff-Com: -0.157D-01 0.140D+00 0.321D+00 0.555D+00
 Coeff-En:   0.000D+00 0.000D+00 0.150D+00 0.850D+00
 Coeff:     -0.156D-01 0.139D+00 0.321D+00 0.556D+00
 Gap=     0.263 Goal=   None    Shift=    0.000
 RMSDP=7.19D-06 MaxDP=2.32D-04 DE=-4.02D-05 OVMax= 9.99D-04

 Initial convergence to 1.0D-05 achieved.  Increase integral accuracy.
 Cycle   5  Pass 1  IDiag  1:
 E= -230.868585901828     Delta-E=       -0.000005684053 Rises=F Damp=F
 DIIS: error= 7.35D-05 at cycle   1 NSaved=   1.
 NSaved= 1 IEnMin= 1 EnMin= -230.868585901828     IErMin= 1 ErrMin= 7.35D-05
 ErrMax= 7.35D-05  0.00D+00 EMaxC= 1.00D-01 BMatC= 8.06D-07 BMatP= 8.06D-07
 IDIUse=1 WtCom= 1.00D+00 WtEn= 0.00D+00
 Coeff-Com:  0.100D+01
 Coeff:      0.100D+01
 Gap=     0.263 Goal=   None    Shift=    0.000
 RMSDP=7.19D-06 MaxDP=2.32D-04 DE=-5.68D-06 OVMax= 2.23D-04

 Cycle   6  Pass 1  IDiag  1:
 RMSU=  8.58D-05    CP:  1.00D+00
 E= -230.868586151610     Delta-E=       -0.000000249782 Rises=F Damp=F
 DIIS: error= 4.99D-05 at cycle   2 NSaved=   2.
 NSaved= 2 IEnMin= 2 EnMin= -230.868586151610     IErMin= 2 ErrMin= 4.99D-05
 ErrMax= 4.99D-05  0.00D+00 EMaxC= 1.00D-01 BMatC= 2.10D-07 BMatP= 8.06D-07
 IDIUse=1 WtCom= 1.00D+00 WtEn= 0.00D+00
 Coeff-Com:  0.271D+00 0.729D+00
 Coeff:      0.271D+00 0.729D+00
 Gap=     0.263 Goal=   None    Shift=    0.000
 RMSDP=3.36D-06 MaxDP=6.86D-05 DE=-2.50D-07 OVMax= 2.64D-04

 Cycle   7  Pass 1  IDiag  1:
 RMSU=  2.20D-06    CP:  1.00D+00  1.03D+00
 E= -230.868586202475     Delta-E=       -0.000000050865 Rises=F Damp=F
 DIIS: error= 4.49D-05 at cycle   3 NSaved=   3.
 NSaved= 3 IEnMin= 3 EnMin= -230.868586202475     IErMin= 3 ErrMin= 4.49D-05
 ErrMax= 4.49D-05  0.00D+00 EMaxC= 1.00D-01 BMatC= 1.62D-07 BMatP= 2.10D-07
 IDIUse=1 WtCom= 1.00D+00 WtEn= 0.00D+00
 Coeff-Com:  0.159D-01 0.464D+00 0.520D+00
 Coeff:      0.159D-01 0.464D+00 0.520D+00
 Gap=     0.263 Goal=   None    Shift=    0.000
 RMSDP=1.41D-06 MaxDP=4.77D-05 DE=-5.09D-08 OVMax= 1.37D-04

 Cycle   8  Pass 1  IDiag  1:
 RMSU=  8.46D-07    CP:  1.00D+00  1.04D+00  7.55D-01
 E= -230.868586359950     Delta-E=       -0.000000157475 Rises=F Damp=F
 DIIS: error= 8.07D-06 at cycle   4 NSaved=   4.
 NSaved= 4 IEnMin= 4 EnMin= -230.868586359950     IErMin= 4 ErrMin= 8.07D-06
 ErrMax= 8.07D-06  0.00D+00 EMaxC= 1.00D-01 BMatC= 6.47D-09 BMatP= 1.62D-07
 IDIUse=1 WtCom= 1.00D+00 WtEn= 0.00D+00
 Coeff-Com: -0.109D-01 0.183D+00 0.262D+00 0.566D+00
 Coeff:     -0.109D-01 0.183D+00 0.262D+00 0.566D+00
 Gap=     0.263 Goal=   None    Shift=    0.000
 RMSDP=3.03D-07 MaxDP=7.25D-06 DE=-1.57D-07 OVMax= 2.13D-05

 Cycle   9  Pass 1  IDiag  1:
 RMSU=  2.39D-07    CP:  1.00D+00  1.04D+00  7.61D-01  9.03D-01
 E= -230.868586366296     Delta-E=       -0.000000006346 Rises=F Damp=F
 DIIS: error= 7.99D-07 at cycle   5 NSaved=   5.
 NSaved= 5 IEnMin= 5 EnMin= -230.868586366296     IErMin= 5 ErrMin= 7.99D-07
 ErrMax= 7.99D-07  0.00D+00 EMaxC= 1.00D-01 BMatC= 9.37D-11 BMatP= 6.47D-09
 IDIUse=1 WtCom= 1.00D+00 WtEn= 0.00D+00
 Coeff-Com: -0.275D-02 0.392D-02 0.134D-01 0.829D-01 0.903D+00
 Coeff:     -0.275D-02 0.392D-02 0.134D-01 0.829D-01 0.903D+00
 Gap=     0.263 Goal=   None    Shift=    0.000
 RMSDP=7.73D-08 MaxDP=1.80D-06 DE=-6.35D-09 OVMax= 3.97D-06

 Cycle  10  Pass 1  IDiag  1:
 RMSU=  5.27D-08    CP:  1.00D+00  1.04D+00  7.67D-01  9.33D-01  1.13D+00
 E= -230.868586366424     Delta-E=       -0.000000000128 Rises=F Damp=F
 DIIS: error= 3.41D-07 at cycle   6 NSaved=   6.
 NSaved= 6 IEnMin= 6 EnMin= -230.868586366424     IErMin= 6 ErrMin= 3.41D-07
 ErrMax= 3.41D-07  0.00D+00 EMaxC= 1.00D-01 BMatC= 2.13D-11 BMatP= 9.37D-11
 IDIUse=1 WtCom= 1.00D+00 WtEn= 0.00D+00
 Coeff-Com:  0.649D-03-0.257D-01-0.352D-01-0.543D-01 0.323D+00 0.791D+00
 Coeff:      0.649D-03-0.257D-01-0.352D-01-0.543D-01 0.323D+00 0.791D+00
 Gap=     0.263 Goal=   None    Shift=    0.000
 RMSDP=2.77D-08 MaxDP=5.54D-07 DE=-1.28D-10 OVMax= 1.62D-06

 Cycle  11  Pass 1  IDiag  1:
 RMSU=  1.82D-08    CP:  1.00D+00  1.04D+00  7.68D-01  9.47D-01  1.19D+00
                    CP:  1.12D+00
 E= -230.868586366451     Delta-E=       -0.000000000027 Rises=F Damp=F
 DIIS: error= 1.81D-08 at cycle   7 NSaved=   7.
 NSaved= 7 IEnMin= 7 EnMin= -230.868586366451     IErMin= 7 ErrMin= 1.81D-08
 ErrMax= 1.81D-08  0.00D+00 EMaxC= 1.00D-01 BMatC= 5.15D-14 BMatP= 2.13D-11
 IDIUse=1 WtCom= 1.00D+00 WtEn= 0.00D+00
 Coeff-Com:  0.132D-04 0.117D-02 0.146D-02 0.221D-02-0.318D-01-0.400D-01
 Coeff-Com:  0.107D+01
 Coeff:      0.132D-04 0.117D-02 0.146D-02 0.221D-02-0.318D-01-0.400D-01
 Coeff:      0.107D+01
 Gap=     0.263 Goal=   None    Shift=    0.000
 RMSDP=6.92D-09 MaxDP=1.81D-07 DE=-2.67D-11 OVMax= 1.27D-07

 SCF Done:  E(RM062X) =  -230.868586366     A.U. after   11 cycles
            NFock= 11  Conv=0.69D-08     -V/T= 2.0058
 KE= 2.295461596064D+02 PE=-8.598627613282D+02 EE= 2.370239747813D+02
 Leave Link  502 at Sat Sep 26 00:37:22 2020, MaxMem=   268435456 cpu:             159.6 elap:              20.1
 (Enter /applis/site/cecic/gaussian16/B.01/nehalem/g16/l701.exe)
 ... and contract with generalized density number  0.
 Compute integral first derivatives.
 Leave Link  701 at Sat Sep 26 00:37:22 2020, MaxMem=   268435456 cpu:               1.2 elap:               0.2
 (Enter /applis/site/cecic/gaussian16/B.01/nehalem/g16/l702.exe)
 L702 exits ... SP integral derivatives will be done elsewhere.
 Leave Link  702 at Sat Sep 26 00:37:22 2020, MaxMem=   268435456 cpu:               0.5 elap:               0.1
 (Enter /applis/site/cecic/gaussian16/B.01/nehalem/g16/l703.exe)
 Integral derivatives from FoFJK, PRISM(SPDF).
 Compute integral first derivatives, UseDBF=F ICtDFT=           0.
 Calling FoFJK, ICntrl=      2127 FMM=F ISym2X=0 I1Cent= 0 IOpClX= 0 NMat=1 NMatS=1 NMatT=0.
 FoFJK:  IHMeth= 1 ICntrl=    2127 DoSepK=F KAlg= 0 I1Cent=           0 FoldK=F
 IRaf=         0 NMat=       1 IRICut=       1 DoRegI=T DoRafI=F ISym2E= 0 IDoP0=0 IntGTp=1.
 FoFCou: FMM=F IPFlag=           0 FMFlag=      100000 FMFlg1=         800
         NFxFlg=           0 DoJE=F BraDBF=F KetDBF=F FulRan=T
         wScrn=  0.000000 ICntrl=      2127 IOpCl=  0 I1Cent=           0 NGrid=           0
         NMat0=    1 NMatS0=      1 NMatT0=    0 NMatD0=    1 NMtDS0=    0 NMtDT0=    0
 Symmetry not used in FoFCou.
 Leave Link  703 at Sat Sep 26 00:37:28 2020, MaxMem=   268435456 cpu:              44.1 elap:               5.6
 (Enter /applis/site/cecic/gaussian16/B.01/nehalem/g16/l716.exe)
 Dipole        =-4.37935178D-06 3.82845889D-10-6.32278611D-06
 -------------------------------------------------------------------
 Center     Atomic                   Forces (Hartrees/Bohr)
 Number     Number              X              Y              Z
 -------------------------------------------------------------------
      1        6           0.000706156    0.000000000    0.001173393
      2        6          -0.000706236    0.000000000   -0.001173169
      3        6          -0.001205013   -0.000000000   -0.000649262
      4        6           0.001204372   -0.000000000    0.000649932
      5        1           0.000137318    0.000000000   -0.000403743
      6        1          -0.000137311    0.000000000    0.000403758
      7        6           0.001002949    0.000000000   -0.001834405
      8        6          -0.001002663    0.000000000    0.001833064
      9        1           0.000181121   -0.000000000    0.000958166
     10        1          -0.000180692   -0.000000000   -0.000957734
 -------------------------------------------------------------------
 Cartesian Forces:  Max     0.001834405 RMS     0.000785240
 Leave Link  716 at Sat Sep 26 00:37:28 2020, MaxMem=   268435456 cpu:               0.4 elap:               0.1
 (Enter /applis/site/cecic/gaussian16/B.01/nehalem/g16/l103.exe)

 GradGradGradGradGradGradGradGradGradGradGradGradGradGradGradGradGradGrad
 Berny optimization.
 Using GEDIIS/GDIIS optimizer.
 FormGI is forming the generalized inverse of G from B-inverse, IUseBI=4.
 Internal  Forces:  Max     0.001787031 RMS     0.000896873
 Search for a local minimum.
 Step number   2 out of a maximum of  100
 All quantities printed in internal units (Hartrees-Bohrs-Radians)
 RMS Force = .89687D-03 SwitMx=.10000D-02 MixMth= 2
 Mixed Optimization -- En-DIIS/RFO-DIIS
 Update second derivatives using D2CorX and points    1    2
 DE= -2.98D-04 DEPred=-4.16D-04 R= 7.15D-01
 TightC=F SS=  1.41D+00  RLast= 6.13D-02 DXNew= 5.0454D-01 1.8383D-01
 Trust test= 7.15D-01 RLast= 6.13D-02 DXMaxT set to 3.00D-01
 ITU=  1  0
 Use linear search instead of GDIIS.
     Eigenvalues ---    0.00654   0.00654   0.00654   0.00724   0.02823
     Eigenvalues ---    0.02823   0.02823   0.04643   0.04643   0.04643
     Eigenvalues ---    0.05665   0.15722   0.16000   0.22000   0.22009
     Eigenvalues ---    0.35072   0.35245   0.38749   0.38757   0.41643
     Eigenvalues ---    0.42281   0.56046   0.98093   1.01420
 RFO step:  Lambda=-5.76419520D-04 EMin= 6.54121972D-03
 Quartic linear search produced a step of -0.22141.
 Iteration  1 RMS(Cart)=  0.06986803 RMS(Int)=  0.00676230
 Iteration  2 RMS(Cart)=  0.00759341 RMS(Int)=  0.00001395
 Iteration  3 RMS(Cart)=  0.00001885 RMS(Int)=  0.00000000
 Iteration  4 RMS(Cart)=  0.00000000 RMS(Int)=  0.00000000
 ITry= 1 IFail=0 DXMaxC= 1.83D-01 DCOld= 1.00D+10 DXMaxT= 3.00D-01 DXLimC= 3.00D+00 Rises=F
 Variable       Old X    -DE/DX   Delta X   Delta X   Delta X     New X
                                 (Linear)    (Quad)   (Total)
    R1        2.52775   0.00077   0.00287  -0.01101  -0.00813   2.51962
    R2        2.68536   0.00079   0.00187  -0.00638  -0.00451   2.68085
    R3        2.04606   0.00009   0.00149  -0.00607  -0.00458   2.04148
    R4        2.68536   0.00079   0.00187  -0.00638  -0.00451   2.68085
    R5        2.04606   0.00009   0.00149  -0.00607  -0.00458   2.04148
    R6        2.26550   0.00147   0.00338  -0.01306  -0.00968   2.25582
    R7        2.26550   0.00147   0.00338  -0.01305  -0.00968   2.25582
    R8        2.00884  -0.00040  -0.00198   0.00752   0.00554   2.01438
    R9        2.00884  -0.00040  -0.00198   0.00753   0.00555   2.01438
    A1        2.14297   0.00097   0.00014   0.00284   0.00298   2.14596
    A2        2.09006  -0.00006  -0.00089   0.00413   0.00324   2.09330
    A3        2.05015  -0.00091   0.00076  -0.00698  -0.00622   2.04393
    A4        2.14297   0.00097   0.00014   0.00284   0.00298   2.14596
    A5        2.09006  -0.00006  -0.00089   0.00413   0.00324   2.09330
    A6        2.05015  -0.00091   0.00076  -0.00698  -0.00622   2.04393
    A7        3.17331  -0.00163  -0.00702   0.00277  -0.00425   3.16906
    A8        3.17331  -0.00163  -0.00702   0.00278  -0.00424   3.16907
    A9        3.15965  -0.00179  -0.00403  -0.17798  -0.18200   2.97765
   A10        3.15964  -0.00179  -0.00402  -0.17786  -0.18188   2.97776
   A11        3.14159   0.00000   0.00000   0.00000   0.00000   3.14159
   A12        3.14159   0.00000   0.00000   0.00000   0.00000   3.14159
   A13        3.14159  -0.00000   0.00000  -0.00000   0.00000   3.14159
   A14        3.14159  -0.00000   0.00000  -0.00000   0.00000   3.14159
    D1        3.14159   0.00000   0.00000   0.00000   0.00000   3.14159
    D2       -0.00000   0.00000   0.00000   0.00000   0.00000   0.00000
    D3       -0.00000   0.00000   0.00000   0.00000   0.00000   0.00000
    D4        3.14159   0.00000   0.00000   0.00000   0.00000   3.14159
         Item               Value     Threshold  Converged?
 Maximum Force            0.001787     0.000450     NO 
 RMS     Force            0.000897     0.000300     NO 
 Maximum Displacement     0.182869     0.001800     NO 
 RMS     Displacement     0.072097     0.001200     NO 
 Predicted change in Energy=-3.383058D-04
 Lowest energy point so far.  Saving SCF results.
 GradGradGradGradGradGradGradGradGradGradGradGradGradGradGradGradGradGrad

 Leave Link  103 at Sat Sep 26 00:37:28 2020, MaxMem=   268435456 cpu:               0.7 elap:               0.1
 (Enter /applis/site/cecic/gaussian16/B.01/nehalem/g16/l202.exe)
                          Input orientation:                          
 ---------------------------------------------------------------------
 Center     Atomic      Atomic             Coordinates (Angstroms)
 Number     Number       Type             X           Y           Z
 ---------------------------------------------------------------------
      1          6           0       -0.006555   -0.000000    0.005601
      2          6           0        0.006544   -0.000000    1.338859
      3          6           0        1.176200   -0.000000   -0.777756
      4          6           0       -1.176210    0.000000    2.122216
      5          1           0       -0.947968   -0.000000   -0.524304
      6          1           0        0.947958   -0.000000    1.868764
      7          6           0        2.152956    0.000000   -1.464001
      8          6           0       -2.152963    0.000000    2.808473
      9          1           0        3.113490    0.000000   -1.926228
     10          1           0       -3.113446    0.000000    3.270811
 ---------------------------------------------------------------------
                    Distance matrix (angstroms):
                    1          2          3          4          5
     1  C    0.000000
     2  C    1.333323   0.000000
     3  C    1.418646   2.418296   0.000000
     4  C    2.418296   1.418646   3.734123   0.000000
     5  H    1.080305   2.093436   2.139236   2.656344   0.000000
     6  H    2.093436   1.080305   2.656344   2.139236   3.053083
     7  C    2.612128   3.530313   1.193727   4.893291   3.240179
     8  C    3.530320   2.612132   4.893298   1.193731   3.543926
     9  H    3.669692   4.507095   2.252128   5.898426   4.296608
    10  H    4.507147   3.669711   5.898471   2.252144   4.369461
                    6          7          8          9         10
     6  H    0.000000
     7  C    3.543916   0.000000
     8  C    3.240180   6.065886   0.000000
     9  H    4.369381   1.065964   7.081873   0.000000
    10  H    4.296597   7.081909   1.065967   8.110731   0.000000
 Symmetry turned off by external request.
 Stoichiometry    C6H4
 Framework group  CS[SG(C6H4)]
 Deg. of freedom    17
 Full point group                 CS      NOp   2
 Rotational constants (GHZ):          46.3707584           1.4775170           1.4318924
 Leave Link  202 at Sat Sep 26 00:37:28 2020, MaxMem=   268435456 cpu:               0.7 elap:               0.1
 (Enter /applis/site/cecic/gaussian16/B.01/nehalem/g16/l301.exe)
 Standard basis: CC-pVTZ (5D, 7F)
 Ernie: Thresh=  0.10000D-02 Tol=  0.10000D-05 Strict=F.
 Ernie:  18 primitive shells out of 188 were deleted.
   236 basis functions,   380 primitive gaussians,   270 cartesian basis functions
    20 alpha electrons       20 beta electrons
       nuclear repulsion energy       162.8632885253 Hartrees.
 IExCor= 4336 DFT=T Ex+Corr=M062X ExCW=0 ScaHFX=  0.540000
 ScaDFX=  1.000000  1.000000  1.000000  1.000000 ScalE2=  1.000000  1.000000
 IRadAn=      5 IRanWt=     -1 IRanGd=            0 ICorTp=0 IEmpDi=  4
 NAtoms=   10 NActive=   10 NUniq=   10 SFac= 1.00D+00 NAtFMM=   60 NAOKFM=F Big=F
 Integral buffers will be    131072 words long.
 Raffenetti 2 integral format.
 Two-electron integral symmetry is turned off.
 Leave Link  301 at Sat Sep 26 00:37:28 2020, MaxMem=   268435456 cpu:               0.6 elap:               0.1
 (Enter /applis/site/cecic/gaussian16/B.01/nehalem/g16/l302.exe)
 NPDir=0 NMtPBC=     1 NCelOv=     1 NCel=       1 NClECP=     1 NCelD=      1
         NCelK=      1 NCelE2=     1 NClLst=     1 CellRange=     0.0.
 One-electron integrals computed using PRISM.
 NBasis=   236 RedAO= T EigKep=  1.83D-05  NBF=   236
 NBsUse=   236 1.00D-06 EigRej= -1.00D+00 NBFU=   236
 Precomputing XC quadrature grid using
 IXCGrd= 4 IRadAn=           5 IRanWt=          -1 IRanGd=           0 AccXCQ= 0.00D+00.
 Generated NRdTot=       0 NPtTot=           0 NUsed=           0 NTot=          32
 NSgBfM=   270   270   270   270   270 MxSgAt=    10 MxSgA2=    10.
 Leave Link  302 at Sat Sep 26 00:37:29 2020, MaxMem=   268435456 cpu:               1.6 elap:               0.2
 (Enter /applis/site/cecic/gaussian16/B.01/nehalem/g16/l303.exe)
 DipDrv:  MaxL=1.
 Leave Link  303 at Sat Sep 26 00:37:29 2020, MaxMem=   268435456 cpu:               0.8 elap:               0.1
 (Enter /applis/site/cecic/gaussian16/B.01/nehalem/g16/l401.exe)
 Initial guess from the checkpoint file:  "input.chk"
 B after Tr=    -0.021322   -0.000000    0.000160
         Rot=    0.999965    0.000000   -0.008389   -0.000000 Ang=  -0.96 deg.
 Guess basis will be translated and rotated to current coordinates.
 JPrj=2 DoOrth=T DoCkMO=T.
 Generating alternative initial guess.
 ExpMin= 1.03D-01 ExpMax= 8.24D+03 ExpMxC= 2.81D+02 IAcc=3 IRadAn=         5 AccDes= 0.00D+00
 Harris functional with IExCor= 1009 and IRadAn=       5 diagonalized for initial guess.
 HarFok:  IExCor= 1009 AccDes= 0.00D+00 IRadAn=         5 IDoV= 1 UseB2=F ITyADJ=14
 ICtDFT=  3500011 ScaDFX=  1.000000  1.000000  1.000000  1.000000
 FoFCou: FMM=F IPFlag=           0 FMFlag=      100000 FMFlg1=           0
         NFxFlg=           0 DoJE=T BraDBF=F KetDBF=T FulRan=T
         wScrn=  0.000000 ICntrl=       500 IOpCl=  0 I1Cent=   200000004 NGrid=           0
         NMat0=    1 NMatS0=      1 NMatT0=    0 NMatD0=    1 NMtDS0=    0 NMtDT0=    0
 Symmetry not used in FoFCou.
 Harris En= -230.823010636933    
 Leave Link  401 at Sat Sep 26 00:37:30 2020, MaxMem=   268435456 cpu:               7.1 elap:               1.0
 (Enter /applis/site/cecic/gaussian16/B.01/nehalem/g16/l502.exe)
 Two-electron integral symmetry not used.
 Closed shell SCF:
 Using DIIS extrapolation, IDIIS=  1040.
 NGot=   268435456 LenX=   268285690 LenY=   268212349
 Requested convergence on RMS density matrix=1.00D-08 within 128 cycles.
 Requested convergence on MAX density matrix=1.00D-06.
 Requested convergence on             energy=1.00D-06.
 No special actions if energy rises.
 Fock matrices will be formed incrementally for  20 cycles.
 Integral accuracy reduced to 1.0D-05 until final iterations.

 Cycle   1  Pass 0  IDiag  1:
 FoFJK:  IHMeth= 1 ICntrl=       0 DoSepK=F KAlg= 0 I1Cent=           0 FoldK=F
 IRaf= 930000000 NMat=       1 IRICut=       1 DoRegI=T DoRafI=F ISym2E= 0 IDoP0=0 IntGTp=1.
 FoFCou: FMM=F IPFlag=           0 FMFlag=      100000 FMFlg1=           0
         NFxFlg=           0 DoJE=F BraDBF=F KetDBF=F FulRan=T
         wScrn=  0.000000 ICntrl=         0 IOpCl=  0 I1Cent=           0 NGrid=           0
         NMat0=    1 NMatS0=      1 NMatT0=    0 NMatD0=    1 NMtDS0=    0 NMtDT0=    0
 Symmetry not used in FoFCou.
 E= -230.862197316378    
 DIIS: error= 6.05D-03 at cycle   1 NSaved=   1.
 NSaved= 1 IEnMin= 1 EnMin= -230.862197316378     IErMin= 1 ErrMin= 6.05D-03
 ErrMax= 6.05D-03  0.00D+00 EMaxC= 1.00D-01 BMatC= 5.46D-03 BMatP= 5.46D-03
 IDIUse=3 WtCom= 9.39D-01 WtEn= 6.05D-02
 Coeff-Com:  0.100D+01
 Coeff-En:   0.100D+01
 Coeff:      0.100D+01
 Gap=     1.012 Goal=   None    Shift=    0.000
 GapD=    1.012 DampG=2.000 DampE=1.000 DampFc=2.0000 IDamp=-1.
 RMSDP=1.18D-03 MaxDP=3.04D-02              OVMax= 1.95D-02

 Cycle   2  Pass 0  IDiag  1:
 RMSU=  1.18D-03    CP:  9.98D-01
 E= -230.866681218340     Delta-E=       -0.004483901962 Rises=F Damp=F
 DIIS: error= 6.32D-04 at cycle   2 NSaved=   2.
 NSaved= 2 IEnMin= 2 EnMin= -230.866681218340     IErMin= 2 ErrMin= 6.32D-04
 ErrMax= 6.32D-04  0.00D+00 EMaxC= 1.00D-01 BMatC= 7.13D-05 BMatP= 5.46D-03
 IDIUse=3 WtCom= 9.94D-01 WtEn= 6.32D-03
 Coeff-Com: -0.601D-01 0.106D+01
 Coeff-En:   0.000D+00 0.100D+01
 Coeff:     -0.598D-01 0.106D+01
 Gap=     0.265 Goal=   None    Shift=    0.000
 RMSDP=8.98D-05 MaxDP=1.99D-03 DE=-4.48D-03 OVMax= 5.22D-03

 Cycle   3  Pass 0  IDiag  1:
 RMSU=  5.85D-05    CP:  9.97D-01  1.06D+00
 E= -230.866795127862     Delta-E=       -0.000113909522 Rises=F Damp=F
 DIIS: error= 6.50D-04 at cycle   3 NSaved=   3.
 NSaved= 3 IEnMin= 3 EnMin= -230.866795127862     IErMin= 2 ErrMin= 6.32D-04
 ErrMax= 6.50D-04  0.00D+00 EMaxC= 1.00D-01 BMatC= 4.51D-05 BMatP= 7.13D-05
 IDIUse=3 WtCom= 9.94D-01 WtEn= 6.50D-03
 Coeff-Com: -0.350D-01 0.499D+00 0.536D+00
 Coeff-En:   0.000D+00 0.000D+00 0.100D+01
 Coeff:     -0.347D-01 0.496D+00 0.539D+00
 Gap=     0.265 Goal=   None    Shift=    0.000
 RMSDP=2.44D-05 MaxDP=6.46D-04 DE=-1.14D-04 OVMax= 2.82D-03

 Cycle   4  Pass 0  IDiag  1:
 RMSU=  2.41D-05    CP:  9.97D-01  1.06D+00  1.06D+00
 E= -230.866832036560     Delta-E=       -0.000036908698 Rises=F Damp=F
 DIIS: error= 3.51D-04 at cycle   4 NSaved=   4.
 NSaved= 4 IEnMin= 4 EnMin= -230.866832036560     IErMin= 4 ErrMin= 3.51D-04
 ErrMax= 3.51D-04  0.00D+00 EMaxC= 1.00D-01 BMatC= 1.10D-05 BMatP= 4.51D-05
 IDIUse=3 WtCom= 9.96D-01 WtEn= 3.51D-03
 Coeff-Com:  0.158D-02-0.107D+00 0.321D+00 0.785D+00
 Coeff-En:   0.000D+00 0.000D+00 0.192D+00 0.808D+00
 Coeff:      0.158D-02-0.107D+00 0.321D+00 0.785D+00
 Gap=     0.265 Goal=   None    Shift=    0.000
 RMSDP=1.70D-05 MaxDP=3.28D-04 DE=-3.69D-05 OVMax= 1.15D-03

 Cycle   5  Pass 0  IDiag  1:
 RMSU=  1.29D-05    CP:  9.97D-01  1.06D+00  1.24D+00  1.03D+00
 E= -230.866844062367     Delta-E=       -0.000012025807 Rises=F Damp=F
 DIIS: error= 2.81D-05 at cycle   5 NSaved=   5.
 NSaved= 5 IEnMin= 5 EnMin= -230.866844062367     IErMin= 5 ErrMin= 2.81D-05
 ErrMax= 2.81D-05  0.00D+00 EMaxC= 1.00D-01 BMatC= 1.25D-07 BMatP= 1.10D-05
 IDIUse=1 WtCom= 1.00D+00 WtEn= 0.00D+00
 Coeff-Com:  0.163D-02-0.467D-01 0.719D-01 0.212D+00 0.761D+00
 Coeff:      0.163D-02-0.467D-01 0.719D-01 0.212D+00 0.761D+00
 Gap=     0.265 Goal=   None    Shift=    0.000
 RMSDP=6.80D-06 MaxDP=1.65D-04 DE=-1.20D-05 OVMax= 1.35D-04

 Initial convergence to 1.0D-05 achieved.  Increase integral accuracy.
 Cycle   6  Pass 1  IDiag  1:
 E= -230.866858204946     Delta-E=       -0.000014142579 Rises=F Damp=F
 DIIS: error= 6.49D-05 at cycle   1 NSaved=   1.
 NSaved= 1 IEnMin= 1 EnMin= -230.866858204946     IErMin= 1 ErrMin= 6.49D-05
 ErrMax= 6.49D-05  0.00D+00 EMaxC= 1.00D-01 BMatC= 6.48D-07 BMatP= 6.48D-07
 IDIUse=1 WtCom= 1.00D+00 WtEn= 0.00D+00
 Coeff-Com:  0.100D+01
 Coeff:      0.100D+01
 Gap=     0.265 Goal=   None    Shift=    0.000
 RMSDP=6.80D-06 MaxDP=1.65D-04 DE=-1.41D-05 OVMax= 8.67D-05

 Cycle   7  Pass 1  IDiag  1:
 RMSU=  9.95D-05    CP:  1.00D+00
 E= -230.866858453031     Delta-E=       -0.000000248085 Rises=F Damp=F
 DIIS: error= 9.55D-06 at cycle   2 NSaved=   2.
 NSaved= 2 IEnMin= 2 EnMin= -230.866858453031     IErMin= 2 ErrMin= 9.55D-06
 ErrMax= 9.55D-06  0.00D+00 EMaxC= 1.00D-01 BMatC= 9.63D-09 BMatP= 6.48D-07
 IDIUse=1 WtCom= 1.00D+00 WtEn= 0.00D+00
 Coeff-Com:  0.377D-02 0.996D+00
 Coeff:      0.377D-02 0.996D+00
 Gap=     0.265 Goal=   None    Shift=    0.000
 RMSDP=4.48D-06 MaxDP=1.59D-04 DE=-2.48D-07 OVMax= 6.17D-05

 Cycle   8  Pass 1  IDiag  1:
 RMSU=  1.70D-06    CP:  1.00D+00  1.04D+00
 E= -230.866858444662     Delta-E=        0.000000008370 Rises=F Damp=F
 DIIS: error= 1.53D-05 at cycle   3 NSaved=   3.
 NSaved= 3 IEnMin= 2 EnMin= -230.866858453031     IErMin= 2 ErrMin= 9.55D-06
 ErrMax= 1.53D-05  0.00D+00 EMaxC= 1.00D-01 BMatC= 1.84D-08 BMatP= 9.63D-09
 IDIUse=1 WtCom= 1.00D+00 WtEn= 0.00D+00
 Coeff-Com: -0.110D-01 0.592D+00 0.419D+00
 Coeff:     -0.110D-01 0.592D+00 0.419D+00
 Gap=     0.265 Goal=   None    Shift=    0.000
 RMSDP=3.82D-07 MaxDP=1.17D-05 DE= 8.37D-09 OVMax= 4.80D-05

 Cycle   9  Pass 1  IDiag  1:
 RMSU=  3.43D-07    CP:  1.00D+00  1.04D+00  9.82D-01
 E= -230.866858463301     Delta-E=       -0.000000018639 Rises=F Damp=F
 DIIS: error= 2.18D-06 at cycle   4 NSaved=   4.
 NSaved= 4 IEnMin= 4 EnMin= -230.866858463301     IErMin= 4 ErrMin= 2.18D-06
 ErrMax= 2.18D-06  0.00D+00 EMaxC= 1.00D-01 BMatC= 5.81D-10 BMatP= 9.63D-09
 IDIUse=1 WtCom= 1.00D+00 WtEn= 0.00D+00
 Coeff-Com: -0.597D-02 0.215D+00 0.201D+00 0.590D+00
 Coeff:     -0.597D-02 0.215D+00 0.201D+00 0.590D+00
 Gap=     0.265 Goal=   None    Shift=    0.000
 RMSDP=1.33D-07 MaxDP=3.89D-06 DE=-1.86D-08 OVMax= 7.81D-06

 Cycle  10  Pass 1  IDiag  1:
 RMSU=  7.40D-08    CP:  1.00D+00  1.04D+00  1.02D+00  1.01D+00
 E= -230.866858463832     Delta-E=       -0.000000000531 Rises=F Damp=F
 DIIS: error= 5.34D-07 at cycle   5 NSaved=   5.
 NSaved= 5 IEnMin= 5 EnMin= -230.866858463832     IErMin= 5 ErrMin= 5.34D-07
 ErrMax= 5.34D-07  0.00D+00 EMaxC= 1.00D-01 BMatC= 2.45D-11 BMatP= 5.81D-10
 IDIUse=1 WtCom= 1.00D+00 WtEn= 0.00D+00
 Coeff-Com:  0.210D-03-0.349D-01-0.129D-01 0.129D+00 0.919D+00
 Coeff:      0.210D-03-0.349D-01-0.129D-01 0.129D+00 0.919D+00
 Gap=     0.265 Goal=   None    Shift=    0.000
 RMSDP=7.77D-08 MaxDP=2.91D-06 DE=-5.31D-10 OVMax= 2.61D-06

 Cycle  11  Pass 1  IDiag  1:
 RMSU=  2.93D-08    CP:  1.00D+00  1.04D+00  1.05D+00  1.07D+00  1.18D+00
 E= -230.866858463866     Delta-E=       -0.000000000035 Rises=F Damp=F
 DIIS: error= 1.15D-07 at cycle   6 NSaved=   6.
 NSaved= 6 IEnMin= 6 EnMin= -230.866858463866     IErMin= 6 ErrMin= 1.15D-07
 ErrMax= 1.15D-07  0.00D+00 EMaxC= 1.00D-01 BMatC= 2.71D-12 BMatP= 2.45D-11
 IDIUse=1 WtCom= 1.00D+00 WtEn= 0.00D+00
 Coeff-Com:  0.447D-03-0.247D-01-0.154D-01 0.766D-02 0.320D+00 0.712D+00
 Coeff:      0.447D-03-0.247D-01-0.154D-01 0.766D-02 0.320D+00 0.712D+00
 Gap=     0.265 Goal=   None    Shift=    0.000
 RMSDP=1.01D-08 MaxDP=2.41D-07 DE=-3.46D-11 OVMax= 7.00D-07

 Cycle  12  Pass 1  IDiag  1:
 RMSU=  7.23D-09    CP:  1.00D+00  1.04D+00  1.06D+00  1.07D+00  1.22D+00
                    CP:  1.09D+00
 E= -230.866858463867     Delta-E=       -0.000000000001 Rises=F Damp=F
 DIIS: error= 3.17D-08 at cycle   7 NSaved=   7.
 NSaved= 7 IEnMin= 7 EnMin= -230.866858463867     IErMin= 7 ErrMin= 3.17D-08
 ErrMax= 3.17D-08  0.00D+00 EMaxC= 1.00D-01 BMatC= 1.31D-13 BMatP= 2.71D-12
 IDIUse=1 WtCom= 1.00D+00 WtEn= 0.00D+00
 Coeff-Com: -0.320D-04 0.457D-02 0.240D-02-0.157D-01-0.122D+00-0.113D-01
 Coeff-Com:  0.114D+01
 Coeff:     -0.320D-04 0.457D-02 0.240D-02-0.157D-01-0.122D+00-0.113D-01
 Coeff:      0.114D+01
 Gap=     0.265 Goal=   None    Shift=    0.000
 RMSDP=5.20D-09 MaxDP=1.69D-07 DE=-6.82D-13 OVMax= 3.62D-07

 SCF Done:  E(RM062X) =  -230.866858464     A.U. after   12 cycles
            NFock= 12  Conv=0.52D-08     -V/T= 2.0054
 KE= 2.296226119112D+02 PE=-8.608032130565D+02 EE= 2.374504541561D+02
 Leave Link  502 at Sat Sep 26 00:37:51 2020, MaxMem=   268435456 cpu:             168.9 elap:              21.3
 (Enter /applis/site/cecic/gaussian16/B.01/nehalem/g16/l701.exe)
 ... and contract with generalized density number  0.
 Compute integral first derivatives.
 Leave Link  701 at Sat Sep 26 00:37:51 2020, MaxMem=   268435456 cpu:               1.3 elap:               0.2
 (Enter /applis/site/cecic/gaussian16/B.01/nehalem/g16/l702.exe)
 L702 exits ... SP integral derivatives will be done elsewhere.
 Leave Link  702 at Sat Sep 26 00:37:51 2020, MaxMem=   268435456 cpu:               0.4 elap:               0.1
 (Enter /applis/site/cecic/gaussian16/B.01/nehalem/g16/l703.exe)
 Integral derivatives from FoFJK, PRISM(SPDF).
 Compute integral first derivatives, UseDBF=F ICtDFT=           0.
 Calling FoFJK, ICntrl=      2127 FMM=F ISym2X=0 I1Cent= 0 IOpClX= 0 NMat=1 NMatS=1 NMatT=0.
 FoFJK:  IHMeth= 1 ICntrl=    2127 DoSepK=F KAlg= 0 I1Cent=           0 FoldK=F
 IRaf=         0 NMat=       1 IRICut=       1 DoRegI=T DoRafI=F ISym2E= 0 IDoP0=0 IntGTp=1.
 FoFCou: FMM=F IPFlag=           0 FMFlag=      100000 FMFlg1=         800
         NFxFlg=           0 DoJE=F BraDBF=F KetDBF=F FulRan=T
         wScrn=  0.000000 ICntrl=      2127 IOpCl=  0 I1Cent=           0 NGrid=           0
         NMat0=    1 NMatS0=      1 NMatT0=    0 NMatD0=    1 NMtDS0=    0 NMtDT0=    0
 Symmetry not used in FoFCou.
 Leave Link  703 at Sat Sep 26 00:37:57 2020, MaxMem=   268435456 cpu:              45.2 elap:               5.7
 (Enter /applis/site/cecic/gaussian16/B.01/nehalem/g16/l716.exe)
 Dipole        = 1.55561801D-05 3.55412487D-10 4.74339654D-05
 -------------------------------------------------------------------
 Center     Atomic                   Forces (Hartrees/Bohr)
 Number     Number              X              Y              Z
 -------------------------------------------------------------------
      1        6          -0.001240780    0.000000000   -0.003965329
      2        6           0.001239815    0.000000000    0.003963892
      3        6          -0.009885725    0.000000000    0.004839951
      4        6           0.009876962   -0.000000000   -0.004834160
      5        1          -0.001946234   -0.000000000   -0.000580064
      6        1           0.001946055   -0.000000000    0.000580310
      7        6           0.017590088   -0.000000000   -0.001885796
      8        6          -0.017580734    0.000000000    0.001885778
      9        1          -0.004425013    0.000000000   -0.003469393
     10        1           0.004425565   -0.000000000    0.003464811
 -------------------------------------------------------------------
 Cartesian Forces:  Max     0.017590088 RMS     0.005696932
 Leave Link  716 at Sat Sep 26 00:37:57 2020, MaxMem=   268435456 cpu:               0.3 elap:               0.1
 (Enter /applis/site/cecic/gaussian16/B.01/nehalem/g16/l103.exe)

 GradGradGradGradGradGradGradGradGradGradGradGradGradGradGradGradGradGrad
 Berny optimization.
 Using GEDIIS/GDIIS optimizer.
 FormGI is forming the generalized inverse of G from B-inverse, IUseBI=4.
 Internal  Forces:  Max     0.013850908 RMS     0.004990077
 Search for a local minimum.
 Step number   3 out of a maximum of  100
 All quantities printed in internal units (Hartrees-Bohrs-Radians)
 RMS Force = .49901D-02 SwitMx=.10000D-02 MixMth= 1
 Mixed Optimization -- RFO/linear search
 Update second derivatives using D2CorX and points    1    3    2
 DE=  1.73D-03 DEPred=-3.38D-04 R=-5.11D+00
 Trust test=-5.11D+00 RLast= 2.58D-01 DXMaxT set to 1.50D-01
 ITU= -1  1  0
 Use linear search instead of GDIIS.
     Eigenvalues ---    0.00654   0.00654   0.00654   0.02823   0.02823
     Eigenvalues ---    0.02823   0.03641   0.04643   0.04643   0.04643
     Eigenvalues ---    0.08640   0.15740   0.16000   0.21861   0.22000
     Eigenvalues ---    0.35181   0.35245   0.38749   0.38779   0.41643
     Eigenvalues ---    0.42134   0.56200   1.01420   1.03126
 RFO step:  Lambda=-6.96659103D-05 EMin= 6.54121972D-03
[...]
 RLE energy=       -0.9431713866
 DE(Corr)= -0.94297192     E(CORR)=     -230.40990009     Delta=-2.76D-03
 NORM(A)=   0.11730997D+01
 Iteration Nr.   5
 **********************
 DD1Dir will call FoFJK   4 times, MxPair=        54
 NAB=   105 NAA=     0 NBB=     0 NumPrc=  8.
 DD1Dir:  Pass   1 NRAB=    27 NRAA=     0 NRBB=     0 NR=    54.
 DD1Dir:  Pass   2 NRAB=    27 NRAA=     0 NRBB=     0 NR=    54.
 DD1Dir:  Pass   3 NRAB=    27 NRAA=     0 NRBB=     0 NR=    54.
 DD1Dir:  Pass   4 NRAB=    24 NRAA=     0 NRBB=     0 NR=    48.
 A-vector RMS=  4.5244330D-05 Max=  1.1981615D-03 conv= 1.00D-05.
 RLE energy=       -0.9433858736
 DE(Corr)= -0.94329305     E(CORR)=     -230.41022122     Delta=-3.21D-04
 NORM(A)=   0.11734551D+01
 Iteration Nr.   6
 **********************
 DD1Dir will call FoFJK   4 times, MxPair=        54
 NAB=   105 NAA=     0 NBB=     0 NumPrc=  8.
 DD1Dir:  Pass   1 NRAB=    27 NRAA=     0 NRBB=     0 NR=    54.
 DD1Dir:  Pass   2 NRAB=    27 NRAA=     0 NRBB=     0 NR=    54.
 DD1Dir:  Pass   3 NRAB=    27 NRAA=     0 NRBB=     0 NR=    54.
 DD1Dir:  Pass   4 NRAB=    24 NRAA=     0 NRBB=     0 NR=    48.
 A-vector RMS=  7.9150511D-06 Max=  1.9023678D-04 conv= 1.00D-05.
 RLE energy=       -0.9433581810
 DE(Corr)= -0.94335274     E(CORR)=     -230.41028091     Delta=-5.97D-05
 NORM(A)=   0.11734819D+01
 Iteration Nr.   7
 **********************
 DD1Dir will call FoFJK   4 times, MxPair=        54
 NAB=   105 NAA=     0 NBB=     0 NumPrc=  8.
 DD1Dir:  Pass   1 NRAB=    27 NRAA=     0 NRBB=     0 NR=    54.
 DD1Dir:  Pass   2 NRAB=    27 NRAA=     0 NRBB=     0 NR=    54.
 DD1Dir:  Pass   3 NRAB=    27 NRAA=     0 NRBB=     0 NR=    54.
 DD1Dir:  Pass   4 NRAB=    24 NRAA=     0 NRBB=     0 NR=    48.
 A-vector RMS=  4.4522906D-06 Max=  9.8176191D-05 conv= 1.00D-05.
 RLE energy=       -0.9433450824
 DE(Corr)= -0.94335974     E(CORR)=     -230.41028790     Delta=-6.99D-06
 NORM(A)=   0.11734793D+01
 Iteration Nr.   8
 **********************
 DD1Dir will call FoFJK   4 times, MxPair=        54
 NAB=   105 NAA=     0 NBB=     0 NumPrc=  8.
 DD1Dir:  Pass   1 NRAB=    27 NRAA=     0 NRBB=     0 NR=    54.
 DD1Dir:  Pass   2 NRAB=    27 NRAA=     0 NRBB=     0 NR=    54.
 DD1Dir:  Pass   3 NRAB=    27 NRAA=     0 NRBB=     0 NR=    54.
 DD1Dir:  Pass   4 NRAB=    24 NRAA=     0 NRBB=     0 NR=    48.
 A-vector RMS=  1.6863580D-06 Max=  2.7535564D-05 conv= 1.00D-05.
 RLE energy=       -0.9433575769
 DE(Corr)= -0.94335900     E(CORR)=     -230.41028717     Delta= 7.36D-07
 NORM(A)=   0.11734841D+01
 Iteration Nr.   9
 **********************
 DD1Dir will call FoFJK   4 times, MxPair=        54
 NAB=   105 NAA=     0 NBB=     0 NumPrc=  8.
 DD1Dir:  Pass   1 NRAB=    27 NRAA=     0 NRBB=     0 NR=    54.
 DD1Dir:  Pass   2 NRAB=    27 NRAA=     0 NRBB=     0 NR=    54.
 DD1Dir:  Pass   3 NRAB=    27 NRAA=     0 NRBB=     0 NR=    54.
 DD1Dir:  Pass   4 NRAB=    24 NRAA=     0 NRBB=     0 NR=    48.
 A-vector RMS=  6.6216508D-07 Max=  1.4497269D-05 conv= 1.00D-05.
 RLE energy=       -0.9433563330
 DE(Corr)= -0.94335726     E(CORR)=     -230.41028543     Delta= 1.74D-06
 NORM(A)=   0.11734848D+01
 Iteration Nr.  10
 **********************
 DD1Dir will call FoFJK   4 times, MxPair=        54
 NAB=   105 NAA=     0 NBB=     0 NumPrc=  8.
 DD1Dir:  Pass   1 NRAB=    27 NRAA=     0 NRBB=     0 NR=    54.
 DD1Dir:  Pass   2 NRAB=    27 NRAA=     0 NRBB=     0 NR=    54.
 DD1Dir:  Pass   3 NRAB=    27 NRAA=     0 NRBB=     0 NR=    54.
 DD1Dir:  Pass   4 NRAB=    24 NRAA=     0 NRBB=     0 NR=    48.
 A-vector RMS=  4.4113423D-07 Max=  1.1457882D-05 conv= 1.00D-05.
 RLE energy=       -0.9433584840
 DE(Corr)= -0.94335857     E(CORR)=     -230.41028674     Delta=-1.31D-06
 NORM(A)=   0.11734865D+01
 Iteration Nr.  11
 **********************
 DD1Dir will call FoFJK   4 times, MxPair=        54
 NAB=   105 NAA=     0 NBB=     0 NumPrc=  8.
 DD1Dir:  Pass   1 NRAB=    27 NRAA=     0 NRBB=     0 NR=    54.
 DD1Dir:  Pass   2 NRAB=    27 NRAA=     0 NRBB=     0 NR=    54.
 DD1Dir:  Pass   3 NRAB=    27 NRAA=     0 NRBB=     0 NR=    54.
 DD1Dir:  Pass   4 NRAB=    24 NRAA=     0 NRBB=     0 NR=    48.
 A-vector RMS=  1.3770956D-07 Max=  2.3278784D-06 conv= 1.00D-05.
 RLE energy=       -0.9433589746
 DE(Corr)= -0.94335873     E(CORR)=     -230.41028690     Delta=-1.57D-07
 NORM(A)=   0.11734875D+01
 Iteration Nr.  12
 **********************
 DD1Dir will call FoFJK   4 times, MxPair=        54
 NAB=   105 NAA=     0 NBB=     0 NumPrc=  8.
 DD1Dir:  Pass   1 NRAB=    27 NRAA=     0 NRBB=     0 NR=    54.
 DD1Dir:  Pass   2 NRAB=    27 NRAA=     0 NRBB=     0 NR=    54.
 DD1Dir:  Pass   3 NRAB=    27 NRAA=     0 NRBB=     0 NR=    54.
 DD1Dir:  Pass   4 NRAB=    24 NRAA=     0 NRBB=     0 NR=    48.
 A-vector RMS=  5.3343037D-08 Max=  1.2717617D-06 conv= 1.00D-05.
 RLE energy=       -0.9433591562
 DE(Corr)= -0.94335910     E(CORR)=     -230.41028726     Delta=-3.68D-07
 NORM(A)=   0.11734880D+01
 Iteration Nr.  13
 **********************
 DD1Dir will call FoFJK   4 times, MxPair=        54
 NAB=   105 NAA=     0 NBB=     0 NumPrc=  8.
 DD1Dir:  Pass   1 NRAB=    27 NRAA=     0 NRBB=     0 NR=    54.
 DD1Dir:  Pass   2 NRAB=    27 NRAA=     0 NRBB=     0 NR=    54.
 DD1Dir:  Pass   3 NRAB=    27 NRAA=     0 NRBB=     0 NR=    54.
 DD1Dir:  Pass   4 NRAB=    24 NRAA=     0 NRBB=     0 NR=    48.
 A-vector RMS=  3.4293628D-08 Max=  8.5155272D-07 conv= 1.00D-05.
 RLE energy=       -0.9433593128
 DE(Corr)= -0.94335925     E(CORR)=     -230.41028742     Delta=-1.57D-07
 NORM(A)=   0.11734883D+01
 Iteration Nr.  14
 **********************
 DD1Dir will call FoFJK   4 times, MxPair=        54
 NAB=   105 NAA=     0 NBB=     0 NumPrc=  8.
 DD1Dir:  Pass   1 NRAB=    27 NRAA=     0 NRBB=     0 NR=    54.
 DD1Dir:  Pass   2 NRAB=    27 NRAA=     0 NRBB=     0 NR=    54.
 DD1Dir:  Pass   3 NRAB=    27 NRAA=     0 NRBB=     0 NR=    54.
 DD1Dir:  Pass   4 NRAB=    24 NRAA=     0 NRBB=     0 NR=    48.
 A-vector RMS=  8.6429553D-09 Max=  2.5132734D-07 conv= 1.00D-05.
 RLE energy=       -0.9433593650
 DE(Corr)= -0.94335934     E(CORR)=     -230.41028750     Delta=-8.37D-08
 NORM(A)=   0.11734884D+01
 CI/CC converged in   14 iterations to DelEn=-8.37D-08 Conv= 1.00D-07 ErrA1= 8.64D-09 Conv= 1.00D-05
 Wavefunction amplitudes converged. E(Corr)=     -230.41028750    
 Largest amplitude= 6.23D-02
 T4(AAA)= -0.13978176D-02
 T4(AAB)= -0.25941029D-01
 T5(AAA)=  0.47371480D-04
 T5(AAB)=  0.68245583D-03
 Time for triples=    42195.37 seconds.
 T4(CCSD)= -0.54677693D-01
 T5(CCSD)=  0.14596546D-02
 CCSD(T)= -0.23046350554D+03
 Discarding MO integrals.
 Leave Link  913 at Sat Sep 26 02:56:05 2020, MaxMem=   327680000 cpu:           60038.8 elap:            7786.6
 (Enter /applis/site/cecic/gaussian16/B.01/nehalem/g16/l601.exe)
 Copying SCF densities to generalized density rwf, IOpCl= 0 IROHF=0.

 **********************************************************************

            Population analysis using the SCF Density.

 **********************************************************************

 Orbital symmetries:
       Occupied  (A) (A) (A) (A) (A) (A) (A) (A) (A) (A) (A) (A)
                 (A) (A) (A) (A) (A) (A) (A) (A)
       Virtual   (A) (A) (A) (A) (A) (A) (A) (A) (A) (A) (A) (A)
                 (A) (A) (A) (A) (A) (A) (A) (A) (A) (A) (A) (A)
                 (A) (A) (A) (A) (A) (A) (A) (A) (A) (A) (A) (A)
                 (A) (A) (A) (A) (A) (A) (A) (A) (A) (A) (A) (A)
                 (A) (A) (A) (A) (A) (A) (A) (A) (A) (A) (A) (A)
                 (A) (A) (A) (A) (A) (A) (A) (A) (A) (A) (A) (A)
                 (A) (A) (A) (A) (A) (A) (A) (A) (A) (A) (A) (A)
                 (A) (A) (A) (A) (A) (A) (A) (A) (A) (A) (A) (A)
                 (A) (A) (A) (A) (A) (A) (A) (A) (A) (A) (A) (A)
                 (A) (A) (A) (A) (A) (A) (A) (A) (A) (A) (A) (A)
                 (A) (A) (A) (A) (A) (A) (A) (A) (A) (A) (A) (A)
                 (A) (A) (A) (A) (A) (A) (A) (A) (A) (A) (A) (A)
                 (A) (A) (A) (A) (A) (A) (A) (A) (A) (A) (A) (A)
                 (A) (A) (A) (A) (A) (A) (A) (A) (A) (A) (A) (A)
                 (A) (A) (A) (A) (A) (A) (A) (A) (A) (A) (A) (A)
                 (A) (A) (A) (A) (A) (A) (A) (A) (A) (A) (A) (A)
                 (A) (A) (A) (A) (A) (A) (A) (A) (A) (A) (A) (A)
                 (A) (A) (A) (A) (A) (A) (A) (A) (A) (A) (A) (A)
                 (A) (A) (A) (A) (A) (A) (A) (A) (A) (A) (A) (A)
                 (A) (A) (A) (A) (A) (A) (A) (A) (A) (A) (A) (A)
                 (A) (A) (A) (A) (A) (A) (A) (A) (A) (A) (A) (A)
                 (A) (A) (A) (A) (A) (A) (A) (A) (A) (A) (A) (A)
                 (A) (A) (A) (A) (A) (A) (A) (A) (A) (A) (A) (A)
                 (A) (A) (A) (A) (A) (A) (A) (A) (A) (A) (A) (A)
                 (A) (A) (A) (A) (A) (A) (A) (A) (A) (A) (A) (A)
                 (A) (A) (A) (A) (A) (A) (A) (A) (A) (A) (A) (A)
                 (A) (A) (A) (A) (A) (A) (A) (A) (A) (A) (A) (A)
                 (A) (A) (A) (A) (A) (A) (A) (A) (A) (A) (A) (A)
                 (A) (A) (A) (A) (A) (A) (A) (A) (A) (A) (A) (A)
 The electronic state is 1-A.
 Alpha  occ. eigenvalues --  -11.27709 -11.27543 -11.24709 -11.24708 -11.23889
 Alpha  occ. eigenvalues --  -11.23888  -1.12572  -1.05234  -1.00432  -0.87960
 Alpha  occ. eigenvalues --   -0.73889  -0.73580  -0.69299  -0.66135  -0.57866
 Alpha  occ. eigenvalues --   -0.49953  -0.43135  -0.41041  -0.40445  -0.33147
 Alpha virt. eigenvalues --    0.02851   0.02923   0.03939   0.04406   0.05807
 Alpha virt. eigenvalues --    0.08111   0.08196   0.08325   0.09494   0.09557
 Alpha virt. eigenvalues --    0.09845   0.11138   0.11436   0.11711   0.12303
 Alpha virt. eigenvalues --    0.12610   0.12855   0.13653   0.14661   0.16187
 Alpha virt. eigenvalues --    0.17558   0.18408   0.18751   0.19684   0.19709
 Alpha virt. eigenvalues --    0.20748   0.22190   0.23095   0.23277   0.24842
 Alpha virt. eigenvalues --    0.25888   0.26240   0.26533   0.27871   0.29072
 Alpha virt. eigenvalues --    0.29937   0.30477   0.30935   0.31260   0.31744
 Alpha virt. eigenvalues --    0.32719   0.33134   0.33842   0.34637   0.35310
 Alpha virt. eigenvalues --    0.35853   0.36422   0.38641   0.38959   0.39780
 Alpha virt. eigenvalues --    0.39986   0.41811   0.42299   0.43136   0.43684
 Alpha virt. eigenvalues --    0.43761   0.44525   0.44560   0.45002   0.45474
 Alpha virt. eigenvalues --    0.46012   0.47892   0.48428   0.49750   0.49801
 Alpha virt. eigenvalues --    0.50178   0.50592   0.51355   0.51774   0.53115
 Alpha virt. eigenvalues --    0.54305   0.55006   0.56290   0.58744   0.58854
 Alpha virt. eigenvalues --    0.60963   0.63350   0.64807   0.64871   0.65137
 Alpha virt. eigenvalues --    0.68109   0.70546   0.71106   0.71165   0.72344
 Alpha virt. eigenvalues --    0.73292   0.78151   0.80119   0.80632   0.80943
 Alpha virt. eigenvalues --    0.84174   0.84585   0.84646   0.88352   0.88771
 Alpha virt. eigenvalues --    0.90184   0.90483   0.91341   0.91888   0.92018
 Alpha virt. eigenvalues --    0.93234   0.93304   0.95004   0.95908   0.96075
 Alpha virt. eigenvalues --    0.97749   0.98585   0.99444   1.00217   1.01684
 Alpha virt. eigenvalues --    1.02029   1.02779   1.03680   1.05009   1.05559
 Alpha virt. eigenvalues --    1.05808   1.06210   1.08106   1.08141   1.08143
 Alpha virt. eigenvalues --    1.08178   1.08325   1.08870   1.10600   1.10666
 Alpha virt. eigenvalues --    1.11347   1.12383   1.12909   1.13745   1.14220
 Alpha virt. eigenvalues --    1.16165   1.16716   1.18136   1.18332   1.20959
 Alpha virt. eigenvalues --    1.21211   1.22071   1.24081   1.25246   1.26320
 Alpha virt. eigenvalues --    1.27021   1.30955   1.31027   1.31201   1.33448
 Alpha virt. eigenvalues --    1.34476   1.35674   1.36862   1.38827   1.39992
 Alpha virt. eigenvalues --    1.41680   1.43585   1.43934   1.46047   1.48533
 Alpha virt. eigenvalues --    1.50670   1.51217   1.51419   1.57291   1.59379
 Alpha virt. eigenvalues --    1.60126   1.63923   1.65570   1.66104   1.66784
 Alpha virt. eigenvalues --    1.68934   1.70814   1.71930   1.75078   1.75565
 Alpha virt. eigenvalues --    1.77122   1.77250   1.77663   1.80044   1.81466
 Alpha virt. eigenvalues --    1.81629   1.83194   1.85465   1.89109   1.93111
 Alpha virt. eigenvalues --    1.93667   1.93775   1.97017   1.99287   2.00164
 Alpha virt. eigenvalues --    2.01191   2.05190   2.07078   2.07564   2.10037
 Alpha virt. eigenvalues --    2.12444   2.12880   2.18694   2.19518   2.21154
 Alpha virt. eigenvalues --    2.21878   2.24098   2.26060   2.26670   2.27369
 Alpha virt. eigenvalues --    2.29232   2.31950   2.36888   2.39134   2.46440
 Alpha virt. eigenvalues --    2.49554   2.50462   2.52702   2.58777   2.60816
 Alpha virt. eigenvalues --    2.64973   2.75461   2.77420   2.89847   2.90490
 Alpha virt. eigenvalues --    2.97883   3.04451   3.07910   3.14322   3.16830
 Alpha virt. eigenvalues --    3.17163   3.18257   3.23884   3.25484   3.26274
 Alpha virt. eigenvalues --    3.26483   3.26590   3.26811   3.29269   3.31550
 Alpha virt. eigenvalues --    3.33512   3.34517   3.36587   3.36860   3.36997
 Alpha virt. eigenvalues --    3.37104   3.40365   3.40811   3.41711   3.42204
 Alpha virt. eigenvalues --    3.43276   3.44936   3.45569   3.47828   3.50145
 Alpha virt. eigenvalues --    3.52007   3.55416   3.55952   3.56865   3.58185
 Alpha virt. eigenvalues --    3.59524   3.59986   3.67304   3.68016   3.70082
 Alpha virt. eigenvalues --    3.70134   3.71801   3.75424   3.76087   3.76574
 Alpha virt. eigenvalues --    3.77382   3.78914   3.79253   3.79598   3.80795
 Alpha virt. eigenvalues --    3.83443   3.84586   3.87576   3.89252   3.90949
 Alpha virt. eigenvalues --    3.91799   3.93189   3.94500   3.96832   3.99788
 Alpha virt. eigenvalues --    3.99994   4.01145   4.01164   4.08584   4.11655
 Alpha virt. eigenvalues --    4.16202   4.16217   4.20017   4.20409   4.21460
 Alpha virt. eigenvalues --    4.26781   4.28926   4.31258   4.33072   4.35501
 Alpha virt. eigenvalues --    4.37326   4.42923   4.47138   4.49304   4.50079
 Alpha virt. eigenvalues --    4.54720   4.55447   4.59204   4.60904   4.67206
 Alpha virt. eigenvalues --    4.69602   4.73133   4.74651   4.79896   4.82481
 Alpha virt. eigenvalues --    4.89012   4.95713   4.95799   4.99153   4.99401
 Alpha virt. eigenvalues --    4.99719   5.03571   5.06876   5.08164   5.09170
 Alpha virt. eigenvalues --    5.19115   5.24615   5.25004   5.34171   5.35686
 Alpha virt. eigenvalues --    5.38381   5.43869   5.49422   5.60355   5.64638
 Alpha virt. eigenvalues --    5.67591   5.80353   5.81148   6.09834   6.14791
 Alpha virt. eigenvalues --    6.18980   6.29314   6.41682   6.56383   6.58430
 Alpha virt. eigenvalues --    6.58984   6.69526   6.88202   6.89019   7.15815
 Alpha virt. eigenvalues --    7.18635   7.20918  15.23837  15.42488  17.64010
 Alpha virt. eigenvalues --   19.03181  20.86198  21.11393
          Condensed to atoms (all electrons):
               1          2          3          4          5          6
     1  C    7.355878  -0.489950   0.105504  -0.113684   0.314423   0.140162
     2  C   -0.489950   7.355884  -0.113681   0.105425   0.140185   0.314465
     3  C    0.105504  -0.113681   6.438796   0.106429  -0.398297  -0.125329
     4  C   -0.113684   0.105425   0.106429   6.438876  -0.125339  -0.398338
     5  H    0.314423   0.140185  -0.398297  -0.125339   1.026603   0.139991
     6  H    0.140162   0.314465  -0.125329  -0.398338   0.139991   1.026626
     7  C   -0.753538   0.161384  -1.326026  -0.000131  -0.066177  -0.062683
     8  C    0.161383  -0.753498  -0.000134  -1.325989  -0.062674  -0.066169
     9  H   -0.046011   0.011041  -0.094200  -0.000422  -0.002556  -0.001889
    10  H    0.011042  -0.046022  -0.000423  -0.094198  -0.001889  -0.002558
               7          8          9         10
     1  C   -0.753538   0.161383  -0.046011   0.011042
     2  C    0.161384  -0.753498   0.011041  -0.046022
     3  C   -1.326026  -0.000134  -0.094200  -0.000423
     4  C   -0.000131  -1.325989  -0.000422  -0.094198
     5  H   -0.066177  -0.062674  -0.002556  -0.001889
     6  H   -0.062683  -0.066169  -0.001889  -0.002558
     7  C    8.858850  -0.001319   0.434912   0.000110
     8  C   -0.001319   8.858755   0.000110   0.434908
     9  H    0.434912   0.000110   0.211492   0.000014
    10  H    0.000110   0.434908   0.000014   0.211507
 Mulliken charges:
               1
     1  C   -0.685210
     2  C   -0.685232
     3  C    1.407360
     4  C    1.407371
     5  H    0.035729
     6  H    0.035722
     7  C   -1.245383
     8  C   -1.245372
     9  H    0.487508
    10  H    0.487508
 Sum of Mulliken charges =  -0.00000
 Mulliken charges with hydrogens summed into heavy atoms:
               1
     1  C   -0.649481
     2  C   -0.649510
     3  C    1.407360
     4  C    1.407371
     7  C   -0.757875
     8  C   -0.757864
 Electronic spatial extent (au):  <R**2>=            775.5179
 Charge=             -0.0000 electrons
 Dipole moment (field-independent basis, Debye):
    X=              0.0000    Y=             -0.0001    Z=             -0.0000  Tot=              0.0001
 Quadrupole moment (field-independent basis, Debye-Ang):
   XX=            -24.9041   YY=            -34.4676   ZZ=            -38.8767
   XY=              2.3066   XZ=             -0.0000   YZ=             -0.0000
 Traceless Quadrupole moment (field-independent basis, Debye-Ang):
   XX=              7.8453   YY=             -1.7181   ZZ=             -6.1272
   XY=              2.3066   XZ=             -0.0000   YZ=             -0.0000
 Octapole moment (field-independent basis, Debye-Ang**2):
  XXX=              0.0019  YYY=             -0.0002  ZZZ=              0.0000  XYY=             -0.0005
  XXY=             -0.0028  XXZ=             -0.0000  XZZ=              0.0000  YZZ=             -0.0001
  YYZ=              0.0000  XYZ=             -0.0000
 Hexadecapole moment (field-independent basis, Debye-Ang**3):
 XXXX=           -621.6764 YYYY=            -69.9011 ZZZZ=            -47.5526 XXXY=             60.6120
 XXXZ=             -0.0000 YYYX=              0.5687 YYYZ=              0.0000 ZZZX=              0.0000
 ZZZY=              0.0000 XXYY=           -198.1301 XXZZ=           -198.2903 YYZZ=            -21.3933
 XXYZ=             -0.0000 YYXZ=              0.0000 ZZXY=              0.3823
 N-N= 1.623308471830D+02 E-N=-8.586166972753D+02  KE= 2.291638018729D+02
 Leave Link  601 at Sat Sep 26 02:56:06 2020, MaxMem=   327680000 cpu:               1.8 elap:               0.4
 (Enter /applis/site/cecic/gaussian16/B.01/nehalem/g16/l9999.exe)
 1\1\GINC-DAHU119\SP\RCCSD(T)-FC\Aug-CC-pVTZ\C6H4\TINACCIL\26-Sep-2020\
 0\\#P CCSD(T)/aug-cc-pvtz geom=allcheck guess=read\\Title\\0,1\C,0,0.0
 064176508,0.0000000042,0.0033173258\C,0,-0.0064322755,0.0000000009,1.3
 411455261\C,0,1.2064955772,0.0000000054,-0.7594533565\C,0,-1.206510437
 6,-0.0000000121,2.1039158277\H,0,-0.9282753076,-0.0000000002,-0.543692
 8295\H,0,0.9282606932,0.0000000053,1.8881556707\C,0,2.2046397002,0.000
 0000021,-1.4248467314\C,0,-2.2046502899,-0.0000000077,2.769315494\H,0,
 3.092571504,-0.0000000067,-2.0083494194\H,0,-3.0925104982,0.0000000088
 ,3.3529270853\\Version=ES64L-G16RevB.01\State=1-A\HF=-229.4669282\MP2=
 -230.3906458\MP3=-230.407971\MP4D=-230.4322621\MP4DQ=-230.4014226\MP4S
 DQ=-230.4111804\CCSD=-230.4102875\CCSD(T)=-230.4635055\RMSD=3.306e-09\
 PG=C01 [X(C6H4)]\\@


 LAWS OF PROGRAMMING DEFINITION:  A WORKING PROGRAM
                                  IS ONE THAT HAS
                                  ONLY UNOBSERVED
                                  BUGS.
 Job cpu time:       0 days 17 hours 13 minutes 24.6 seconds.
 Elapsed time:       0 days  2 hours 14 minutes  0.3 seconds.
 File lengths (MBytes):  RWF=  26605 Int=      0 D2E=      0 Chk=     12 Scr=      1
 Normal termination of Gaussian 16 at Sat Sep 26 02:56:06 2020.
