 Entering Gaussian System
 *********************************************
 Gaussian 98:
 frequency output generated by the xtb code
 *********************************************
                         Standard orientation:
 --------------------------------------------------------------------
  Center     Atomic     Atomic              Coordinates (Angstroms)
  Number     Number      Type              X           Y           Z
 --------------------------------------------------------------------
    1          6             0        1.880340   -0.035861    0.020474
    2          6             0        0.620110   -0.009594    0.007085
    3          6             0       -0.677459    0.012201   -0.006941
    4          8             0       -1.822991    0.033254   -0.020620
 --------------------------------------------------------------------
     1 basis functions        1 primitive gaussians
     1 alpha electrons        1 beta electrons

 Harmonic frequencies (cm**-1), IR intensities (KM/Mole),
 Raman scattering activities (A**4/amu), Raman depolarization ratios,
 reduced masses (AMU), force constants (mDyne/A) and normal coordinates:
                      1                      2                      3
                        a                      a                      a 
 Frequencies --   178.7197               178.7973               552.2609
 Red. masses --    12.7296                12.7330                12.3441
 Frc consts  --     0.0000                 0.0000                 0.0000
 IR Inten    --     0.4451                 0.4450                 0.5894
 Raman Activ --     0.0000                 0.0000                 0.0000
 Depolar     --     0.0000                 0.0000                 0.0000
 Atom AN      X      Y      Z        X      Y      Z        X      Y      Z
   1   6    -0.01  -0.53   0.00     0.01  -0.00  -0.53    -0.00   0.00   0.14
   2   6     0.01   0.62  -0.00    -0.01   0.00   0.62     0.01  -0.00  -0.56
   3   6     0.01   0.39  -0.00    -0.00   0.00   0.39    -0.01   0.00   0.76
   4   8    -0.01  -0.42   0.00     0.01  -0.00  -0.43     0.00  -0.00  -0.29
                      4                      5                      6
                        a                      a                      a 
 Frequencies --   552.5117               994.4367              1975.6101
 Red. masses --    12.3445                13.5391                12.5007
 Frc consts  --     0.0000                 0.0000                 0.0000
 IR Inten    --     0.5893                 0.1553                 0.0625
 Raman Activ --     0.0000                 0.0000                 0.0000
 Depolar     --     0.0000                 0.0000                 0.0000
 Atom AN      X      Y      Z        X      Y      Z        X      Y      Z
   1   6    -0.00  -0.14   0.00    -0.65   0.01  -0.01     0.57  -0.01   0.01
   2   6     0.01   0.56  -0.00    -0.34   0.00  -0.00    -0.69   0.01  -0.01
   3   6    -0.01  -0.76   0.00     0.28  -0.00   0.00    -0.28   0.01  -0.00
   4   8     0.01   0.29  -0.00     0.62  -0.01   0.01     0.35  -0.01   0.00
                      7
                        a 
 Frequencies --  2317.9220
 Red. masses --    12.7551
 Frc consts  --     0.0000
 IR Inten    --     3.8309
 Raman Activ --     0.0000
 Depolar     --     0.0000
 Atom AN      X      Y      Z        X      Y      Z        X      Y      Z
   1   6    -0.14   0.00  -0.00
   2   6     0.43  -0.01   0.00
   3   6    -0.78   0.01  -0.01
   4   8     0.43  -0.01   0.01
