$hessian                                                                        
        0.8129938397  -0.0166228676   0.0085127714  -0.7417906636   0.0150925475
       -0.0076583331  -0.0963111385   0.0021788337  -0.0011513802   0.0250089753
       -0.0005919606   0.0002926162
       -0.0166228676   0.0069092847  -0.0001754457   0.0149916212  -0.0156743906
        0.0001580611   0.0022279236   0.0112694236   0.0000238158  -0.0005944244
       -0.0025073024  -0.0000063299
        0.0085127714  -0.0001754457   0.0066631152  -0.0076425982   0.0001588452
       -0.0154394830  -0.0011723591   0.0000236352   0.0113050296   0.0003010933
       -0.0000064365  -0.0025169517
       -0.7417906636   0.0149916212  -0.0076425982   1.3339545139  -0.0242769716
        0.0138341393  -0.5082613444   0.0072971245  -0.0050248459  -0.0835937753
        0.0019257821  -0.0011158495
        0.0150925475  -0.0156743906   0.0001588452  -0.0242769716   0.0501691783
       -0.0002609956   0.0071209999  -0.0561346151   0.0000792719   0.0020576734
        0.0216455226   0.0000219759
       -0.0076583331   0.0001580611  -0.0154394830   0.0138341393  -0.0002609956
        0.0498354830  -0.0051862887   0.0000843373  -0.0560300246  -0.0009862039
        0.0000179429   0.0216219330
       -0.0963111385   0.0022279236  -0.0011723591  -0.5082613444   0.0071209999
       -0.0051862887   1.6709747403  -0.0283033735   0.0185917228  -1.0671615549
        0.0189398279  -0.0123918714
        0.0021788337   0.0112694236   0.0000236352   0.0072971245  -0.0561346151
        0.0000843373  -0.0283033735   0.0832682006  -0.0003319352   0.0188403064
       -0.0384296841   0.0002268290
       -0.0011513802   0.0000238158   0.0113050296  -0.0050248459   0.0000792719
       -0.0560300246   0.0185917228  -0.0003319352   0.0828994893  -0.0124238573
        0.0002286531  -0.0381891056
        0.0250089753  -0.0005944244   0.0003010933  -0.0835937753   0.0020576734
       -0.0009862039  -1.0671615549   0.0188403064  -0.0124238573   1.1262959087
       -0.0202830424   0.0132212443
       -0.0005919606  -0.0025073024  -0.0000064365   0.0019257821   0.0216455226
        0.0000179429   0.0189398279  -0.0384296841   0.0002286531  -0.0202830424
        0.0193154282  -0.0002422244
        0.0002926162  -0.0000063299  -0.0025169517  -0.0011158495   0.0000219759
        0.0216219330  -0.0123918714   0.0002268290  -0.0381891056   0.0132212443
       -0.0002422244   0.0190991172
