4
 energy: -10.312361710685 gnorm: 0.000865173955 xtb: 6.2.2 (9d81278992624c895f80dd42a50cac0aa55982e2)
C         1.88033967190037   -0.03586065556385    0.02047430076338
C         0.62011000842897   -0.00959376651376    0.00708505749166
C        -0.67745917080100    0.01220075371691   -0.00694064867121
O        -1.82299050953183    0.03325366835897   -0.02061970958381
