 Entering Gaussian System
 *********************************************
 Gaussian 98:
 frequency output generated by the xtb code
 *********************************************
                         Standard orientation:
 --------------------------------------------------------------------
  Center     Atomic     Atomic              Coordinates (Angstroms)
  Number     Number      Type              X           Y           Z
 --------------------------------------------------------------------
    1          6             0        0.638831   -0.010079    0.103692
    2          6             0       -0.441305   -0.909928   -0.092868
    3          6             0       -1.473174    0.021368    0.158790
    4          6             0       -0.413779    0.923596   -0.084213
    5          1             0        1.689426   -0.024958   -0.085400
 --------------------------------------------------------------------
     1 basis functions        1 primitive gaussians
     1 alpha electrons        1 beta electrons

 Harmonic frequencies (cm**-1), IR intensities (KM/Mole),
 Raman scattering activities (A**4/amu), Raman depolarization ratios,
 reduced masses (AMU), force constants (mDyne/A) and normal coordinates:
                      1                      2                      3
                        a                      a                      a 
 Frequencies --   538.1364               599.7469               742.1772
 Red. masses --    11.9957                 2.8109                11.8363
 Frc consts  --     0.0000                 0.0000                 0.0000
 IR Inten    --     0.1292                 0.2623                 0.0818
 Raman Activ --     0.0000                 0.0000                 0.0000
 Depolar     --     0.0000                 0.0000                 0.0000
 Atom AN      X      Y      Z        X      Y      Z        X      Y      Z
   1   6     0.04  -0.00   0.46     0.03  -0.00   0.35    -0.44   0.00   0.12
   2   6    -0.02   0.22  -0.48    -0.01  -0.01   0.04    -0.03  -0.49  -0.12
   3   6     0.01  -0.00   0.48     0.03   0.00  -0.18     0.51  -0.01   0.11
   4   6    -0.03  -0.21  -0.48    -0.01   0.01   0.04    -0.01   0.49  -0.12
   5   1    -0.00  -0.00   0.04    -0.15   0.01  -0.90    -0.12  -0.00   0.04
                      4                      5                      6
                        a                      a                      a 
 Frequencies --   829.4238               990.0199              1084.1415
 Red. masses --     7.3032                 6.9583                11.9199
 Frc consts  --     0.0000                 0.0000                 0.0000
 IR Inten    --     1.2976                 1.0061                 0.4539
 Raman Activ --     0.0000                 0.0000                 0.0000
 Depolar     --     0.0000                 0.0000                 0.0000
 Atom AN      X      Y      Z        X      Y      Z        X      Y      Z
   1   6     0.00   0.23   0.00    -0.01  -0.58  -0.00    -0.00  -0.34  -0.00
   2   6    -0.14  -0.40  -0.08     0.02   0.28   0.09     0.53  -0.09  -0.04
   3   6     0.01   0.39   0.00    -0.00  -0.18  -0.00     0.01   0.54   0.00
   4   6     0.13  -0.40   0.07    -0.01   0.28  -0.08    -0.54  -0.08   0.04
   5   1     0.01   0.65   0.01     0.01   0.68   0.00    -0.00  -0.09   0.00
                      7                      8                      9
                        a                      a                      a 
 Frequencies --  1220.5548              1392.7684              3171.9055
 Red. masses --    11.6562                11.7759                 1.9318
 Frc consts  --     0.0000                 0.0000                 0.0000
 IR Inten    --     0.4311                 0.2477                 0.0584
 Raman Activ --     0.0000                 0.0000                 0.0000
 Depolar     --     0.0000                 0.0000                 0.0000
 Atom AN      X      Y      Z        X      Y      Z        X      Y      Z
   1   6     0.52  -0.01   0.05     0.45  -0.01   0.08     0.29  -0.00  -0.04
   2   6    -0.50  -0.02   0.02     0.03  -0.46  -0.10    -0.00  -0.01  -0.00
   3   6     0.42  -0.01  -0.11    -0.56   0.01   0.12    -0.00  -0.00   0.00
   4   6    -0.50   0.03   0.02     0.04   0.46  -0.09    -0.00   0.01  -0.00
   5   1     0.17  -0.00   0.06     0.14  -0.00  -0.02    -0.94   0.01   0.16
