5
 energy: -8.586496825035 gnorm: 0.148638402418 xtb: 6.2.2 (9d81278992624c895f80dd42a50cac0aa55982e2)
C         0.63496500000000   -0.00739700000000   -0.45159900000000
C        -0.38404700000000   -1.06408400000000   -0.07824500000000
C        -1.36688400000000    0.01902600000000    0.31484400000000
C        -0.35193400000000    1.07582000000000   -0.06814100000000
H         1.46789900000000   -0.02336600000000    0.28314100000000
5
 energy: -8.611285532466 gnorm: 0.081990582821 xtb: 6.2.2 (9d81278992624c895f80dd42a50cac0aa55982e2)
C         0.60614341567975   -0.00742439133884   -0.35422391085188
C        -0.41495199012381   -1.03544104531749   -0.06260390339952
C        -1.35783965295906    0.01919345868970    0.25069848998697
C        -0.38368738186596    1.04797087207811   -0.05276651977315
H         1.55033460926908   -0.02429989411147    0.21889584403758
5
 energy: -8.617777431905 gnorm: 0.109591663800 xtb: 6.2.2 (9d81278992624c895f80dd42a50cac0aa55982e2)
C         0.60377325965866   -0.00819974459144   -0.18281991212217
C        -0.49031487289746   -0.97209771966257   -0.18077977244514
C        -1.27627670512106    0.01758266260037    0.33307414503904
C        -0.46090484889595    0.98803610855882   -0.17152325868017
H         1.62372216725581   -0.02532230690518    0.20204879820843
5
 energy: -8.635845698272 gnorm: 0.074413529455 xtb: 6.2.2 (9d81278992624c895f80dd42a50cac0aa55982e2)
C         0.62249230112146   -0.00850626755172   -0.17753332359067
C        -0.46819154186055   -0.93865878981607   -0.10254836516336
C        -1.39046317948602    0.01972664205786    0.24196114961098
C        -0.43980759298618    0.95321231629176   -0.09361408785045
H         1.67596901321129   -0.02577490098182    0.13173462699349
5
 energy: -8.640836643725 gnorm: 0.034314005604 xtb: 6.2.2 (9d81278992624c895f80dd42a50cac0aa55982e2)
C         0.66288623843957   -0.00932702022391   -0.13224046055921
C        -0.45713956201235   -0.89049568362772   -0.09465337632052
C        -1.49327865784887    0.02130939221127    0.23293881227759
C        -0.43019597642066    0.90466497744047   -0.08617476281094
H         1.71772695784231   -0.02615266580010    0.08012978741308
5
 energy: -8.642981738965 gnorm: 0.024011780174 xtb: 6.2.2 (9d81278992624c895f80dd42a50cac0aa55982e2)
C         0.64758661238431   -0.00921306626775   -0.10742905430063
C        -0.45504364512617   -0.90311420267913   -0.09998739886410
C        -1.47473776529935    0.02105048429311    0.22888250793375
C        -0.42772533152707    0.91726599186711   -0.09139113190379
H         1.70991912956828   -0.02599020721334    0.06992507713477
5
 energy: -8.645767469149 gnorm: 0.037713301738 xtb: 6.2.2 (9d81278992624c895f80dd42a50cac0aa55982e2)
C         0.62467142199901   -0.00937075267356   -0.00108522868007
C        -0.45639669140327   -0.91261985191974   -0.10793178880843
C        -1.46423367600909    0.02101166186224    0.20151037282729
C        -0.42879941569264    0.92690339629300   -0.09925269949725
H         1.72475736110600   -0.02592545356195    0.00675934415846
5
 energy: -8.646516219459 gnorm: 0.019946606104 xtb: 6.2.2 (9d81278992624c895f80dd42a50cac0aa55982e2)
C         0.62437992592468   -0.00958055493155    0.04415493205361
C        -0.43948600203735   -0.92150559715145   -0.11781474188891
C        -1.44705229427791    0.02073673384455    0.20498198441689
C        -0.41162478161003    0.93536981946859   -0.10905309717410
H         1.67378215200061   -0.02502140123014   -0.02226907740750
5
 energy: -8.647679655506 gnorm: 0.022971904910 xtb: 6.2.2 (9d81278992624c895f80dd42a50cac0aa55982e2)
C         0.62726624285411   -0.00988504583299    0.09936532202327
C        -0.43963512765493   -0.91239182620724   -0.10187650091588
C        -1.47282314405457    0.02129931107502    0.16913345118682
C        -0.41204401604942    0.92610118327562   -0.09319670577557
H         1.69723504490481   -0.02512462231040   -0.07342556651863
5
 energy: -8.647936189706 gnorm: 0.007430482691 xtb: 6.2.2 (9d81278992624c895f80dd42a50cac0aa55982e2)
C         0.63784795815140   -0.00997606840140    0.08522981492190
C        -0.44300585280280   -0.90536433932244   -0.09642815219162
C        -1.47538918250256    0.02134585678481    0.16816930425885
C        -0.41562561888823    0.91912143075582   -0.08781328911365
H         1.69617169604219   -0.02512787981679   -0.06915767787548
5
 energy: -8.648008474407 gnorm: 0.002141242532 xtb: 6.2.2 (9d81278992624c895f80dd42a50cac0aa55982e2)
C         0.63940123440521   -0.01005677301377    0.09752063247367
C        -0.44264692171380   -0.90932858502545   -0.09523899878104
C        -1.47509339916794    0.02136442481707    0.16349782267644
C        -0.41514810226732    0.92305996664955   -0.08658664827040
H         1.69348618874385   -0.02504003342741   -0.07919280809865
5
 energy: -8.648021587166 gnorm: 0.000958648239 xtb: 6.2.2 (9d81278992624c895f80dd42a50cac0aa55982e2)
C         0.63850781492915   -0.01007385067249    0.10424237542038
C        -0.44075004076703   -0.90992479005139   -0.09252962731845
C        -1.47402728448007    0.02137831929491    0.15824421592154
C        -0.41323362280582    0.92356429734997   -0.08386977503672
H         1.68950213312377   -0.02494497592100   -0.08608718898675
5
 energy: -8.648021954851 gnorm: 0.000607091700 xtb: 6.2.2 (9d81278992624c895f80dd42a50cac0aa55982e2)
C         0.63883069680031   -0.01007601995929    0.10369409312832
C        -0.44129980424587   -0.90993013328470   -0.09287151539585
C        -1.47317503996718    0.02136005300507    0.15878510331294
C        -0.41378362313290    0.92359430157649   -0.08421328110747
H         1.68942677054565   -0.02494920133757   -0.08539439993794
