[Molden Format]
[Title]
[Atoms] AU
C      1     6  0.12072155292376E+01 -0.19046895345440E-01  0.19594923782950E+00
C      2     6 -0.83394530747263E+00 -0.17195145247174E+01 -0.17549580048195E+00
C      3     6 -0.27838958420684E+01  0.40379746591160E-01  0.30006997727450E+00
C      4     6 -0.78192906694905E+00  0.17453439347527E+01 -0.15914033929890E+00
H      5     1  0.31925527975166E+01 -0.47164150997077E-01 -0.16138307531325E+00
[GTO]
           1 0
 s           4   1.0000000000000000     
   51.049363095579913      -0.16312063210127389     
   8.7911227406887544      -0.19911024581000730     
  0.70640422258929825       0.31882047753655751     
  0.26922813413411617       0.12706504184240380     
 p           4   1.0000000000000000     
   5.8263656140800002       0.73716451545209605     
   1.5106896018720002       0.68216371614850257     
  0.53256483288000001       0.35783053929253711     
  0.21202323690600003        5.3983030275847881E-002

           2 0
 s           4   1.0000000000000000     
   51.049363095579913      -0.16312063210127389     
   8.7911227406887544      -0.19911024581000730     
  0.70640422258929825       0.31882047753655751     
  0.26922813413411617       0.12706504184240380     
 p           4   1.0000000000000000     
   5.8263656140800002       0.73716451545209605     
   1.5106896018720002       0.68216371614850257     
  0.53256483288000001       0.35783053929253711     
  0.21202323690600003        5.3983030275847881E-002

           3 0
 s           4   1.0000000000000000     
   51.049363095579913      -0.16312063210127389     
   8.7911227406887544      -0.19911024581000730     
  0.70640422258929825       0.31882047753655751     
  0.26922813413411617       0.12706504184240380     
 p           4   1.0000000000000000     
   5.8263656140800002       0.73716451545209605     
   1.5106896018720002       0.68216371614850257     
  0.53256483288000001       0.35783053929253711     
  0.21202323690600003        5.3983030275847881E-002

           4 0
 s           4   1.0000000000000000     
   51.049363095579913      -0.16312063210127389     
   8.7911227406887544      -0.19911024581000730     
  0.70640422258929825       0.31882047753655751     
  0.26922813413411617       0.12706504184240380     
 p           4   1.0000000000000000     
   5.8263656140800002       0.73716451545209605     
   1.5106896018720002       0.68216371614850257     
  0.53256483288000001       0.35783053929253711     
  0.21202323690600003        5.3983030275847881E-002

           5 0
 s           3   1.0000000000000000     
   3.3702276975336001       0.27359110588908298     
  0.61389118221497996       0.26460540653860526     
  0.16614291148415999        8.2465947534082318E-002

[MO]
Sym=     1a
Ene=  -0.70162675702495281     
Spin= Alpha
Occup=     2.00000000
           1 -0.30032208816380096     
           2  0.15735709340771015     
           3  -2.4651428723292167E-003
           4   2.1769775539269891E-002
           5 -0.33011307179802168     
           6  -6.3866513337422111E-003
           7 -0.14486354209266733     
           8  -2.0004939572662819E-002
           9 -0.29026197961054179     
          10 -0.15321960275458144     
          11   2.1687722759081984E-003
          12   2.7841607821416987E-002
          13 -0.33011420500250188     
          14  -2.0324093221807961E-003
          15  0.14517276184027625     
          16  -1.8636100155787347E-002
          17  -3.7528486602155527E-002
Sym=     2a
Ene=  -0.61489271993711025     
Spin= Alpha
Occup=     2.00000000
           1 -0.48720306654297796     
           2  -9.7665600724463661E-002
           3   1.2792741834714867E-003
           4   3.9477565719426122E-002
           5   2.9504326042033013E-002
           6 -0.26453170855839409     
           7   1.4964522551029584E-002
           8   9.8954144805211627E-003
           9  0.40433441402282927     
          10   2.5459905347538132E-002
          11  -2.3573573337753000E-004
          12  -3.0795403503586574E-002
          13   2.9505511111740771E-002
          14 -0.26486616400431451     
          15  -7.1097885148867605E-003
          16   9.7914178865375692E-003
          17 -0.25072465093633911     
Sym=     3a
Ene=  -0.59073809052260817     
Spin= Alpha
Occup=     2.00000000
           1  -9.1183546259684185E-007
           2  -5.0393501949330000E-003
           3 -0.33566297190172301     
           4  -1.5846059263828047E-003
           5  0.50670329736540687     
           6   9.1047995112187464E-003
           7  -8.0043077420286518E-002
           8   3.2601876110302033E-002
           9  -3.8772783335653472E-007
          10  -4.5905460637670264E-003
          11 -0.30575814653257333     
          12  -1.4434551837451688E-003
          13 -0.50670090572109350     
          14  -1.1499081729385397E-002
          15  -7.9424473438866661E-002
          16  -3.3355166326351930E-002
          17  -6.3095114233704149E-007
Sym=     4a
Ene=  -0.53496913459398776     
Spin= Alpha
Occup=     2.00000000
           1  0.13932758315106950     
           2  0.45010420974277437     
           3  -6.8468989639597954E-003
           4   1.8268165163895032E-002
           5  -9.2551327284688345E-002
           6 -0.20165994902396103     
           7  -7.9059917596984424E-003
           8   1.6210867819609228E-002
           9  0.43698294318066555     
          10 -0.12920005004157231     
          11   1.9827714689084545E-003
          12  -8.5815493486128963E-003
          13  -9.2552153786076966E-002
          14 -0.20134083296295391     
          15   1.3802608410345344E-002
          16   1.6313451564375771E-002
          17  0.43990224962848451     
Sym=     5a
Ene=  -0.51437225663681063     
Spin= Alpha
Occup=     2.00000000
           1   9.1732775114123824E-002
           2  -4.6502201638489407E-002
           3  -1.3051462778175401E-003
           4  0.42454026302502096     
           5  -8.3495744697665797E-002
           6   2.7724539685425952E-002
           7  -1.3584742435492262E-002
           8  0.41303603342002732     
           9   6.6222344770710290E-002
          10   3.3284558444294947E-002
          11  -2.3487693061456879E-003
          12  0.39145882317613634     
          13  -8.3497145450823540E-002
          14   2.8063317878094830E-002
          15   8.8469670840689817E-003
          16  0.41314489835830825     
          17  -4.0433926164162318E-002
Sym=     6a
Ene=  -0.50948621073932121     
Spin= Alpha
Occup=     2.00000000
           1   4.8041390872644599E-007
           2  -6.4478690522709863E-003
           3 -0.42930642236436350     
           4  -2.0255384226862908E-003
           5  -2.0788868183603138E-002
           6  0.40439559556559057     
           7  -1.4654172785022530E-005
           8  -1.0287559588983808E-002
           9  -4.9942182677614706E-006
          10   6.4629702121857683E-003
          11  0.43036850319966324     
          12   2.0323768976301553E-003
          13   2.0790254814712056E-002
          14 -0.40420926290045162     
          15   1.2027960903292062E-002
          16   1.0346016139638318E-002
          17  -2.6042471487967907E-006
Sym=     7a
Ene=  -0.43823185945919241     
Spin= Alpha
Occup=     2.00000000
           1   8.5978764087161236E-002
           2  -9.5727553135515481E-002
           3   1.7268755211438834E-003
           4  -6.1936006710942612E-002
           5 -0.46803520281728367     
           6   5.3409909919412586E-002
           7  0.50331691403269574     
           8  -2.9877301566630012E-002
           9  0.12305406097743317     
          10  -6.9861200410226656E-002
          11   1.1399804321184845E-003
          12  -1.9730588839189992E-002
          13 -0.46802974750930715     
          14   3.8280738312714481E-002
          15 -0.50438603892557099     
          16  -3.4635933013840055E-002
          17  -6.9798418380976612E-002
Sym=     8a
Ene=  -0.40175401165960184     
Spin= Alpha
Occup=     1.00000000
           1  -9.6412491014521207E-002
           2  0.18534161779225794     
           3  -3.9443233547132011E-003
           4  0.24615489723470949     
           5  -3.9219074337414506E-002
           6 -0.21462135310256999     
           7  0.12094415830454003     
           8   3.0601811263945761E-002
           9 -0.47285151515178259     
          10  0.68424823531416545     
          11  -9.0936563915943926E-003
          12 -0.24990918123057879     
          13  -3.9217952145197840E-002
          14 -0.21815878186040158     
          15 -0.11473053337082566     
          16   2.9488672011527002E-002
          17  0.14480865543563490     
Sym=     9a
Ene=  -0.36188357279862199     
Spin= Alpha
Occup=     1.00000000
           1  0.21301006846440293     
           2  -7.0513777120242135E-002
           3  -2.1031077511881042E-003
           4  0.66937774193803812     
           5   2.1774974098334615E-003
           6   4.3144429812586663E-002
           7  -3.0151050439469567E-002
           8  -4.5082320771312273E-002
           9   6.2954815626134197E-002
          10 -0.33230456825265031     
          11   8.0470341406124433E-003
          12 -0.64829961375643752     
          13   2.1813053460006246E-003
          14   4.4036217795840882E-002
          15   2.9271771012694771E-002
          16  -4.4814853690117819E-002
          17 -0.12033407710280419     
Sym=    10a
Ene=  -0.35492885437860394     
Spin= Alpha
Occup=     1.00000000
           1  -2.5149879465607974E-006
           2  -3.2281624423810690E-003
           3 -0.21508556975297619     
           4  -1.0226755216808723E-003
           5 -0.20070127243052902     
           6   1.4854628975401614E-002
           7  0.27159262099402048     
           8  0.60858908882300711     
           9  -7.4693927382364123E-007
          10  -3.2846515620962402E-003
          11 -0.21899542051357865     
          12  -1.0273465979357714E-003
          13  0.20070475034958299     
          14  -6.6097180927800012E-003
          15  0.27765223515535425     
          16 -0.60598976656403891     
          17   1.2751026399214332E-006
Sym=    11a
Ene=  -0.29103003208710249     
Spin= Alpha
Occup=     0.00000000
           1   1.6250133759771381E-007
           2   4.7039515584464597E-003
           3  0.31337096556874250     
           4   1.4767686667649625E-003
           5  0.12132417042915977     
           6   7.9588519232474328E-003
           7 -0.57191190875969045     
           8  0.39588089895710571     
           9   4.4371360642638161E-007
          10   4.7239405892458937E-003
          11  0.31466300436294664     
          12   1.4834451852492653E-003
          13 -0.12132796935464692     
          14  -2.5066288390241543E-002
          15 -0.56765614815401189     
          16 -0.40125412501560909     
          17   9.8421425736263178E-008
Sym=    12a
Ene=  -0.18945744823363692     
Spin= Alpha
Occup=     0.00000000
           1  -8.5170674593191817E-002
           2  -5.7023560275018717E-002
           3   3.5195640108310142E-003
           4 -0.56438157643534048     
           5  -4.4078525018769001E-002
           6   2.7164165084480281E-002
           7  -4.6961077226851451E-002
           8  0.57975656379079699     
           9  -2.9070094666573253E-002
          10  -7.6561323292009723E-002
          11   4.1351711627912067E-003
          12 -0.63268815101724563     
          13  -4.4079699590956520E-002
          14   2.8479710423081832E-002
          15   4.0654517460852364E-002
          16  0.58017880490155305     
          17   5.9541836607990638E-002
Sym=    13a
Ene=   0.12648176430161012     
Spin= Alpha
Occup=     0.00000000
           1  -1.0734438579342616     
           2 -0.29352247416077970     
           3   3.6088089782024169E-003
           4  0.26352108483524977     
           5  0.15495275287950264     
           6  0.36524447398423249     
           7  0.15763600060220712     
           8  -5.4816779971248210E-003
           9   8.3109393826417938E-002
          10  -7.0842881309432504E-002
          11   1.4936195193343352E-003
          12  -3.5027832965979305E-002
          13  0.15419671209133565     
          14  0.36015798975227320     
          15 -0.16783844611939649     
          16  -7.1750836439062387E-003
          17  0.92887127431927530     
Sym=    14a
Ene=   0.12791107674364557     
Spin= Alpha
Occup=     0.00000000
           1  -6.3131271769481512E-004
           2  -1.1034151853375640E-002
           3 -0.72324236597877034     
           4  -3.2591010275206983E-003
           5 -0.64963469957816800     
           6 -0.13672470652825780     
           7 -0.53604109978978920     
           8 -0.13818659821715440     
           9   5.4302320404375587E-005
          10  -7.4774069733997547E-003
          11 -0.49562500190772529     
          12  -2.3618298884323834E-003
          13  0.64981011474333383     
          14  0.12098097399492372     
          15 -0.54136959022074316     
          16  0.13309174625136397     
          17   5.4891293749243116E-004
Sym=    15a
Ene=   0.17825109350214630     
Spin= Alpha
Occup=     0.00000000
           1   3.1340928077628374E-005
           2   9.2647811592696683E-003
           3  0.61458034696817176     
           4   2.8931103182525389E-003
           5 -0.10961889439668912     
           6  0.74924203870089312     
           7  -9.8395249914884922E-002
           8  -4.3726902934185255E-002
           9   2.9522990900211801E-005
          10  -1.2359429285458133E-002
          11 -0.82539335319172979     
          12  -3.9030906312831530E-003
          13  0.10959608736237712     
          14 -0.75183123302434207     
          15  -7.6244168503968077E-002
          16   4.2899663562492925E-002
          17  -5.3398663656273768E-005
Sym=    16a
Ene=   0.27002260027436847     
Spin= Alpha
Occup=     0.00000000
           1  0.14771975305798868     
           2 -0.67011014481150233     
           3   1.0220737796223815E-002
           4  -2.8405069578779397E-002
           5  0.12568221896800796     
           6 -0.63036392781373729     
           7  0.13383355607354572     
           8   3.2936330637385429E-002
           9 -0.73940160165521995     
          10 -0.65031638410688208     
          11   8.8530997143754959E-003
          12  0.18415032721202229     
          13  0.12569909515101491     
          14 -0.63417541591566728     
          15 -0.11516762489445813     
          16   3.1766150757716279E-002
          17  0.49932816871913566     
Sym=    17a
Ene=   0.62669435778736660     
Spin= Alpha
Occup=     0.00000000
           1  0.33191600935770121     
           2  -1.0194450761446521     
           3   1.5434244847579992E-002
           4  -2.6659314347146478E-002
           5 -0.62436175752991829     
           6  -6.0080801399332001E-002
           7 -0.54192996610245014     
           8 -0.15455345331970732     
           9  0.52164136204381373     
          10  0.57297330194850782     
          11  -8.0885761459325925E-003
          12 -0.10778689278412069     
          13 -0.62437830328139610     
          14  -4.3763777239413389E-002
          15  0.54493454606326808     
          16 -0.14942632786258209     
          17  0.54268510980375406     
