$hessian                                                                        
        0.7868671665  -0.0086500351  -0.0087145618  -0.1722245216  -0.1511955337
       -0.0268082693  -0.1298009927   0.0011546299   0.0001628678  -0.1641530546
        0.1546178536  -0.0249257616  -0.3206885977   0.0040730854   0.0602857248
       -0.0086500351   0.2292563320   0.0008224834  -0.1082420248  -0.0820627133
       -0.0205437524   0.0016870819  -0.0242893324  -0.0001825610   0.1110200343
       -0.0904493273   0.0208111125   0.0041849437  -0.0324549591  -0.0009072825
       -0.0087145618   0.0008224834   0.0665817922  -0.0183897336  -0.0332317196
       -0.0357310271  -0.0062084051  -0.0002400885   0.0263684104  -0.0162975708
        0.0334276058  -0.0352624448   0.0496102713  -0.0007782811  -0.0219567308
       -0.1722245216  -0.1082420248  -0.0183897336   0.3274296026  -0.0093604981
       -0.0131570565  -0.1568504618   0.1370413969   0.0382060606   0.0113019158
       -0.0051684453  -0.0000839820  -0.0096565349  -0.0142704287  -0.0065752886
       -0.1511955337  -0.0820627133  -0.0332317196  -0.0093604981   0.3449026829
        0.0637673838   0.1585578685  -0.0987546359  -0.0468494552  -0.0003272592
       -0.1661406033   0.0175969991   0.0023254226   0.0020552696  -0.0012832080
       -0.0268082693  -0.0205437524  -0.0357310271  -0.0131570565   0.0637673838
        0.0487882694   0.0377367666  -0.0271068589  -0.0467906950  -0.0006578787
       -0.0194601534   0.0367635239   0.0028864378   0.0033433809  -0.0030300712
       -0.1298009927   0.0016870819  -0.0062084051  -0.1568504618   0.1585578685
        0.0377367666   0.4585201974  -0.0032021257  -0.0759729530  -0.1656900236
       -0.1571133759   0.0370820075  -0.0061787193   0.0000705511   0.0073625840
        0.0011546299  -0.0242893324  -0.0002400885   0.1370413969  -0.0987546359
       -0.0271068589  -0.0032021257   0.2138211968   0.0019462028  -0.1352235100
       -0.0906319903   0.0254859218   0.0002296089  -0.0001452382  -0.0000851771
        0.0001628678  -0.0001825610   0.0263684104   0.0382060606  -0.0468494552
       -0.0467906950  -0.0759729530   0.0019462028   0.0593384609   0.0382722800
        0.0451146214  -0.0460758668  -0.0006682555  -0.0000288079   0.0071596904
       -0.1641530546   0.1110200343  -0.0162975708   0.0113019158  -0.0003272592
       -0.0006578787  -0.1656900236  -0.1352235100   0.0382722800   0.3278756499
        0.0099040716  -0.0148919219  -0.0093344875   0.0146266634  -0.0064249086
        0.1546178536  -0.0904493273   0.0334276058  -0.0051684453  -0.1661406033
       -0.0194601534  -0.1571133759  -0.0906319903   0.0451146214   0.0099040716
        0.3455054103  -0.0605056679  -0.0022401041   0.0017165105   0.0014235941
       -0.0249257616   0.0208111125  -0.0352624448  -0.0000839820   0.0175969991
        0.0367635239   0.0370820075   0.0254859218  -0.0460758668  -0.0148919219
       -0.0605056679   0.0475979089   0.0028196580  -0.0033883655  -0.0030231212
       -0.3206885977   0.0041849437   0.0496102713  -0.0096565349   0.0023254226
        0.0028864378  -0.0061787193   0.0002296089  -0.0006682555  -0.0093344875
       -0.0022401041   0.0028196580   0.3458583394  -0.0044998711  -0.0546481117
        0.0040730854  -0.0324549591  -0.0007782811  -0.0142704287   0.0020552696
        0.0033433809   0.0000705511  -0.0001452382  -0.0000288079   0.0146266634
        0.0017165105  -0.0033883655  -0.0044998711   0.0288284172   0.0008520735
        0.0602857248  -0.0009072825  -0.0219567308  -0.0065752886  -0.0012832080
       -0.0030300712   0.0073625840  -0.0000851771   0.0071596904  -0.0064249086
        0.0014235941  -0.0030231212  -0.0546481117   0.0008520735   0.0208502328
