      -----------------------------------------------------------      
     |                   =====================                   |     
     |                           x T B                           |     
     |                   =====================                   |     
     |                         S. Grimme                         |     
     |          Mulliken Center for Theoretical Chemistry        |     
     |                    University of Bonn                     |     
      -----------------------------------------------------------      

   * xtb version 6.2.2 (9d81278992624c895f80dd42a50cac0aa55982e2) compiled by '@Darwin' on 04/03/2020

   xtb is free software: you can redistribute it and/or modify it under
   the terms of the GNU Lesser General Public License as published by
   the Free Software Foundation, either version 3 of the License, or
   (at your option) any later version.
   
   xtb is distributed in the hope that it will be useful,
   but WITHOUT ANY WARRANTY; without even the implied warranty of
   MERCHANTABILITY or FITNESS FOR A PARTICULAR PURPOSE.  See the
   GNU Lesser General Public License for more details.
   
   Cite this work as:
   * S. Grimme, C. Bannwarth, P. Shushkov, J. Chem. Theory Comput., 2017,
     13, 1989-2009. DOI: 10.1021/acs.jctc.7b00118
   * C. Bannwarth, S. Ehlert and S. Grimme., J. Chem. Theory Comput., 2019,
     15, 1652-1671. DOI: 10.1021/acs.jctc.8b01176
   * P. Pracht, E. Caldeweyher, S. Ehlert, S. Grimme, ChemRxiv, 2019, preprint.
     DOI: 10.26434/chemrxiv.8326202.v1
   
   for DFT-D4:
   * E. Caldeweyher, C. Bannwarth and S. Grimme, J. Chem. Phys., 2017,
     147, 034112. DOI: 10.1063/1.4993215
   * E. Caldeweyher, S. Ehlert, A. Hansen, H. Neugebauer, S. Spicher,
     C. Bannwarth and S. Grimme, J. Chem. Phys., 2019, 150, 154122.
     DOI: 10.1063/1.5090222
   
   for sTDA-xTB:
   * S. Grimme and C. Bannwarth, J. Chem. Phys., 2016, 145, 054103.
     DOI: 10.1063/1.4959605
   
   in the mass-spec context:
   * V. Asgeirsson, C. Bauer and S. Grimme, Chem. Sci., 2017, 8, 4879.
     DOI: 10.1039/c7sc00601b
   
   for metadynamics refer to:
   * S. Grimme, J. Chem. Theory Comput., 2019, 155, 2847-2862
     DOI: 10.1021/acs.jctc.9b00143
   
   with help from (in alphabetical order)
   C. Bannwarth, F. Bohle, G. Brandenburg, E. Caldeweyher, M. Checinski,
   S. Dohm, S. Ehlert, S. Ehrlich, F. März, H. Neugebauer, J. Pisarek,
   P. Pracht, P. Shushkov, and S. Spicher.
   
 * started run on 2020/05/12 at 11:45:10.921     

           -------------------------------------------------
          |                Calculation Setup                |
           -------------------------------------------------

          program call               : xtb --input H1C4_7_S_3.input H1C4_7_S_3.xyz --ohess --molden --namespace H1C4_7_S_3 output.out
          calculation namespace      : H1C4_7_S_3
          coordinate file            : H1C4_7_S_3.xyz
          number of atoms            :                     5
          number of electrons        :                    17
          charge                     :                     0
          spin                       :                   1.5
          first test random number   :      0.38990099329821

   ID    Z sym.   atoms
    1    6 C      1-4
    2    1 H      5

           -------------------------------------------------
          |                 G F N 2 - x T B                 |
           -------------------------------------------------

        Reference                      10.1021/acs.jctc.8b01176
      * Hamiltonian:
        H0-scaling (s, p, d)           1.850000    2.230000    2.230000
        zeta-weighting                 0.500000
      * Dispersion:
        s8                             2.700000
        a1                             0.520000
        a2                             5.000000
        s9                             5.000000
      * Repulsion:
        kExp                           1.500000    1.000000
        rExp                           1.000000
      * Coulomb:
        alpha                          2.000000
        third order                    shell-resolved
        anisotropic                    true
        a3                             3.000000
        a5                             4.000000
        cn-shift                       1.200000
        cn-exp                         4.000000
        max-rad                        5.000000


          ...................................................
          :                      SETUP                      :
          :.................................................:
          :  # basis functions                  17          :
          :  # atomic orbitals                  17          :
          :  # shells                            9          :
          :  # electrons                        17          :
          :  max. iterations                   250          :
          :  Hamiltonian                  GFN2-xTB          :
          :  restarted?                      false          :
          :  GBSA solvation                  false          :
          :  PC potential                    false          :
          :  electronic temp.          300.0000000     K    :
          :  accuracy                    1.0000000          :
          :  -> integral cutoff          0.2500000E+02      :
          :  -> integral neglect         0.1000000E-07      :
          :  -> SCF convergence          0.1000000E-05 Eh   :
          :  -> wf. convergence          0.1000000E-03 e    :
          :  Broyden damping             0.4000000          :
          ...................................................

 iter      E             dE          RMSdq      gap      omega  full diag
   1     -8.6491015 -0.864910E+01  0.903E+00    0.14       0.0  T
   2     -8.5333392  0.115762E+00  0.663E+00    0.35       1.0  T
   3     -8.4133345  0.120005E+00  0.729E+00    0.42       1.0  T
   4     -8.6263323 -0.212998E+00  0.315E+00    0.08       1.0  T
   5     -8.6331909 -0.685863E-02  0.288E+00    0.15       1.0  T
   6     -8.6492129 -0.160220E-01  0.230E+00    0.14       1.0  T
   7     -8.6585588 -0.934593E-02  0.940E-01    0.09       1.0  T
   8     -8.6582234  0.335459E-03  0.822E-01    0.03       1.0  T
   9     -8.6592425 -0.101911E-02  0.518E-01    0.08       1.0  T
  10     -8.6605044 -0.126188E-02  0.171E-01    0.06       1.0  T
  11     -8.6605184 -0.139830E-04  0.105E-01    0.06       1.0  T
  12     -8.6605375 -0.191745E-04  0.765E-02    0.06       1.0  T
  13     -8.6605623 -0.248009E-04  0.113E-02    0.06       3.9  T
  14     -8.6605624 -0.109002E-06  0.166E-03    0.06      27.0  T
  15     -8.6605624  0.740251E-07  0.473E-03    0.06       9.5  T
  16     -8.6605624 -0.779105E-07  0.605E-04    0.06      73.9  T
  17     -8.6605624 -0.588486E-09  0.296E-04    0.06     151.1  T

   *** convergence criteria satisfied after 17 iterations ***

         #    Occupation            Energy/Eh            Energy/eV
      -------------------------------------------------------------
         1        2.0000           -0.6960658             -18.9409
       ...           ...                  ...                  ...
         4        2.0000           -0.5375344             -14.6271
         5        2.0000           -0.5158603             -14.0373
         6        2.0000           -0.4911462             -13.3648
         7        2.0000           -0.4631718             -12.6035
         8        1.0000           -0.4123334             -11.2202
         9        0.9226           -0.3734118             -10.1611
        10        0.7862           -0.3722940             -10.1306 (HOMO)
        11        0.2912           -0.3702115             -10.0740 (LUMO)
        12                         -0.2523317              -6.8663
        13                          0.0152343               0.4145
        14                          0.0178520               0.4858
        15                          0.0635962               1.7305
       ...                                ...                  ...
        17                          0.2957127               8.0468
      -------------------------------------------------------------
                  HL-Gap            0.0020825 Eh            0.0567 eV
             Fermi-level           -0.4044046 Eh          -11.0044 eV

 SCC (total)                   0 d,  0 h,  0 min,  0.004 sec
 SCC setup                      ...        0 min,  0.000 sec (  1.821%)
 Dispersion                     ...        0 min,  0.000 sec (  0.409%)
 integral evaluation            ...        0 min,  0.001 sec ( 24.135%)
 zeroth order Hamiltonian       ...        0 min,  0.000 sec (  0.382%)
 iterations                     ...        0 min,  0.002 sec ( 42.106%)
 molecular gradient             ...        0 min,  0.001 sec ( 28.796%)
 printout                       ...        0 min,  0.000 sec (  2.113%)

         :::::::::::::::::::::::::::::::::::::::::::::::::::::
         ::                     SUMMARY                     ::
         :::::::::::::::::::::::::::::::::::::::::::::::::::::
         :: total energy              -8.586496823849 Eh    ::
         :: gradient norm              0.148639872137 Eh/a0 ::
         :: HOMO-LUMO gap              0.056668268848 eV    ::
         ::.................................................::
         :: SCC energy                -8.660562444955 Eh    ::
         :: -> isotropic ES           -0.012473631537 Eh    ::
         :: -> anisotropic ES          0.000118999299 Eh    ::
         :: -> anisotropic XC          0.006764586776 Eh    ::
         :: -> dispersion             -0.002234790906 Eh    ::
         :: repulsion energy           0.074065584643 Eh    ::
         :: add. restraining           0.000000000000 Eh    ::
         :::::::::::::::::::::::::::::::::::::::::::::::::::::

      ----------------------------------------------------------- 
     |                   =====================                   |
     |                        A N C O P T                        |
     |                   =====================                   |
     |               Approximate Normal Coordinate               |
     |                Rational Function Optimizer                |
      ----------------------------------------------------------- 

          ...................................................
          :                      SETUP                      :
          :.................................................:
          :   optimization level            normal          :
          :   max. optcycles                   200          :
          :   ANC micro-cycles                  20          :
          :   degrees of freedom                 9          :
          :.................................................:
          :   RF solver                   davidson          :
          :   write xtbopt.log                true          :
          :   linear?                        false          :
          :   energy convergence         0.5000000E-05 Eh   :
          :   grad. convergence          0.1000000E-02 Eh/α :
          :   maximium RF displ.         1.0000000          :
          :   Hlow (freq-cutoff)         0.1000000E-01      :
          :   Hmax (freq-cutoff)         5.0000000          :
          :   S6 in model hess.         20.0000000          :
          ...................................................

generating ANC from model Hessian ...
Using Lindh-Hessian (1995)
 Shifting diagonal of input Hessian by    0.0000000000000000     
 Lowest  eigenvalues of input Hessian
   -0.000000   -0.000000   -0.000000    0.000000    0.000000    0.000000
    0.018256    0.080006    0.091188    0.222136    0.682586    0.824985
    0.890647    0.905508    1.051679
 Highest eigenvalues
    0.222136    0.682586    0.824985    0.890647    0.905508    1.051679


........................................................................
.............................. CYCLE    1 ..............................
........................................................................
   1     -8.6605624 -0.866056E+01  0.199E-04    0.06       0.0  T
   2     -8.6605624  0.135694E-07  0.184E-03    0.06      24.3  T
   3     -8.6605624 -0.136877E-07  0.876E-05    0.06     510.2  T
   4     -8.6605624 -0.154170E-10  0.511E-05    0.06     874.8  T
     SCC iter.                  ...        0 min,  0.001 sec
     gradient                   ...        0 min,  0.001 sec
 * total energy  :    -8.5864968 Eh     change       -0.1185340E-08 Eh
   gradient norm :     0.1486384 Eh/α   predicted     0.0000000E+00 (-100.00%)
   displ. norm   :     0.3244248 α      lambda       -0.3218220E-01
   maximum displ.:     0.2040363 α      in ANC's #3, #1, #7, ...

........................................................................
.............................. CYCLE    2 ..............................
........................................................................
   1     -8.6748560 -0.867486E+01  0.356E+00    0.06       0.0  T
   2     -8.5669443  0.107912E+00  0.532E+00    0.35       1.0  T
   3     -8.7030370 -0.136093E+00  0.174E+00    0.09       1.0  T
   4     -8.7096850 -0.664801E-02  0.779E-01    0.06       1.0  T
   5     -8.7005165  0.916846E-02  0.146E+00    0.00       1.0  T
   6     -8.7072410 -0.672448E-02  0.104E+00    0.07       1.0  T
   7     -8.7086996 -0.145860E-02  0.759E-01    0.07       1.0  T
   8     -8.7102696 -0.156996E-02  0.284E-01    0.03       1.0  T
   9     -8.7105308 -0.261201E-03  0.839E-02    0.05       1.0  T
  10     -8.7105491 -0.182780E-04  0.267E-02    0.04       1.7  T
  11     -8.7105508 -0.175329E-05  0.997E-03    0.04       4.5  T
  12     -8.7105514 -0.614825E-06  0.297E-03    0.05      15.1  T
  13     -8.7105514 -0.139824E-07  0.145E-03    0.05      30.8  T
  14     -8.7105514 -0.598570E-08  0.512E-04    0.05      87.3  T
  15     -8.7105514 -0.690170E-09  0.259E-04    0.05     172.5  T
     SCC iter.                  ...        0 min,  0.002 sec
     gradient                   ...        0 min,  0.001 sec
 * total energy  :    -8.6112855 Eh     change       -0.2478871E-01 Eh
   gradient norm :     0.0819906 Eh/α   predicted    -0.1778471E-01 ( -28.25%)
   displ. norm   :     0.5849377 α      lambda       -0.3402493E-01
   maximum displ.:     0.4113355 α      in ANC's #3, #1, #5, ...

........................................................................
.............................. CYCLE    3 ..............................
........................................................................
   1     -8.7557227 -0.875572E+01  0.259E+00    0.20       0.0  T
   2     -8.6683048  0.874179E-01  0.463E+00    0.14       1.0  T
   3     -8.7481814 -0.798766E-01  0.206E+00    0.42       1.0  T
   4     -8.7516160 -0.343459E-02  0.142E+00    0.28       1.0  T
   5     -8.7539671 -0.235113E-02  0.115E+00    0.26       1.0  T
   6     -8.7551438 -0.117666E-02  0.101E+00    0.23       1.0  T
   7     -8.7577240 -0.258020E-02  0.440E-01    0.15       1.0  T
   8     -8.7582746 -0.550631E-03  0.159E-01    0.12       1.0  T
   9     -8.7583568 -0.821672E-04  0.310E-02    0.10       1.4  T
  10     -8.7583561  0.691042E-06  0.337E-02    0.10       1.3  T
  11     -8.7583601 -0.402193E-05  0.326E-03    0.11      13.7  T
  12     -8.7583601  0.383598E-07  0.470E-03    0.11       9.5  T
  13     -8.7583601 -0.587352E-07  0.219E-03    0.11      20.4  T
  14     -8.7583601 -0.120277E-07  0.112E-03    0.11      40.0  T
  15     -8.7583601 -0.418226E-08  0.143E-04    0.11     313.6  T
  16     -8.7583601 -0.681446E-10  0.157E-05    0.11    2840.8  T
     SCC iter.                  ...        0 min,  0.001 sec
     gradient                   ...        0 min,  0.001 sec
 * total energy  :    -8.6177774 Eh     change       -0.6491899E-02 Eh
   gradient norm :     0.1095838 Eh/α   predicted    -0.2283332E-01 ( 251.72%)
   displ. norm   :     0.4002142 α      lambda       -0.2438617E-01
   maximum displ.:     0.3698856 α      in ANC's #1, #4, #5, ...

........................................................................
.............................. CYCLE    4 ..............................
........................................................................
   1     -8.7774620 -0.877746E+01  0.168E+00    0.88       0.0  T
   2     -8.7775424 -0.803842E-04  0.973E-01    0.95       1.0  T
   3     -8.7768395  0.702911E-03  0.367E-01    0.86       1.0  T
   4     -8.7775658 -0.726283E-03  0.975E-02    0.90       1.0  T
   5     -8.7776264 -0.606167E-04  0.225E-02    0.91       2.0  T
   6     -8.7776268 -0.395611E-06  0.218E-03    0.91      20.5  T
   7     -8.7776268 -0.951561E-09  0.103E-03    0.91      43.4  T
   8     -8.7776268  0.159165E-07  0.149E-03    0.91      29.9  T
   9     -8.7776268 -0.177149E-07  0.179E-04    0.91     249.9  T
  10     -8.7776268 -0.334310E-10  0.140E-05    0.91    3194.0  T
     SCC iter.                  ...        0 min,  0.001 sec
     gradient                   ...        0 min,  0.001 sec
 * total energy  :    -8.6358457 Eh     change       -0.1806827E-01 Eh
   gradient norm :     0.0741520 Eh/α   predicted    -0.1414607E-01 ( -21.71%)
   displ. norm   :     0.2912532 α      lambda       -0.1370250E-01
   maximum displ.:     0.1570809 α      in ANC's #4, #3, #1, ...

........................................................................
.............................. CYCLE    5 ..............................
........................................................................
   1     -8.7701375 -0.877014E+01  0.137E+00    1.39       0.0  T
   2     -8.7702778 -0.140276E-03  0.832E-01    1.35       1.0  T
   3     -8.7695712  0.706589E-03  0.624E-01    1.40       1.0  T
   4     -8.7705648 -0.993599E-03  0.226E-01    1.37       1.0  T
   5     -8.7710010 -0.436204E-03  0.418E-02    1.37       1.1  T
   6     -8.7710077 -0.666738E-05  0.114E-02    1.37       3.9  T
   7     -8.7710078 -0.110483E-06  0.359E-03    1.37      12.4  T
   8     -8.7710078  0.413916E-09  0.203E-03    1.37      22.1  T
   9     -8.7710078 -0.326718E-07  0.238E-04    1.37     188.0  T
  10     -8.7710078 -0.803571E-10  0.915E-05    1.37     488.8  T
     SCC iter.                  ...        0 min,  0.001 sec
     gradient                   ...        0 min,  0.001 sec
 * total energy  :    -8.6408366 Eh     change       -0.4990945E-02 Eh
   gradient norm :     0.0342877 Eh/α   predicted    -0.7432436E-02 (  48.92%)
   displ. norm   :     0.0792622 α      lambda       -0.2656059E-02
   maximum displ.:     0.0714567 α      in ANC's #4, #5, #1, ...

........................................................................
.............................. CYCLE    6 ..............................
........................................................................
   1     -8.7761387 -0.877614E+01  0.351E-01    1.38       0.0  T
   2     -8.7761307  0.805133E-05  0.213E-01    1.39       1.0  T
   3     -8.7759769  0.153750E-03  0.198E-01    1.38       1.0  T
   4     -8.7761708 -0.193911E-03  0.590E-02    1.39       1.0  T
   5     -8.7761947 -0.239090E-04  0.745E-03    1.39       6.0  T
   6     -8.7761947 -0.109823E-07  0.205E-03    1.39      21.9  T
   7     -8.7761948 -0.993198E-08  0.723E-04    1.39      61.9  T
   8     -8.7761947  0.390208E-08  0.874E-04    1.39      51.2  T
     SCC iter.                  ...        0 min,  0.001 sec
     gradient                   ...        0 min,  0.001 sec
 * total energy  :    -8.6429817 Eh     change       -0.2145095E-02 Eh
   gradient norm :     0.0239859 Eh/α   predicted    -0.1336372E-02 ( -37.70%)
   displ. norm   :     0.2479428 α      lambda       -0.4837660E-02
   maximum displ.:     0.1537405 α      in ANC's #5, #4, #3, ...

........................................................................
.............................. CYCLE    7 ..............................
........................................................................
   1     -8.7807198 -0.878072E+01  0.830E-01    1.60       0.0  T
   2     -8.7807322 -0.124169E-04  0.493E-01    1.60       1.0  T
   3     -8.7799516  0.780668E-03  0.360E-01    1.62       1.0  T
   4     -8.7807928 -0.841192E-03  0.714E-02    1.62       1.0  T
   5     -8.7808242 -0.314164E-04  0.145E-02    1.63       3.1  T
   6     -8.7808242 -0.331905E-07  0.484E-03    1.63       9.2  T
   7     -8.7808240  0.199940E-06  0.614E-03    1.63       7.3  T
   8     -8.7808243 -0.278383E-06  0.751E-04    1.63      59.5  T
   9     -8.7808243 -0.238395E-08  0.172E-04    1.63     260.5  T
     SCC iter.                  ...        0 min,  0.001 sec
     gradient                   ...        0 min,  0.001 sec
 * total energy  :    -8.6457675 Eh     change       -0.2785730E-02 Eh
   gradient norm :     0.0366109 Eh/α   predicted    -0.2567531E-02 (  -7.83%)
   displ. norm   :     0.1549272 α      lambda       -0.2974783E-02
   maximum displ.:     0.1228804 α      in ANC's #5, #4, #3, ...

........................................................................
.............................. CYCLE    8 ..............................
........................................................................
   1     -8.7859502 -0.878595E+01  0.426E-01    1.60       0.0  T
   2     -8.7859647 -0.145028E-04  0.253E-01    1.55       1.0  T
   3     -8.7857881  0.176631E-03  0.198E-01    1.61       1.0  T
   4     -8.7859924 -0.204343E-03  0.631E-02    1.58       1.0  T
   5     -8.7860151 -0.226900E-04  0.869E-03    1.57       5.1  T
   6     -8.7860152 -0.356561E-07  0.151E-03    1.57      29.7  T
   7     -8.7860152  0.363041E-08  0.938E-04    1.57      47.7  T
   8     -8.7860152 -0.958266E-09  0.794E-04    1.57      56.3  T
     SCC iter.                  ...        0 min,  0.001 sec
     gradient                   ...        0 min,  0.001 sec
 * total energy  :    -8.6465162 Eh     change       -0.7487503E-03 Eh
   gradient norm :     0.0199347 Eh/α   predicted    -0.1523094E-02 ( 103.42%)
   displ. norm   :     0.1777532 α      lambda       -0.2438711E-02
   maximum displ.:     0.1271739 α      in ANC's #1, #5, #3, ...

........................................................................
.............................. CYCLE    9 ..............................
........................................................................
   1     -8.7811440 -0.878114E+01  0.511E-01    1.80       0.0  T
   2     -8.7811753 -0.313380E-04  0.306E-01    1.79       1.0  T
   3     -8.7809561  0.219253E-03  0.224E-01    1.80       1.0  T
   4     -8.7812057 -0.249605E-03  0.809E-02    1.80       1.0  T
   5     -8.7812475 -0.417982E-04  0.115E-02    1.80       3.9  T
   6     -8.7812477 -0.223006E-06  0.277E-03    1.80      16.2  T
   7     -8.7812476  0.824034E-07  0.371E-03    1.80      12.1  T
   8     -8.7812477 -0.102828E-06  0.634E-04    1.80      70.5  T
   9     -8.7812477 -0.192168E-08  0.112E-04    1.80     400.6  T
     SCC iter.                  ...        0 min,  0.001 sec
     gradient                   ...        0 min,  0.001 sec
 * total energy  :    -8.6476797 Eh     change       -0.1163436E-02 Eh
   gradient norm :     0.0221858 Eh/α   predicted    -0.1257884E-02 (   8.12%)
   displ. norm   :     0.0430764 α      lambda       -0.5738754E-03
   maximum displ.:     0.0338001 α      in ANC's #4, #5, #7, ...

........................................................................
.............................. CYCLE   10 ..............................
........................................................................
   1     -8.7847084 -0.878471E+01  0.217E-01    1.77       0.0  T
   2     -8.7846922  0.161637E-04  0.138E-01    1.77       1.0  T
   3     -8.7846817  0.105062E-04  0.126E-01    1.77       1.0  T
   4     -8.7847511 -0.693384E-04  0.325E-02    1.77       1.4  T
   5     -8.7847561 -0.504002E-05  0.649E-03    1.77       6.9  T
   6     -8.7847561 -0.231378E-07  0.203E-03    1.77      22.0  T
   7     -8.7847561  0.390870E-07  0.254E-03    1.77      17.6  T
   8     -8.7847561 -0.474425E-07  0.196E-04    1.77     228.0  T
   9     -8.7847561 -0.128214E-09  0.388E-05    1.77    1152.7  T
     SCC iter.                  ...        0 min,  0.001 sec
     gradient                   ...        0 min,  0.001 sec
 * total energy  :    -8.6479362 Eh     change       -0.2565342E-03 Eh
   gradient norm :     0.0073034 Eh/α   predicted    -0.2874718E-03 (  12.06%)
   displ. norm   :     0.0336891 α      lambda       -0.1331488E-03
   maximum displ.:     0.0197553 α      in ANC's #5, #4, #9, ...

........................................................................
.............................. CYCLE   11 ..............................
........................................................................
   1     -8.7824788 -0.878248E+01  0.104E-01    1.75       0.0  T
   2     -8.7824790 -0.186119E-06  0.660E-02    1.75       1.0  T
   3     -8.7824655  0.134728E-04  0.532E-02    1.75       1.0  T
   4     -8.7824812 -0.156921E-04  0.135E-02    1.75       3.3  T
   5     -8.7824824 -0.120792E-05  0.319E-03    1.75      14.0  T
   6     -8.7824824 -0.411602E-08  0.716E-04    1.75      62.4  T
   7     -8.7824824  0.613457E-08  0.991E-04    1.75      45.1  T
     SCC iter.                  ...        0 min,  0.001 sec
     gradient                   ...        0 min,  0.001 sec
 * total energy  :    -8.6480085 Eh     change       -0.7228470E-04 Eh
   gradient norm :     0.0021402 Eh/α   predicted    -0.6664918E-04 (  -7.80%)
   displ. norm   :     0.0239576 α      lambda       -0.2809966E-04
   maximum displ.:     0.0158797 α      in ANC's #5, #1, #4, ...

........................................................................
.............................. CYCLE   12 ..............................
........................................................................
   1     -8.7831912 -0.878319E+01  0.576E-02    1.74       0.0  T
   2     -8.7831912 -0.153593E-07  0.339E-02    1.74       1.3  T
   3     -8.7831892  0.205158E-05  0.175E-02    1.74       2.6  T
   4     -8.7831913 -0.214441E-05  0.330E-03    1.74      13.5  T
   5     -8.7831914 -0.647413E-07  0.106E-03    1.74      42.1  T
   6     -8.7831914  0.920491E-08  0.116E-03    1.74      38.5  T
   7     -8.7831914 -0.106199E-07  0.150E-04    1.74     298.3  T
   8     -8.7831914 -0.427764E-10  0.190E-05    1.74    2350.2  T
     SCC iter.                  ...        0 min,  0.001 sec
     gradient                   ...        0 min,  0.001 sec
 * total energy  :    -8.6480216 Eh     change       -0.1311276E-04 Eh
   gradient norm :     0.0009518 Eh/α   predicted    -0.1405840E-04 (   7.21%)
   displ. norm   :     0.0031339 α      lambda       -0.1384031E-05
   maximum displ.:     0.0023651 α      in ANC's #1, #5, #7, ...

........................................................................
.............................. CYCLE   13 ..............................
........................................................................
   1     -8.7833812 -0.878338E+01  0.165E-02    1.74       0.0  T
   2     -8.7833811  0.143424E-06  0.106E-02    1.74       4.2  T
   3     -8.7833809  0.155087E-06  0.986E-03    1.74       4.5  T
   4     -8.7833814 -0.481686E-06  0.127E-03    1.74      35.2  T
   5     -8.7833814 -0.785044E-08  0.478E-04    1.74      93.5  T
   6     -8.7833814  0.817838E-09  0.474E-04    1.74      94.3  T
     SCC iter.                  ...        0 min,  0.001 sec
     gradient                   ...        0 min,  0.001 sec
 * total energy  :    -8.6480220 Eh     change       -0.3676843E-06 Eh
   gradient norm :     0.0006029 Eh/α   predicted    -0.6903209E-06 (  87.75%)
   displ. norm   :     0.0012771 α      lambda       -0.3718460E-06
   maximum displ.:     0.0011038 α      in ANC's #1, #7, #3, ...

   *** GEOMETRY OPTIMIZATION CONVERGED AFTER 13 ITERATIONS ***

------------------------------------------------------------------------
 total energy gain   :        -0.0615251 Eh      -38.6076 kcal/mol
 total RMSD          :         0.6455217 a0        0.3416 Å
 total power (kW/mol):       -12.4257084 (step)-3817.7655 (real)
------------------------------------------------------------------------

 ANCopt (total)                0 d,  0 h,  0 min,  0.042 sec
 optimizer setup                ...        0 min,  0.000 sec (  0.168%)
 model hessian                  ...        0 min,  0.000 sec (  0.251%)
 ANC generation                 ...        0 min,  0.000 sec (  0.137%)
 coordinate transformation      ...        0 min,  0.000 sec (  0.066%)
 single point calculation       ...        0 min,  0.041 sec ( 96.673%)
 optimization log               ...        0 min,  0.000 sec (  0.907%)
 hessian update                 ...        0 min,  0.000 sec (  0.083%)
 rational function              ...        0 min,  0.000 sec (  0.726%)

================
 final structure:
================
5
 xtb: 6.2.2 (9d81278992624c895f80dd42a50cac0aa55982e2)
C         0.63883069680031   -0.01007601995929    0.10369409312832
C        -0.44129980424587   -0.90993013328470   -0.09287151539585
C        -1.47317503996718    0.02136005300507    0.15878510331294
C        -0.41378362313290    0.92359430157649   -0.08421328110747
H         1.68942677054565   -0.02494920133757   -0.08539439993794

 Bond Distances (Angstroems)
 ---------------------------
C1-C2=1.4195         C1-C4=1.4195         C1-H5=1.0676         C2-C1=1.4195         C2-C3=1.4126         C2-C4=1.8338         
C3-C2=1.4126         C3-C4=1.4126         C4-C1=1.4195         C4-C2=1.8338         C4-C3=1.4126         H5-C1=1.0676         
 C  H  Rav=1.0676 sigma=0.0000  Rmin=1.0676  Rmax=1.0676     1
 C  C  Rav=1.4996 sigma=0.1671  Rmin=1.4126  Rmax=1.8338     5

 selected bond angles (degree)
 --------------------
C4-C1-C2= 80.47                H5-C1-C2=135.68                H5-C1-C4=135.68                C3-C2-C1= 96.50                
C4-C2-C1= 49.77                C4-C2-C3= 49.53                C4-C3-C2= 80.94                C2-C4-C1= 49.77                
C3-C4-C1= 96.50                C3-C4-C2= 49.53                

 selected dihedral angles (degree)
 ---------------------------------
C3-C2-C1-C4=342.21            C3-C2-C1-H5=192.16            C4-C2-C1-H5=209.96            C4-C3-C2-C1= 17.86            
C2-C4-C1-H5=150.04            C3-C4-C1-C2= 17.79            C3-C4-C1-H5=167.84            C1-C4-C2-C3=156.48            
C3-C4-C2-C1=203.52            C1-C4-C3-C2=342.14            
           -------------------------------------------------
          |                Final Singlepoint                |
           -------------------------------------------------

          ...................................................
          :                      SETUP                      :
          :.................................................:
          :  # basis functions                  17          :
          :  # atomic orbitals                  17          :
          :  # shells                            9          :
          :  # electrons                        17          :
          :  max. iterations                   250          :
          :  Hamiltonian                  GFN2-xTB          :
          :  restarted?                      false          :
          :  GBSA solvation                  false          :
          :  PC potential                    false          :
          :  electronic temp.          300.0000000     K    :
          :  accuracy                    1.0000000          :
          :  -> integral cutoff          0.2500000E+02      :
          :  -> integral neglect         0.1000000E-07      :
          :  -> SCF convergence          0.1000000E-05 Eh   :
          :  -> wf. convergence          0.1000000E-03 e    :
          :  Broyden damping             0.4000000          :
          ...................................................

 iter      E             dE          RMSdq      gap      omega  full diag
   1     -8.7833814 -0.878338E+01  0.153E-04    1.74       0.0  T
   2     -8.7833814  0.175859E-11  0.970E-05    1.74     461.2  T
   3     -8.7833814  0.554454E-10  0.916E-05    1.74     488.4  T

   *** convergence criteria satisfied after 3 iterations ***

         #    Occupation            Energy/Eh            Energy/eV
      -------------------------------------------------------------
         1        2.0000           -0.7016267             -19.0922
       ...           ...                  ...                  ...
         4        2.0000           -0.5349690             -14.5572
         5        2.0000           -0.5143722             -13.9968
         6        2.0000           -0.5094862             -13.8638
         7        2.0000           -0.4382318             -11.9249
         8        1.0000           -0.4017545             -10.9323
         9        1.0000           -0.3618837              -9.8474
        10        1.0000           -0.3549288              -9.6581 (HOMO)
        11                         -0.2910300              -7.9193 (LUMO)
        12                         -0.1894575              -5.1554
        13                          0.1264822               3.4418
        14                          0.1279112               3.4806
        15                          0.1782510               4.8505
       ...                                ...                  ...
        17                          0.6266945              17.0532
      -------------------------------------------------------------
                  HL-Gap            0.0638988 Eh            1.7388 eV
             Fermi-level           -0.3714863 Eh          -10.1087 eV

 SCC (total)                   0 d,  0 h,  0 min,  0.003 sec
 SCC setup                      ...        0 min,  0.000 sec (  1.990%)
 Dispersion                     ...        0 min,  0.000 sec (  0.440%)
 integral evaluation            ...        0 min,  0.001 sec ( 36.522%)
 zeroth order Hamiltonian       ...        0 min,  0.000 sec (  0.473%)
 iterations                     ...        0 min,  0.001 sec ( 18.713%)
 molecular gradient             ...        0 min,  0.001 sec ( 38.960%)
 printout                       ...        0 min,  0.000 sec (  2.593%)

         :::::::::::::::::::::::::::::::::::::::::::::::::::::
         ::                     SUMMARY                     ::
         :::::::::::::::::::::::::::::::::::::::::::::::::::::
         :: total energy              -8.648021955263 Eh    ::
         :: gradient norm              0.000606247078 Eh/a0 ::
         :: HOMO-LUMO gap              1.738775138916 eV    ::
         ::.................................................::
         :: SCC energy                -8.783381388979 Eh    ::
         :: -> isotropic ES           -0.005644876266 Eh    ::
         :: -> anisotropic ES         -0.000775509311 Eh    ::
         :: -> anisotropic XC          0.005807122786 Eh    ::
         :: -> dispersion             -0.002140689143 Eh    ::
         :: repulsion energy           0.135359423377 Eh    ::
         :: add. restraining           0.000000000000 Eh    ::
         :::::::::::::::::::::::::::::::::::::::::::::::::::::

           ------------------------------------------------- 
          |                Numerical Hessian                |
           ------------------------------------------------- 
step length          :   0.00500
SCC accuracy         :   0.30000
Hessian scale factor :   1.00000
frozen atoms in %    :   0.00000    0
RMS gradient         :   0.00061
estimated CPU  time      0.00 min
estimated wall time      0.00 min

writing file <hessian>.

 projected vibrational frequencies (cm-1)
eigval :       -0.00    -0.00     0.00     0.00     0.00     0.00
eigval :      538.14   599.75   742.18   829.42   990.02  1084.14
eigval :     1220.55  1392.77  3171.91
           -------------------------------------------------
          |                Property Printout                |
           -------------------------------------------------

    * Orbital Energies and Occupations

         #    Occupation            Energy/Eh            Energy/eV
      -------------------------------------------------------------
         1        2.0000           -0.7016268             -19.0922
         2        2.0000           -0.6148927             -16.7321
         3        2.0000           -0.5907381             -16.0748
         4        2.0000           -0.5349691             -14.5573
         5        2.0000           -0.5143723             -13.9968
         6        2.0000           -0.5094862             -13.8638
         7        2.0000           -0.4382319             -11.9249
         8        1.0000           -0.4017540             -10.9323
         9        1.0000           -0.3618836              -9.8474
        10        1.0000           -0.3549289              -9.6581 (HOMO)
        11                         -0.2910300              -7.9193 (LUMO)
        12                         -0.1894574              -5.1554
        13                          0.1264818               3.4417
        14                          0.1279111               3.4806
        15                          0.1782511               4.8505
        16                          0.2700226               7.3477
        17                          0.6266944              17.0532
      -------------------------------------------------------------
                  HL-Gap            0.0638988 Eh            1.7388 eV
             Fermi-level           -0.3714862 Eh          -10.1087 eV

     #   Z        covCN         q      C6AA      α(0)
     1   6 C      3.156     0.019    27.278     8.540
     2   6 C      2.755    -0.055    29.333     8.869
     3   6 C      2.229     0.004    30.150     8.892
     4   6 C      2.755    -0.055    29.333     8.869
     5   1 H      0.927     0.085     1.924     2.169

 Mol. C6AA /au·bohr⁶  :        525.831532
 Mol. C8AA /au·bohr⁸  :      14565.152822
 Mol. α(0) /au        :         37.339032


Wiberg/Mayer (AO) data.
largest (>0.10) Wiberg bond orders for each atom
          total WBO             WBO to atom ...
     1  C   3.335        C    4 1.175    C    2 1.175    H    5 0.940
     2  C   2.905        C    3 1.187    C    1 1.175    C    4 0.539
     3  C   2.430        C    4 1.187    C    2 1.187
     4  C   2.905        C    3 1.187    C    1 1.175    C    2 0.539
     5  H   0.958        C    1 0.940

MOs/occ written to file <molden.input>


molecular dipole:
                 x           y           z       tot (Debye)
 q only:        0.372      -0.006       0.010
   full:        0.569      -0.009       0.042       1.450
molecular quadrupole (traceless):
                xx          xy          yy          xz          yz          zz
 q only:        1.025      -0.026      -0.758      -0.087      -0.001      -0.267
  q+dip:        3.047      -0.081      -2.526      -0.572      -0.001      -0.521
   full:        1.809      -0.067      -2.784      -0.388      -0.012       0.975

           -------------------------------------------------
          |                Geometry Summary                 |
           -------------------------------------------------

      molecular mass/u    :       49.0508844
   center of mass at/Å    :       -0.3789621       0.0055982       0.0191565
  moments of inertia/u·Å² :        0.2077747E+02   0.3180788E+02   0.5141824E+02
rotational constants/cm⁻¹ :        0.8113421E+00   0.5299830E+00   0.3278532E+00

 * 3 selected distances

     #   Z        #   Z                                     value/Å
     1   6 C      2   6 C                                 1.4195272 (max)
     1   6 C      4   6 C                                 1.4195233
     1   6 C      5   1 H                                 1.0675803 (min)

 * 2 distinct bonds (by element types)

   Z      Z             #   av. dist./Å        max./Å        min./Å
   1 H    6 C           1     1.0675803     1.0675803     1.0675803
   6 C    6 C           2     1.4195252     1.4195272     1.4195233

           -------------------------------------------------
          |               Frequency Printout                |
           -------------------------------------------------
 projected vibrational frequencies (cm-1)
eigval :       -0.00    -0.00     0.00     0.00     0.00     0.00
eigval :      538.14   599.75   742.18   829.42   990.02  1084.14
eigval :     1220.55  1392.77  3171.91
 reduced masses (amu)
   1: 11.40   2: 11.95   3: 11.54   4: 11.63   5: 11.32   6: 11.13   7: 12.00   8:  2.81
   9: 11.84  10:  7.30  11:  6.96  12: 11.92  13: 11.66  14: 11.78  15:  1.93
 IR intensities (amu)
   1:  0.03   2:  0.06   3:  0.03   4:  0.08   5:  0.04   6:  0.06   7:  0.13   8:  0.26
   9:  0.08  10:  1.30  11:  1.01  12:  0.45  13:  0.43  14:  0.25  15:  0.06
 Raman intensities (amu)
   1:  0.00   2:  0.00   3:  0.00   4:  0.00   5:  0.00   6:  0.00   7:  0.00   8:  0.00
   9:  0.00  10:  0.00  11:  0.00  12:  0.00  13:  0.00  14:  0.00  15:  0.00
 output can be read by thermo (or use thermo option).
 writing <g98.out> molden fake output.
Molecule has the following symmetry elements: (sigma) 
It seems to be the Cs point group
 recommended (thermochemical) frequency scaling factor: 1.0
           -------------------------------------------------
          |             Thermodynamic Functions             |
           -------------------------------------------------

cs  symmetry found (for desy threshold:  0.10E+00) used in thermo

          ...................................................
          :                      SETUP                      :
          :.................................................:
          :  # frequencies                           9      :
          :  # imaginary freq.                       0      :
          :  linear?                             false      :
          :  only rotor calc.                    false      :
          :  symmetry                               cs      :
          :  rotational number                       1      :
          :  scaling factor                  1.0000000      :
          :  rotor cutoff                   50.0000000 cm⁻¹ :
          :  imag. cutoff                  -20.0000000 cm⁻¹ :
          :.................................................:

    mode    ω/cm⁻¹     T·S(HO)/kcal·mol⁻¹    T·S(FR)/kcal·mol⁻¹   T·S(vib)
   ------------------------------------------------------------------------
   ------------------------------------------------------------------------

   temp. (K)  partition function   enthalpy   heat capacity  entropy
                                   cal/mol     cal/K/mol   cal/K/mol   J/K/mol
 298.15  VIB   1.22                  384.392      4.535      1.684
         ROT  0.141E+05              888.752      2.981     21.964
         INT  0.172E+05             1273.145      7.516     23.649
         TR   0.332E+27             1481.254      4.968     37.578
         TOT                        2754.3987    12.4838    61.2266   256.1723

   temp. (K)  partition function   enthalpy   heat capacity  entropy
                                   cal/mol     cal/K/mol   cal/K/mol   J/K/mol
 120.00  VIB   1.00                    4.156      0.242      0.040
         ROT  0.360E+04              357.707      2.981     19.252
         INT  0.360E+04              361.863      3.223     19.291
         TR   0.849E+26              596.178      4.968     33.058
         TOT                         958.0405     8.1913    52.3496   219.0308

   temp. (K)  partition function   enthalpy   heat capacity  entropy
                                   cal/mol     cal/K/mol   cal/K/mol   J/K/mol
 100.00  VIB   1.00                    1.042      0.086      0.012
         ROT  0.274E+04              298.089      2.981     18.708
         INT  0.274E+04              299.131      3.067     18.720
         TR   0.646E+26              496.815      4.968     32.153
         TOT                         795.9456     8.0347    50.8728   212.8517

   temp. (K)  partition function   enthalpy   heat capacity  entropy
                                   cal/mol     cal/K/mol   cal/K/mol   J/K/mol
  80.00  VIB   1.00                    0.136      0.017      0.002
         ROT  0.196E+04              238.471      2.981     18.043
         INT  0.196E+04              238.607      2.998     18.045
         TR   0.462E+26              397.452      4.968     31.045
         TOT                         636.0593     7.9662    49.0897   205.3912

   temp. (K)  partition function   enthalpy   heat capacity  entropy
                                   cal/mol     cal/K/mol   cal/K/mol   J/K/mol
  60.00  VIB   1.00                    0.005      0.001     -0.000
         ROT  0.127E+04              178.853      2.981     17.185
         INT  0.127E+04              178.858      2.982     17.185
         TR   0.300E+26              298.089      4.968     29.616
         TOT                         476.9472     7.9501    46.8018   195.8185

   temp. (K)  partition function   enthalpy   heat capacity  entropy
                                   cal/mol     cal/K/mol   cal/K/mol   J/K/mol
  40.00  VIB   1.00                    0.000      0.000     -0.000
         ROT   692.                  119.236      2.981     15.977
         INT   692.                  119.236      2.981     15.977
         TR   0.163E+26              198.726      4.968     27.603
         TOT                         317.9616     7.9490    43.5795   182.3367

   temp. (K)  partition function   enthalpy   heat capacity  entropy
                                   cal/mol     cal/K/mol   cal/K/mol   J/K/mol
  20.00  VIB   1.00                    0.000      0.000     -0.000
         ROT   245.                   59.618      2.981     13.911
         INT   245.                   59.618      2.981     13.910
         TR   0.577E+25               99.363      4.968     24.161
         TOT                         158.9808     7.9490    38.0712   159.2900

   temp. (K)  partition function   enthalpy   heat capacity  entropy
                                   cal/mol     cal/K/mol   cal/K/mol   J/K/mol
  10.00  VIB   1.00                    0.000      0.000     -0.000
         ROT   86.5                   29.809      2.981     11.844
         INT   86.5                   29.809      2.981     11.844
         TR   0.204E+25               49.681      4.968     20.719
         TOT                          79.4904     7.9490    32.5629   136.2433

       T/K    H(0)-H(T)+PV         H(T)/Eh          T*S/Eh         G(T)/Eh
   ------------------------------------------------------------------------
    298.15    0.438941E-02    0.284671E-01    0.290908E-01   -0.623676E-03
    120.00    0.152673E-02    0.256044E-01    0.100109E-01    0.155935E-01
    100.00    0.126842E-02    0.253461E-01    0.810709E-02    0.172390E-01
     80.00    0.101362E-02    0.250913E-01    0.625835E-02    0.188329E-01
     60.00    0.760064E-03    0.248377E-01    0.447500E-02    0.203627E-01
     40.00    0.506704E-03    0.245844E-01    0.277794E-02    0.218064E-01
     20.00    0.253352E-03    0.243310E-01    0.121341E-02    0.231176E-01
     10.00    0.126676E-03    0.242043E-01    0.518923E-03    0.236854E-01 (used)
   ------------------------------------------------------------------------

         :::::::::::::::::::::::::::::::::::::::::::::::::::::
         ::                  THERMODYNAMIC                  ::
         :::::::::::::::::::::::::::::::::::::::::::::::::::::
         :: total free energy          -8.624336536096 Eh   ::
         ::.................................................::
         :: total energy               -8.648021955922 Eh   ::
         :: zero point energy           0.024077667286 Eh   ::
         :: G(RRHO) w/o ZPVE           -0.000392247459 Eh   ::
         :: G(RRHO) contrib.            0.023685419827 Eh   ::
         :::::::::::::::::::::::::::::::::::::::::::::::::::::

optimized geometry written to: xtbopt.xyz


           -------------------------------------------------
          | TOTAL ENERGY               -8.648021955922 Eh   |
          | TOTAL ENTHALPY             -8.623817612621 Eh   |
          | TOTAL FREE ENERGY          -8.624336536096 Eh   |
          | GRADIENT NORM               0.000605787057 Eh/α |
          | HOMO-LUMO GAP               1.738775457616 eV   |
           -------------------------------------------------

------------------------------------------------------------------------
 * finished run on 2020/05/12 at 11:45:11.081     
------------------------------------------------------------------------
 total:
 * wall-time:     0 d,  0 h,  0 min,  0.159 sec
 *  cpu-time:     0 d,  0 h,  0 min,  0.158 sec
 * ratio c/w:     0.996 speedup
 SCF:
 * wall-time:     0 d,  0 h,  0 min,  0.005 sec
 *  cpu-time:     0 d,  0 h,  0 min,  0.005 sec
 * ratio c/w:     0.998 speedup
 ANC optimizer:
 * wall-time:     0 d,  0 h,  0 min,  0.046 sec
 *  cpu-time:     0 d,  0 h,  0 min,  0.046 sec
 * ratio c/w:     0.999 speedup
 numerical hessian:
 * wall-time:     0 d,  0 h,  0 min,  0.088 sec
 *  cpu-time:     0 d,  0 h,  0 min,  0.088 sec
 * ratio c/w:     0.998 speedup

