5
 energy: -10.953981443738 gnorm: 0.083912559410 xtb: 6.2.2 (9d81278992624c895f80dd42a50cac0aa55982e2)
C         0.09301400000000    0.99582400000000    0.61459500000000
N        -0.09378500000000    0.17350800000000   -0.57195300000000
C        -0.04612100000000   -1.08257800000000    0.16219300000000
C        -1.03259600000000   -0.00274000000000    0.52648400000000
C         1.07948800000000   -0.08401400000000    0.25030400000000
5
 energy: -10.959191736776 gnorm: 0.057900254485 xtb: 6.2.2 (9d81278992624c895f80dd42a50cac0aa55982e2)
C         0.09341634606646    0.98561316610697    0.62067749106087
N        -0.09765020380875    0.18065886781811   -0.60361650302014
C        -0.04459087379361   -1.07594260975860    0.17194235060166
C        -1.02307012949844   -0.00485706691990    0.53328058631322
C         1.07189486103434   -0.08547235724657    0.25933907504439
5
 energy: -10.964037144848 gnorm: 0.009185893088 xtb: 6.2.2 (9d81278992624c895f80dd42a50cac0aa55982e2)
C         0.09414229927663    0.95855200910071    0.63418839775543
N        -0.10668064745044    0.19736446350306   -0.67758620442463
C        -0.04080083750034   -1.05723394640012    0.19541607038270
C        -0.99755696049219   -0.00992839641034    0.54873176070290
C         1.05089614616634   -0.08875412979331    0.28087297558361
5
 energy: -10.964099679916 gnorm: 0.002771164546 xtb: 6.2.2 (9d81278992624c895f80dd42a50cac0aa55982e2)
C         0.09419397267381    0.96212097474520    0.63353938984416
N        -0.10601523739619    0.19613442208013   -0.67214075044635
C        -0.04118595983554   -1.06018918437710    0.19334677493476
C        -1.00104328712349   -0.00949254877147    0.54780266743817
C         1.05405051168141   -0.08857366367677    0.27907491822927
5
 energy: -10.964104030170 gnorm: 0.001048185815 xtb: 6.2.2 (9d81278992624c895f80dd42a50cac0aa55982e2)
C         0.09424067694700    0.96229273286164    0.63384991597802
N        -0.10614285423337    0.19637136073234   -0.67319078468073
C        -0.04117015221545   -1.06047856320144    0.19355677621127
C        -1.00124054794842   -0.00954342413416    0.54809772959849
C         1.05431287745023   -0.08864210625838    0.27930936289295
5
 energy: -10.964104577536 gnorm: 0.000516315482 xtb: 6.2.2 (9d81278992624c895f80dd42a50cac0aa55982e2)
C         0.09428439033226    0.96245509139319    0.63413219796939
N        -0.10625757359587    0.19658341441952   -0.67412952044014
C        -0.04115528328491   -1.06074704632400    0.19374531631055
C        -1.00143304470785   -0.00958789223824    0.54836046901727
C         1.05456151125638   -0.08870356725048    0.27951453714294
