[Molden Format]
[Title]
[Atoms] AU
C      1     6  0.17818536509363E+00  0.18187775197757E+01  0.11983322734785E+01
N      2     7 -0.20080019585256E+00  0.37148760741199E+00 -0.12739199954074E+01
C      3     6 -0.77781424386361E-01 -0.20045201728310E+01  0.36612932180979E+00
C      4     6 -0.18924304886909E+01 -0.18106771419815E-01  0.10362576453264E+01
C      5     6  0.19928332190193E+01 -0.16763494538767E+00  0.52819921030551E+00
[GTO]
           1 0
 s           4   1.0000000000000000     
   51.049363095579913      -0.16312063210127389     
   8.7911227406887544      -0.19911024581000730     
  0.70640422258929825       0.31882047753655751     
  0.26922813413411617       0.12706504184240380     
 p           4   1.0000000000000000     
   5.8263656140800002       0.73716451545209605     
   1.5106896018720002       0.68216371614850257     
  0.53256483288000001       0.35783053929253711     
  0.21202323690600003        5.3983030275847881E-002

           2 0
 s           4   1.0000000000000000     
   63.594024466941008      -0.19234388414721629     
   10.951417231523665      -0.23478107924953728     
  0.87999310257376984       0.37593753901700888     
  0.33538715296521110       0.14982889271862770     
 p           4   1.0000000000000000     
   7.2965040481495080       0.97658666315667420     
   1.8918745450712575       0.90372226730345739     
  0.66694432110824120       0.47404958461536373     
  0.26552202674130870        7.1516067715011844E-002

           3 0
 s           4   1.0000000000000000     
   51.049363095579913      -0.16312063210127389     
   8.7911227406887544      -0.19911024581000730     
  0.70640422258929825       0.31882047753655751     
  0.26922813413411617       0.12706504184240380     
 p           4   1.0000000000000000     
   5.8263656140800002       0.73716451545209605     
   1.5106896018720002       0.68216371614850257     
  0.53256483288000001       0.35783053929253711     
  0.21202323690600003        5.3983030275847881E-002

           4 0
 s           4   1.0000000000000000     
   51.049363095579913      -0.16312063210127389     
   8.7911227406887544      -0.19911024581000730     
  0.70640422258929825       0.31882047753655751     
  0.26922813413411617       0.12706504184240380     
 p           4   1.0000000000000000     
   5.8263656140800002       0.73716451545209605     
   1.5106896018720002       0.68216371614850257     
  0.53256483288000001       0.35783053929253711     
  0.21202323690600003        5.3983030275847881E-002

           5 0
 s           4   1.0000000000000000     
   51.049363095579913      -0.16312063210127389     
   8.7911227406887544      -0.19911024581000730     
  0.70640422258929825       0.31882047753655751     
  0.26922813413411617       0.12706504184240380     
 p           4   1.0000000000000000     
   5.8263656140800002       0.73716451545209605     
   1.5106896018720002       0.68216371614850257     
  0.53256483288000001       0.35783053929253711     
  0.21202323690600003        5.3983030275847881E-002

[MO]
Sym=     1a
Ene=  -0.78338365767977791     
Spin= Alpha
Occup=     2.00000000
           1 -0.22921800043509774     
           2   1.3190658034955545E-002
           3  0.11855640410086897     
           4   6.5980024929059841E-002
           5 -0.29397308236221836     
           6  -2.8996802973744192E-002
           7   5.3644683549998101E-002
           8 -0.23753494342019169     
           9 -0.22921804828741693     
          10  -3.8417830924300117E-003
          11 -0.13585205546976525     
          12   1.0603905521221367E-002
          13 -0.22921773034214779     
          14 -0.12459118250218715     
          15  -3.6728344006931122E-003
          16   5.5195163230176154E-002
          17 -0.22921784004044932     
          18  0.13394006864779487     
          19  -1.3622666538465557E-002
          20   2.1388228606525225E-002
Sym=     2a
Ene=  -0.66959224750695157     
Spin= Alpha
Occup=     2.00000000
           1  -2.5858319919768005E-004
           2 -0.24794014294211036     
           3   9.5416332314175248E-003
           4   3.2478551211890201E-002
           5  -3.8960411403289686E-008
           6 -0.39480149626492539     
           7   1.4951866098955650E-002
           8   5.1571677629959685E-002
           9   2.5866465808401651E-004
          10 -0.24795318025084670     
          11   9.5656635133484023E-003
          12   3.2372277233461720E-002
          13  0.41548600277589232     
          14   7.7413406000368980E-003
          15   1.8428620163002261E-002
          16  -8.7779752024819857E-002
          17 -0.41548591530220835     
          18   2.8584162468568052E-002
          19  -2.0131228025076633E-002
          20   8.2960902693588467E-002
Sym=     3a
Ene=  -0.66959198751893667     
Spin= Alpha
Occup=     2.00000000
           1 -0.41548590443132671     
           2   1.1773046555067829E-002
           3  -1.4038775274127393E-003
           4   8.9242983662581030E-002
           5   5.2458132978949628E-008
           6  -2.5763382927321974E-002
           7 -0.38849989504201415     
           8  -8.4593401266310056E-002
           9  0.41548583742609307     
          10  -9.0699561078088336E-003
          11   3.7156186582670683E-002
          12  -8.1498755491037272E-002
          13  -2.5865990522693801E-004
          14  -1.6340027039120672E-002
          15 -0.24400488752265459     
          16  -5.3054506462252612E-002
          17   2.5858769749428239E-004
          18  -1.6352984472321117E-002
          19 -0.24398108628273202     
          20  -5.3160841347181784E-002
Sym=     4a
Ene=  -0.62833660210642994     
Spin= Alpha
Occup=     2.00000000
           1 -0.16248788920280130     
           2  -2.6937108439095758E-002
           3  0.10411586389628091     
           4 -0.23663776461047301     
           5  0.58531430843393950     
           6  -1.2028107673872249E-002
           7   2.2252251022892081E-002
           8  -9.8531366822006444E-002
           9 -0.16248801149049277     
          10  -3.3404347333372331E-002
          11   7.5168106504380954E-003
          12 -0.25766416240689993     
          13 -0.16248745071487392     
          14  -7.9252599718598382E-002
          15   5.7705318327436285E-002
          16 -0.24073261966404563     
          17 -0.16248765132614304     
          18   1.8911265677964050E-002
          19   5.3927421825416703E-002
          20 -0.25356925051949319     
Sym=     5a
Ene=  -0.55011826137230091     
Spin= Alpha
Occup=     2.00000000
           1  -1.9865197111921644E-007
           2  0.41284111995775019     
           3  -1.5888713180401904E-002
           4  -5.3985320464895847E-002
           5   8.9379032565177569E-010
           6   1.6905608556744777E-008
           7  -1.6102704100476193E-007
           8  -3.9975361785603628E-008
           9  -3.5417821433154854E-008
          10 -0.41284108152290305     
          11   1.5888657277364156E-002
          12   5.3985302667129809E-002
          13   8.3896277975126231E-008
          14  -2.7198722119665258E-002
          15 -0.40625800507226362     
          16  -8.8428637425841741E-002
          17   1.5419298936892821E-007
          18   2.7198735146733103E-002
          19  0.40625794178310903     
          20   8.8428620121456761E-002
Sym=     6a
Ene=  -0.51444205101620744     
Spin= Alpha
Occup=     2.00000000
           1  -2.8651984505226964E-004
           2 -0.17056297687617486     
           3   6.5368314756389873E-003
           4   2.1860097081988886E-002
           5  -2.6211339238437109E-007
           6  0.53845674786839137     
           7  -2.0179338464885122E-002
           8  -7.0288587100019728E-002
           9   2.8641393943672075E-004
          10 -0.17046276606255409     
          11   6.3514797687516953E-003
          12   2.2680928940316602E-002
          13  0.27988311130050086     
          14  -6.8135549232502063E-002
          15  -8.6215672865203860E-002
          16  0.41621802143789610     
          17 -0.27988270749739974     
          18 -0.16602558660837613     
          19   9.4883194680174893E-002
          20 -0.38567566023717181     
Sym=     7a
Ene=  -0.51444183318566661     
Spin= Alpha
Occup=     2.00000000
           1  0.27988396557603762     
           2   5.6483222317209265E-002
           3   2.4660244350099971E-002
           4  0.42604505884437183     
           5  -4.5171434647982773E-008
           6  -3.4920868714602316E-002
           7 -0.52985559010738315     
           8 -0.11539913859498530     
           9 -0.27988363742207761     
          10  -4.1406841777161536E-002
          11  0.20575873485210427     
          12 -0.37584788040321754     
          13   2.8639293697033927E-004
          14   1.1163471917561809E-002
          15  0.16769794309251182     
          16   3.6947453112881244E-002
          17  -2.8654045126830046E-004
          18   1.1063202953465046E-002
          19  0.16788323853871306     
          20   3.6126615641789372E-002
Sym=     8a
Ene=  -0.49693870986019928     
Spin= Alpha
Occup=     1.99999801
           1  0.41687103609810516     
           2   1.8701195714020031E-002
           3  0.28455195732066468     
           4   5.9265651315928487E-002
           5  -5.1985742121948707E-006
           6   1.1608427877215044E-006
           7  -1.7258025042664590E-006
           8   8.2512834935749857E-006
           9  0.41687113853488544     
          10  -1.9323063152879273E-002
          11 -0.28340187326391086     
          12  -6.4358461014166327E-002
          13 -0.41688122456033289     
          14  0.28889729702626693     
          15  -1.1681253080005533E-002
          16  -3.5193164348022658E-002
          17 -0.41688120682146762     
          18 -0.28827627484046675     
          19   1.0532128564499964E-002
          20   4.0280974453030943E-002
Sym=     9a
Ene=  -0.49234418581516654     
Spin= Alpha
Occup=     1.99974980
           1 -0.18664360556001067     
           2  -2.8622690477794876E-002
           3  -7.3922540291001052E-002
           4 -0.19712947929032301     
           5 -0.50196354344994942     
           6   7.8087864510742108E-002
           7 -0.14446431804568743     
           8  0.63967828866495025     
           9 -0.18664361554503398     
          10  -1.3506574067977607E-002
          11  0.15186259605594829     
          12 -0.14798371232060092     
          13 -0.18663157265922811     
          14   9.3648670822116239E-002
          15   3.4555104991177830E-002
          16 -0.18755679063026501     
          17 -0.18663142336656804     
          18 -0.13577787486836546     
          19   4.3384780422336726E-002
          20 -0.15755563273717299     
Sym=    10a
Ene=  -0.47659430999980024     
Spin= Alpha
Occup=     1.00025219
           1 -0.28174740232741741     
           2  -2.0237669002877508E-003
           3 -0.36063174890714761     
           4   9.0662711217098763E-002
           5  0.26860784173968905     
           6  -2.0595376838843899E-002
           7   3.8102033624551924E-002
           8 -0.16871353620407942     
           9 -0.28174741137456383     
          10   4.1388576473404687E-002
          11  0.28780588177136618     
          12  0.23180560455445076     
          13 -0.28174180156590600     
          14  0.34914987156037858     
          15  -4.9092820115166774E-002
          16  0.11815126551340881     
          17 -0.28174178155267549     
          18 -0.30978505467440598     
          19  -2.3733035990560945E-002
          20  0.20431695310901696     
Sym=    11a
Ene=  -0.39293327874876444     
Spin= Alpha
Occup=     1.00000000
           1   3.9837440152569738E-005
           2 -0.28671659038431208     
           3   1.1137478261054901E-002
           4   3.7486820473171249E-002
           5  -2.4970934374584784E-008
           6  -4.8853362845197113E-003
           7   1.8722402596425540E-004
           8   6.3866809250326905E-004
           9  -3.9880924284272123E-005
          10 -0.28670991487630648     
          11   1.1125199165691040E-002
          12   3.7541323430310476E-002
          13 -0.24336173387949678     
          14  0.61931213889261238     
          15  -6.0600181999776119E-002
          16   8.7698792679080789E-002
          17  0.24336185520390388     
          18  0.57877310562447803     
          19   1.4397930141688092E-002
          20 -0.24438789591754659     
Sym=    12a
Ene=  -0.39293235858560382     
Spin= Alpha
Occup=     1.00000000
           1  0.24336039744586233     
           2   1.9243622514128932E-002
           3  0.62699047952710019     
           4  -3.7736533196747649E-002
           5   1.5387946385525313E-008
           6  -3.2101042124166231E-004
           7  -4.8068187882295971E-003
           8  -1.0463796425524564E-003
           9 -0.24336041961295590     
          10   5.9782619483997872E-002
          11  0.55199242701916706     
          12  0.29434983097682788     
          13   3.9861785611032205E-005
          14  -1.8991216424986482E-002
          15 -0.28213935656626943     
          16  -6.1428787877425887E-002
          17  -3.9855512479996472E-005
          18  -1.8984551361487408E-002
          19 -0.28215159125856482     
          20  -6.1374271367553170E-002
Sym=    13a
Ene=  -0.23400273502147245     
Spin= Alpha
Occup=     0.00000000
           1   1.4117303256914958E-003
           2   7.0051699133523673E-002
           3 -0.12765984243375098     
           4  0.57327931802367005     
           5  -1.7157069155170231E-006
           6   6.2153956483572352E-007
           7   5.3935125259442852E-007
           8  -1.3134203649548784E-006
           9   1.4117182402229585E-003
          10   6.9820775632454923E-002
          11 -0.13110815573571602     
          12  0.57252827061895395     
          13  -1.4108578563303766E-003
          14  -6.8183136234766725E-002
          15  0.12931693654296814     
          16 -0.57313547583152324     
          17  -1.4108033517336003E-003
          18  -7.1690387885989068E-002
          19  0.12945166364750457     
          20 -0.57267568310243866     
Sym=    14a
Ene=  -0.18121838887702829     
Spin= Alpha
Occup=     0.00000000
           1  -6.2515287902716252E-002
           2  -6.6076400629521220E-002
           3  0.15724969227854727     
           4 -0.55446889724922599     
           5  -1.1803297808813980E-007
           6  -5.0246745751266343E-002
           7 -0.73893971766378852     
           8 -0.16074776067134466     
           9   6.2515325673634992E-002
          10   7.0907489985188893E-002
          11  -9.6173585413877286E-002
          12  0.56767289353845096     
          13   6.4406363863583869E-005
          14   2.3778396370354598E-002
          15  0.35350813011441884     
          16   7.7548740270736702E-002
          17  -6.4359737499087148E-005
          18   2.3637234296512530E-002
          19  0.35376884999124114     
          20   7.6393161442622953E-002
Sym=    15a
Ene=  -0.18121797954355584     
Spin= Alpha
Occup=     0.00000000
           1   6.4318888041370477E-005
           2  0.35943786052071947     
           3  -1.3992668498300900E-002
           4  -4.6421348871025898E-002
           5   3.2361056431696831E-007
           6 -0.75089525825671966     
           7   2.9661779706527096E-002
           8   9.8363885523715416E-002
           9  -6.4447570731591776E-005
          10  0.35929673064279261     
          11  -1.3731945326864455E-002
          12  -4.7576932964810872E-002
          13   6.2513244757739617E-002
          14   9.9512347602060611E-002
          15 -0.12827058406821443     
          16  0.55693196263403522     
          17  -6.2513351588138130E-002
          18  -3.7471666573259774E-002
          19  0.12515287426952129     
          20 -0.56521055028971234     
Sym=    16a
Ene=   -6.0929774261153431E-002
Spin= Alpha
Occup=     0.00000000
           1 -0.14483435181853696     
           2   5.1427019261215838E-002
           3  0.16040048807947463     
           4  0.34607269922306494     
           5  0.75727687679960631     
           6   9.9977633391177351E-002
           7 -0.18496027048688746     
           8  0.81899131963377625     
           9 -0.14483413112489613     
          10   2.0981286276957636E-002
          11 -0.29435887085075618     
          12  0.24708712578382816     
          13 -0.14483550095425851     
          14 -0.19486221773747844     
          15  -5.8085511302448205E-002
          16  0.32679185240840053     
          17 -0.14483488722154469     
          18  0.26727022033731396     
          19  -7.5871226108577453E-002
          20  0.26636143091254638     
Sym=    17a
Ene=    9.3659405896916376E-002
Spin= Alpha
Occup=     0.00000000
           1  -1.6942327549698561E-005
           2  0.72139629211478828     
           3  -2.7750955085628474E-002
           4  -9.4325791602468928E-002
           5   9.6648030515788215E-009
           6   3.7073319614034472E-006
           7   1.0501469218242111E-005
           8   1.9306085949419144E-006
           9   1.6948497264827382E-005
          10 -0.72138612909048583     
          11   2.7778016709673895E-002
          12   9.4330670523159299E-002
          13   4.7144712002679716E-006
          14   4.7531018303243341E-002
          15  0.70990127193634955     
          16  0.15451970974925403     
          17  -4.6996326433311202E-006
          18  -4.7521314253076194E-002
          19 -0.70987204742137089     
          20 -0.15451428631742914     
Sym=    18a
Ene=    9.9901703651780596E-002
Spin= Alpha
Occup=     0.00000000
           1 -0.64198502339886554     
           2   5.6791169327514060E-002
           3  0.47733654398581654     
           4  0.28715733394751658     
           5  -1.6736568956992083E-007
           6   2.6867317426300968E-002
           7  0.39214766546783242     
           8   8.5282250323734918E-002
           9  0.64198492371521454     
          10   1.4159758349227957E-002
          11  0.55627490072915464     
          12  -6.2388959605733443E-002
          13   9.8565287442338163E-004
          14   3.8259129070842092E-002
          15  0.55993873711076370     
          16  0.12149956718011104     
          17  -9.8539207379902925E-004
          18   3.8326872185059487E-002
          19  0.55985548597893764     
          20  0.12204444046632063     
Sym=    19a
Ene=    9.9902919500018603E-002
Spin= Alpha
Occup=     0.00000000
           1  -9.8511671790028075E-004
           2 -0.56891313116686393     
           3   2.2630854199971972E-002
           4   7.4846219954104759E-002
           5  -4.7108692117199234E-007
           6 -0.39848393318104008     
           7   1.5939740209782734E-002
           8   5.2243739093871165E-002
           9   9.8593289190485630E-004
          10 -0.56898920521529184     
          11   2.2753361829278135E-002
          12   7.4311224210125704E-002
          13 -0.64198524811098734     
          14 -0.50382312080843583     
          15  -1.8391108371599872E-002
          16  0.24363580162127296     
          17  0.64198486307444858     
          18 -0.54649218648195530     
          19   6.0537158909403019E-002
          20 -0.10590201242377137     
Sym=    20a
Ene=   0.38612876636480181     
Spin= Alpha
Occup=     0.00000000
           1 -0.58895191133843960     
           2   4.1403789643366898E-002
           3  0.61931790786626828     
           4  0.13435599003977200     
           5   1.1303614569869574E-006
           6  -1.0855895846730300E-007
           7  -4.4191986102927118E-007
           8   1.6056698361040029E-006
           9 -0.58895225648081317     
          10  -4.1508969586566337E-002
          11 -0.61912497734236338     
          12 -0.13521118878743646     
          13  0.58895046217902269     
          14  0.62930914129827409     
          15  -2.4314758386751310E-002
          16  -8.1855180991459817E-002
          17  0.58895163250752269     
          18 -0.62920507228615485     
          19   2.4120446010994910E-002
          20   8.2714836461075969E-002
