 Entering Gaussian System, Link 0=g16
 Initial command:
 /applis/site/cecic/gaussian16/B.01/nehalem/g16/l1.exe "/bettik/tinaccil/g16/12754231_He/Gau-168580.inp" -scrdir="/bettik/tinaccil/g16/12754231_He/"
 Entering Link 1 = /applis/site/cecic/gaussian16/B.01/nehalem/g16/l1.exe PID=    168582.
  
 Copyright (c) 1988-2017, Gaussian, Inc.  All Rights Reserved.
  
 This is part of the Gaussian(R) 16 program.  It is based on
 the Gaussian(R) 09 system (copyright 2009, Gaussian, Inc.),
 the Gaussian(R) 03 system (copyright 2003, Gaussian, Inc.),
 the Gaussian(R) 98 system (copyright 1998, Gaussian, Inc.),
 the Gaussian(R) 94 system (copyright 1995, Gaussian, Inc.),
 the Gaussian 92(TM) system (copyright 1992, Gaussian, Inc.),
 the Gaussian 90(TM) system (copyright 1990, Gaussian, Inc.),
 the Gaussian 88(TM) system (copyright 1988, Gaussian, Inc.),
 the Gaussian 86(TM) system (copyright 1986, Carnegie Mellon
 University), and the Gaussian 82(TM) system (copyright 1983,
 Carnegie Mellon University). Gaussian is a federally registered
 trademark of Gaussian, Inc.
  
 This software contains proprietary and confidential information,
 including trade secrets, belonging to Gaussian, Inc.
  
 This software is provided under written license and may be
 used, copied, transmitted, or stored only in accord with that
 written license.
  
 The following legend is applicable only to US Government
 contracts under FAR:
  
                    RESTRICTED RIGHTS LEGEND
  
 Use, reproduction and disclosure by the US Government is
 subject to restrictions as set forth in subparagraphs (a)
 and (c) of the Commercial Computer Software - Restricted
 Rights clause in FAR 52.227-19.
  
 Gaussian, Inc.
 340 Quinnipiac St., Bldg. 40, Wallingford CT 06492
  
  
 ---------------------------------------------------------------
 Warning -- This program may not be used in any manner that
 competes with the business of Gaussian, Inc. or will provide
 assistance to any competitor of Gaussian, Inc.  The licensee
 of this program is prohibited from giving any competitor of
 Gaussian, Inc. access to this program.  By using this program,
 the user acknowledges that Gaussian, Inc. is engaged in the
 business of creating and licensing software in the field of
 computational chemistry and represents and warrants to the
 licensee that it is not a competitor of Gaussian, Inc. and that
 it will not use this program in any manner prohibited above.
 ---------------------------------------------------------------
  

 Cite this work as:
 Gaussian 16, Revision B.01,
 M. J. Frisch, G. W. Trucks, H. B. Schlegel, G. E. Scuseria, 
 M. A. Robb, J. R. Cheeseman, G. Scalmani, V. Barone, 
 G. A. Petersson, H. Nakatsuji, X. Li, M. Caricato, A. V. Marenich, 
 J. Bloino, B. G. Janesko, R. Gomperts, B. Mennucci, H. P. Hratchian, 
 J. V. Ortiz, A. F. Izmaylov, J. L. Sonnenberg, D. Williams-Young, 
 F. Ding, F. Lipparini, F. Egidi, J. Goings, B. Peng, A. Petrone, 
 T. Henderson, D. Ranasinghe, V. G. Zakrzewski, J. Gao, N. Rega, 
 G. Zheng, W. Liang, M. Hada, M. Ehara, K. Toyota, R. Fukuda, 
 J. Hasegawa, M. Ishida, T. Nakajima, Y. Honda, O. Kitao, H. Nakai, 
 T. Vreven, K. Throssell, J. A. Montgomery, Jr., J. E. Peralta, 
 F. Ogliaro, M. J. Bearpark, J. J. Heyd, E. N. Brothers, K. N. Kudin, 
 V. N. Staroverov, T. A. Keith, R. Kobayashi, J. Normand, 
 K. Raghavachari, A. P. Rendell, J. C. Burant, S. S. Iyengar, 
 J. Tomasi, M. Cossi, J. M. Millam, M. Klene, C. Adamo, R. Cammi, 
 J. W. Ochterski, R. L. Martin, K. Morokuma, O. Farkas, 
 J. B. Foresman, and D. J. Fox, Gaussian, Inc., Wallingford CT, 2016.
 
 ******************************************
 Gaussian 16:  ES64L-G16RevB.01 20-Dec-2017
                 5-Oct-2020 
 ******************************************
 %nosave
 %nproc=8
 Will use up to    8 processors via shared memory.
 %mem=2gb
 %chk=input
 ----------------------
 #P CCSD(T)/aug-cc-pvtz
 ----------------------
 1/38=1,172=1/1;
 2/12=2,17=6,18=5,40=1/2;
 3/5=16,6=1,7=10,11=9,25=1,30=1/1,2,3;
 4//1;
 5/5=2,38=5/2;
 8/6=4,9=120000,10=1/1,4;
 9/5=7,14=2/13;
 6/7=2,8=2,9=2,10=2/1;
 99/5=1,9=1/99;
 Leave Link    1 at Mon Oct  5 21:31:42 2020, MaxMem=   268435456 cpu:               0.9 elap:               0.3
 (Enter /applis/site/cecic/gaussian16/B.01/nehalem/g16/l101.exe)
 -----
 Title
 -----
 Symbolic Z-matrix:
 Charge =  0 Multiplicity = 1
 He
 
 ITRead=  0
 MicOpt= -1
 NAtoms=      1 NQM=        1 NQMF=       0 NMMI=      0 NMMIF=      0
                NMic=       0 NMicF=      0.
                    Isotopes and Nuclear Properties:
 (Nuclear quadrupole moments (NQMom) in fm**2, nuclear magnetic moments (NMagM)
  in nuclear magnetons)

  Atom         1
 IAtWgt=           4
 AtmWgt=   4.0026033
 NucSpn=           0
 AtZEff=  -0.0000000
 NQMom=    0.0000000
 NMagM=    0.0000000
 AtZNuc=   2.0000000
 Leave Link  101 at Mon Oct  5 21:31:43 2020, MaxMem=   268435456 cpu:               2.8 elap:               0.6
 (Enter /applis/site/cecic/gaussian16/B.01/nehalem/g16/l202.exe)
                          Input orientation:                          
 ---------------------------------------------------------------------
 Center     Atomic      Atomic             Coordinates (Angstroms)
 Number     Number       Type             X           Y           Z
 ---------------------------------------------------------------------
      1          2           0        0.000000    0.000000    0.000000
 ---------------------------------------------------------------------
 Stoichiometry    He
 Framework group  OH[O(He)]
 Deg. of freedom     0
 Full point group                 OH      NOp  48
 Largest Abelian subgroup         D2H     NOp   8
 Largest concise Abelian subgroup C1      NOp   1
                         Standard orientation:                         
 ---------------------------------------------------------------------
 Center     Atomic      Atomic             Coordinates (Angstroms)
 Number     Number       Type             X           Y           Z
 ---------------------------------------------------------------------
      1          2           0        0.000000    0.000000    0.000000
 ---------------------------------------------------------------------
 Leave Link  202 at Mon Oct  5 21:31:44 2020, MaxMem=   268435456 cpu:               5.2 elap:               0.9
 (Enter /applis/site/cecic/gaussian16/B.01/nehalem/g16/l301.exe)
 Standard basis: Aug-CC-pVTZ (5D, 7F)
 Ernie: Thresh=  0.10000D-02 Tol=  0.10000D-05 Strict=F.
 There are    10 symmetry adapted cartesian basis functions of AG  symmetry.
 There are     2 symmetry adapted cartesian basis functions of B1G symmetry.
 There are     2 symmetry adapted cartesian basis functions of B2G symmetry.
 There are     2 symmetry adapted cartesian basis functions of B3G symmetry.
 There are     0 symmetry adapted cartesian basis functions of AU  symmetry.
 There are     3 symmetry adapted cartesian basis functions of B1U symmetry.
 There are     3 symmetry adapted cartesian basis functions of B2U symmetry.
 There are     3 symmetry adapted cartesian basis functions of B3U symmetry.
 There are     8 symmetry adapted basis functions of AG  symmetry.
 There are     2 symmetry adapted basis functions of B1G symmetry.
 There are     2 symmetry adapted basis functions of B2G symmetry.
 There are     2 symmetry adapted basis functions of B3G symmetry.
 There are     0 symmetry adapted basis functions of AU  symmetry.
 There are     3 symmetry adapted basis functions of B1U symmetry.
 There are     3 symmetry adapted basis functions of B2U symmetry.
 There are     3 symmetry adapted basis functions of B3U symmetry.
    23 basis functions,    28 primitive gaussians,    25 cartesian basis functions
     1 alpha electrons        1 beta electrons
       nuclear repulsion energy         0.0000000000 Hartrees.
 IExCor=    0 DFT=F Ex=HF Corr=None ExCW=0 ScaHFX=  1.000000
 ScaDFX=  1.000000  1.000000  1.000000  1.000000 ScalE2=  1.000000  1.000000
 IRadAn=      5 IRanWt=     -1 IRanGd=            0 ICorTp=0 IEmpDi=  4
 NAtoms=    1 NActive=    1 NUniq=    1 SFac= 1.00D+00 NAtFMM=   60 NAOKFM=F Big=F
 Integral buffers will be    131072 words long.
 Raffenetti 1 integral format.
 Two-electron integral symmetry is turned on.
 Leave Link  301 at Mon Oct  5 21:31:45 2020, MaxMem=   268435456 cpu:               0.7 elap:               0.3
 (Enter /applis/site/cecic/gaussian16/B.01/nehalem/g16/l302.exe)
 NPDir=0 NMtPBC=     1 NCelOv=     1 NCel=       1 NClECP=     1 NCelD=      1
         NCelK=      1 NCelE2=     1 NClLst=     1 CellRange=     0.0.
 One-electron integrals computed using PRISM.
 One-electron integral symmetry used in STVInt
 NBasis=    23 RedAO= T EigKep=  7.01D-02  NBF=     8     2     2     2     0     3     3     3
 NBsUse=    23 1.00D-06 EigRej= -1.00D+00 NBFU=     8     2     2     2     0     3     3     3
 Leave Link  302 at Mon Oct  5 21:31:45 2020, MaxMem=   268435456 cpu:               4.5 elap:               0.8
 (Enter /applis/site/cecic/gaussian16/B.01/nehalem/g16/l303.exe)
 DipDrv:  MaxL=1.
 Leave Link  303 at Mon Oct  5 21:31:46 2020, MaxMem=   268435456 cpu:               1.8 elap:               0.4
 (Enter /applis/site/cecic/gaussian16/B.01/nehalem/g16/l401.exe)
 ExpMin= 5.14D-02 ExpMax= 2.34D+02 ExpMxC= 3.52D+01 IAcc=3 IRadAn=         5 AccDes= 0.00D+00
 Harris functional with IExCor=  205 and IRadAn=       5 diagonalized for initial guess.
 HarFok:  IExCor=  205 AccDes= 0.00D+00 IRadAn=         5 IDoV= 1 UseB2=F ITyADJ=14
 ICtDFT=  3500011 ScaDFX=  1.000000  1.000000  1.000000  1.000000
 FoFCou: FMM=F IPFlag=           0 FMFlag=      100000 FMFlg1=           0
         NFxFlg=           0 DoJE=T BraDBF=F KetDBF=T FulRan=T
         wScrn=  0.000000 ICntrl=       500 IOpCl=  0 I1Cent=   200000004 NGrid=           0
         NMat0=    1 NMatS0=      1 NMatT0=    0 NMatD0=    1 NMtDS0=    0 NMtDT0=    0
 Petite list used in FoFCou.
 Harris En= -2.87173860625276    
 JPrj=0 DoOrth=F DoCkMO=F.
 Initial guess orbital symmetries:
       Occupied  (A1G)
       Virtual   (A1G) (T1U) (T1U) (T1U) (A1G) (T2G) (T2G) (T2G)
                 (EG) (EG) (T1U) (T1U) (T1U) (A1G) (T2G) (T2G)
                 (T2G) (EG) (EG) (T1U) (T1U) (T1U)
 The electronic state of the initial guess is 1-A1G.
 Leave Link  401 at Mon Oct  5 21:31:47 2020, MaxMem=   268435456 cpu:               3.6 elap:               0.7
 (Enter /applis/site/cecic/gaussian16/B.01/nehalem/g16/l502.exe)
 Keep R1 ints in memory in symmetry-blocked form, NReq=1685838.
 FoFCou: FMM=F IPFlag=           0 FMFlag=           0 FMFlg1=           0
         NFxFlg=           0 DoJE=F BraDBF=F KetDBF=F FulRan=T
         wScrn=  0.000000 ICntrl=       600 IOpCl=  0 I1Cent=           0 NGrid=           0
         NMat0=    1 NMatS0=    276 NMatT0=    0 NMatD0=    1 NMtDS0=    0 NMtDT0=    0
 Petite list used in FoFCou.
 Closed shell SCF:
 Using DIIS extrapolation, IDIIS=  1040.
 NGot=   268435456 LenX=   268424435 LenY=   268423369
 Requested convergence on RMS density matrix=1.00D-08 within 128 cycles.
 Requested convergence on MAX density matrix=1.00D-06.
 Requested convergence on             energy=1.00D-06.
 No special actions if energy rises.

 Cycle   1  Pass 1  IDiag  1:
 E= -2.85831279522856    
 DIIS: error= 1.90D-02 at cycle   1 NSaved=   1.
 NSaved= 1 IEnMin= 1 EnMin= -2.85831279522856     IErMin= 1 ErrMin= 1.90D-02
 ErrMax= 1.90D-02  0.00D+00 EMaxC= 1.00D-01 BMatC= 1.79D-03 BMatP= 1.79D-03
 IDIUse=3 WtCom= 8.10D-01 WtEn= 1.90D-01
 Coeff-Com:  0.100D+01
 Coeff-En:   0.100D+01
 Coeff:      0.100D+01
 Gap=     1.047 Goal=   None    Shift=    0.000
 GapD=    1.047 DampG=2.000 DampE=0.500 DampFc=1.0000 IDamp=-1.
 RMSDP=1.73D-03 MaxDP=2.42D-02              OVMax= 2.97D-02

 Cycle   2  Pass 1  IDiag  1:
 E= -2.86110236125311     Delta-E=       -0.002789566025 Rises=F Damp=F
 DIIS: error= 2.40D-03 at cycle   2 NSaved=   2.
 NSaved= 2 IEnMin= 2 EnMin= -2.86110236125311     IErMin= 2 ErrMin= 2.40D-03
 ErrMax= 2.40D-03  0.00D+00 EMaxC= 1.00D-01 BMatC= 5.55D-05 BMatP= 1.79D-03
 IDIUse=3 WtCom= 9.76D-01 WtEn= 2.40D-02
 Coeff-Com: -0.141D+00 0.114D+01
 Coeff-En:   0.000D+00 0.100D+01
 Coeff:     -0.138D+00 0.114D+01
 Gap=     1.029 Goal=   None    Shift=    0.000
 RMSDP=3.33D-04 MaxDP=5.27D-03 DE=-2.79D-03 OVMax= 5.69D-03

 Cycle   3  Pass 1  IDiag  1:
 E= -2.86118270700431     Delta-E=       -0.000080345751 Rises=F Damp=F
 DIIS: error= 2.63D-04 at cycle   3 NSaved=   3.
 NSaved= 3 IEnMin= 3 EnMin= -2.86118270700431     IErMin= 3 ErrMin= 2.63D-04
 ErrMax= 2.63D-04  0.00D+00 EMaxC= 1.00D-01 BMatC= 5.14D-07 BMatP= 5.55D-05
 IDIUse=3 WtCom= 9.97D-01 WtEn= 2.63D-03
 Coeff-Com:  0.113D-01-0.148D+00 0.114D+01
 Coeff-En:   0.000D+00 0.000D+00 0.100D+01
 Coeff:      0.113D-01-0.148D+00 0.114D+01
 Gap=     1.028 Goal=   None    Shift=    0.000
 RMSDP=3.19D-05 MaxDP=3.51D-04 DE=-8.03D-05 OVMax= 5.86D-04

 Cycle   4  Pass 1  IDiag  1:
 E= -2.86118342326662     Delta-E=       -0.000000716262 Rises=F Damp=F
 DIIS: error= 1.37D-05 at cycle   4 NSaved=   4.
 NSaved= 4 IEnMin= 4 EnMin= -2.86118342326662     IErMin= 4 ErrMin= 1.37D-05
 ErrMax= 1.37D-05  0.00D+00 EMaxC= 1.00D-01 BMatC= 1.29D-09 BMatP= 5.14D-07
 IDIUse=1 WtCom= 1.00D+00 WtEn= 0.00D+00
 Coeff-Com: -0.206D-02 0.286D-01-0.243D+00 0.122D+01
 Coeff:     -0.206D-02 0.286D-01-0.243D+00 0.122D+01
 Gap=     1.028 Goal=   None    Shift=    0.000
 RMSDP=3.32D-06 MaxDP=2.99D-05 DE=-7.16D-07 OVMax= 4.04D-05

 Cycle   5  Pass 1  IDiag  1:
 E= -2.86118342611530     Delta-E=       -0.000000002849 Rises=F Damp=F
 DIIS: error= 2.01D-07 at cycle   5 NSaved=   5.
 NSaved= 5 IEnMin= 5 EnMin= -2.86118342611530     IErMin= 5 ErrMin= 2.01D-07
 ErrMax= 2.01D-07  0.00D+00 EMaxC= 1.00D-01 BMatC= 1.89D-13 BMatP= 1.29D-09
 IDIUse=1 WtCom= 1.00D+00 WtEn= 0.00D+00
 Coeff-Com: -0.231D-05-0.134D-03 0.145D-02-0.890D-02 0.101D+01
 Coeff:     -0.231D-05-0.134D-03 0.145D-02-0.890D-02 0.101D+01
 Gap=     1.028 Goal=   None    Shift=    0.000
 RMSDP=1.73D-08 MaxDP=2.23D-07 DE=-2.85D-09 OVMax= 3.43D-07

 Cycle   6  Pass 1  IDiag  1:
 E= -2.86118342611557     Delta-E=       -0.000000000000 Rises=F Damp=F
 DIIS: error= 1.06D-09 at cycle   6 NSaved=   6.
 NSaved= 6 IEnMin= 6 EnMin= -2.86118342611557     IErMin= 6 ErrMin= 1.06D-09
 ErrMax= 1.06D-09  0.00D+00 EMaxC= 1.00D-01 BMatC= 5.37D-18 BMatP= 1.89D-13
 IDIUse=1 WtCom= 1.00D+00 WtEn= 0.00D+00
 Coeff-Com:  0.414D-10-0.241D-08 0.212D-06-0.734D-06-0.539D-02 0.101D+01
 Coeff:      0.414D-10-0.241D-08 0.212D-06-0.734D-06-0.539D-02 0.101D+01
 Gap=     1.028 Goal=   None    Shift=    0.000
 RMSDP=8.97D-11 MaxDP=1.13D-09 DE=-2.67D-13 OVMax= 1.77D-09

 SCF Done:  E(RHF) =  -2.86118342612     A.U. after    6 cycles
            NFock=  6  Conv=0.90D-10     -V/T= 2.0005
 KE= 2.859718369806D+00 PE=-6.746348472963D+00 EE= 1.025446677042D+00
 Leave Link  502 at Mon Oct  5 21:31:48 2020, MaxMem=   268435456 cpu:               9.2 elap:               1.4
 (Enter /applis/site/cecic/gaussian16/B.01/nehalem/g16/l801.exe)
 Windowed orbitals will be sorted by symmetry type.
 Range of M.O.s used for correlation:     1    23
 NBasis=    23 NAE=     1 NBE=     1 NFC=     0 NFV=     0
 NROrb=     23 NOA=     1 NOB=     1 NVA=    22 NVB=    22
 Leave Link  801 at Mon Oct  5 21:31:48 2020, MaxMem=   268435456 cpu:               0.5 elap:               0.2
 (Enter /applis/site/cecic/gaussian16/B.01/nehalem/g16/l804.exe)
 Closed-shell transformation, MDV=   268435456 ITran=4 ISComp=2.
 Unit  1 TFree=        109941 TCopy=        214317.
 Semi-Direct transformation.
 ModeAB=           2 MOrb=             1 LenV=     268255615
 LASXX=          778 LTotXX=         778 LenRXX=         778
 LTotAB=         995 MaxLAS=        7475 LenRXY=        7475
 NonZer=        8372 LenScr=      720896 LnRSAI=           0
 LnScr1=           0 LExtra=           0 Total=       729149
 MaxDsk=          -1 SrtSym=           F ITran=            4
 DoSDTr:  NPSUse=  8
 JobTyp=0 Pass  1:  I=   1 to   1.
 (rs|ai) integrals will be sorted in core.
 Complete sort for first half transformation.
 First half transformation complete.
 Complete sort for second half transformation.
 Second half transformation complete.
 Spin components of T(2) and E(2):
     alpha-alpha T2 =       0.0000000000D+00 E2=      0.0000000000D+00
     alpha-beta  T2 =       0.5477708624D-02 E2=     -0.3362081500D-01
     beta-beta   T2 =       0.0000000000D+00 E2=      0.0000000000D+00
 ANorm=    0.1002735114D+01
 E2 =    -0.3362081500D-01 EUMP2 =    -0.28948042411193D+01
 Leave Link  804 at Mon Oct  5 21:31:49 2020, MaxMem=   268435456 cpu:               5.8 elap:               1.0
 (Enter /applis/site/cecic/gaussian16/B.01/nehalem/g16/l913.exe)
 CIDS:  MDV=   268435456.
 IFCWin=0 IBDFC=1 NFBD=     0     0 NFCmp=     0     0 NFFFC=     0     0
 Using DD3R+UMP44R for 1st iteration.
 Using DD4RQ for 2nd and later iterations.
 Keep R2 and R3 ints in memory in symmetry-blocked form, NReq=1688690.
 FoFCou: FMM=F IPFlag=           0 FMFlag=           0 FMFlg1=           0
         NFxFlg=           0 DoJE=F BraDBF=F KetDBF=F FulRan=T
         wScrn=  0.000000 ICntrl=       600 IOpCl=  0 I1Cent=           0 NGrid=           0
         NMat0=    1 NMatS0=    276 NMatT0=    0 NMatD0=    1 NMtDS0=    0 NMtDT0=    0
 Petite list used in FoFCou.
 CIDS: In Core Option IDoMem=           1.
 CCSD(T)
 =======
 Iterations=  50 Convergence= 0.100D-06
 Produce multiple copies of IABC intergrals
 Iteration Nr.   1
 **********************
 DD1Dir will call FoFMem   1 times, MxPair=         2
 NAB=     1 NAA=     0 NBB=     0.
 MP4(R+Q)=  0.18416503D-03
 Maximum subspace dimension=  5
 A-vector RMS=  1.1077620D-03 Max=  6.6034471D-03 conv= 1.00D-05.
 RLE energy=       -0.0390018869
 E3=       -0.48229765D-02        EUMP3=      -0.28996272176D+01
 E4(DQ)=   -0.78310596D-03        UMP4(DQ)=   -0.29004103236D+01
 E4(SDQ)=  -0.79587282D-03        UMP4(SDQ)=  -0.29004230905D+01
 VARIATIONAL ENERGIES WITH THE FIRST-ORDER WAVEFUNCTION:
 DE(Corr)= -0.38259463E-01 E(Corr)=     -2.8994428891    
 NORM(A)=   0.10038742D+01
 Iteration Nr.   2
 **********************
 DD1Dir will call FoFMem   1 times, MxPair=         2
 NAB=     1 NAA=     0 NBB=     0.
 A-vector RMS=  3.9032713D-04 Max=  9.6911213D-04 conv= 1.00D-05.
 RLE energy=       -0.0394043244
 DE(Corr)= -0.39291231E-01 E(CORR)=     -2.9004746572     Delta=-1.03D-03
 NORM(A)=   0.10040172D+01
 Iteration Nr.   3
 **********************
 DD1Dir will call FoFMem   1 times, MxPair=         2
 NAB=     1 NAA=     0 NBB=     0.
 A-vector RMS=  1.2782328D-04 Max=  2.1860807D-04 conv= 1.00D-05.
 RLE energy=       -0.0394152761
 DE(Corr)= -0.39407995E-01 E(CORR)=     -2.9005914209     Delta=-1.17D-04
 NORM(A)=   0.10040304D+01
 Iteration Nr.   4
 **********************
 DD1Dir will call FoFMem   1 times, MxPair=         2
 NAB=     1 NAA=     0 NBB=     0.
 A-vector RMS=  1.5078802D-05 Max=  3.5340046D-05 conv= 1.00D-05.
 RLE energy=       -0.0394145414
 DE(Corr)= -0.39414471E-01 E(CORR)=     -2.9005978972     Delta=-6.48D-06
 NORM(A)=   0.10040316D+01
 Iteration Nr.   5
 **********************
 DD1Dir will call FoFMem   1 times, MxPair=         2
 NAB=     1 NAA=     0 NBB=     0.
 A-vector RMS=  2.9019495D-06 Max=  5.8424537D-06 conv= 1.00D-05.
 RLE energy=       -0.0394144677
 DE(Corr)= -0.39414499E-01 E(CORR)=     -2.9005979248     Delta=-2.76D-08
 NORM(A)=   0.10040316D+01
 CI/CC converged in    5 iterations to DelEn=-2.76D-08 Conv= 1.00D-07 ErrA1= 2.90D-06 Conv= 1.00D-05
 Wavefunction amplitudes converged. E(Corr)=     -2.9005979248    
 Largest amplitude= 4.08D-02
 Time for triples=        0.00 seconds.
 T4(CCSD)=  0.00000000D+00
 T5(CCSD)=  0.00000000D+00
 CCSD(T)= -0.29005979248D+01
 Discarding MO integrals.
 Leave Link  913 at Mon Oct  5 21:31:50 2020, MaxMem=   268435456 cpu:               4.7 elap:               0.8
 (Enter /applis/site/cecic/gaussian16/B.01/nehalem/g16/l601.exe)
 Copying SCF densities to generalized density rwf, IOpCl= 0 IROHF=0.

 **********************************************************************

            Population analysis using the SCF Density.

 **********************************************************************

 Orbital symmetries:
       Occupied  (A1G)
       Virtual   (A1G) (T1U) (T1U) (T1U) (A1G) (EG) (T2G) (T2G)
                 (T2G) (EG) (T1U) (T1U) (T1U) (A1G) (EG) (T2G)
                 (T2G) (T2G) (EG) (T1U) (T1U) (T1U)
 The electronic state is 1-A1G.
 Alpha  occ. eigenvalues --   -0.91787
 Alpha virt. eigenvalues --    0.11054   0.42677   0.42677   0.42677   0.83911
 Alpha virt. eigenvalues --    1.52011   1.52011   1.52011   1.52011   1.52011
 Alpha virt. eigenvalues --    1.96209   1.96209   1.96209   4.81649   7.10835
 Alpha virt. eigenvalues --    7.10835   7.10835   7.10835   7.10835   8.22115
 Alpha virt. eigenvalues --    8.22115   8.22115
          Condensed to atoms (all electrons):
               1
     1  He   2.000000
 Mulliken charges:
               1
     1  He   0.000000
 Sum of Mulliken charges =   0.00000
 Mulliken charges with hydrogens summed into heavy atoms:
               1
     1  He   0.000000
 Electronic spatial extent (au):  <R**2>=              2.3742
 Charge=              0.0000 electrons
 Dipole moment (field-independent basis, Debye):
    X=              0.0000    Y=              0.0000    Z=              0.0000  Tot=              0.0000
 Quadrupole moment (field-independent basis, Debye-Ang):
   XX=             -1.0644   YY=             -1.0644   ZZ=             -1.0644
   XY=              0.0000   XZ=              0.0000   YZ=             -0.0000
 Traceless Quadrupole moment (field-independent basis, Debye-Ang):
   XX=              0.0000   YY=              0.0000   ZZ=              0.0000
   XY=              0.0000   XZ=              0.0000   YZ=             -0.0000
 Octapole moment (field-independent basis, Debye-Ang**2):
  XXX=              0.0000  YYY=              0.0000  ZZZ=              0.0000  XYY=              0.0000
  XXY=              0.0000  XXZ=              0.0000  XZZ=              0.0000  YZZ=              0.0000
  YYZ=              0.0000  XYZ=              0.0000
 Hexadecapole moment (field-independent basis, Debye-Ang**3):
 XXXX=             -0.5876 YYYY=             -0.5876 ZZZZ=             -0.5876 XXXY=              0.0000
 XXXZ=              0.0000 YYYX=              0.0000 YYYZ=             -0.0000 ZZZX=              0.0000
 ZZZY=             -0.0000 XXYY=             -0.1959 XXZZ=             -0.1959 YYZZ=             -0.1959
 XXYZ=             -0.0000 YYXZ=              0.0000 ZZXY=              0.0000
 N-N= 0.000000000000D+00 E-N=-6.746348474738D+00  KE= 2.859718369806D+00
 Symmetry AG   KE= 2.859718369806D+00
 Symmetry B1G  KE= 7.132001860736D-62
 Symmetry B2G  KE= 6.180875453365D-62
 Symmetry B3G  KE= 9.167335066117D-62
 Symmetry AU   KE= 0.000000000000D+00
 Symmetry B1U  KE= 0.000000000000D+00
 Symmetry B2U  KE= 0.000000000000D+00
 Symmetry B3U  KE= 0.000000000000D+00
 Leave Link  601 at Mon Oct  5 21:31:51 2020, MaxMem=   268435456 cpu:               2.0 elap:               0.4
 (Enter /applis/site/cecic/gaussian16/B.01/nehalem/g16/l9999.exe)
 1\1\GINC-DAHU112\SP\RCCSD(T)-FC\Aug-CC-pVTZ\He1\TINACCIL\05-Oct-2020\0
 \\#P CCSD(T)/aug-cc-pvtz\\Title\\0,1\He\\Version=ES64L-G16RevB.01\Stat
 e=1-A1G\HF=-2.8611834\MP2=-2.8948042\MP3=-2.8996272\MP4D=-2.9005945\MP
 4DQ=-2.9004103\MP4SDQ=-2.9004231\CCSD=-2.9005979\CCSD(T)=-2.9005979\RM
 SD=8.973e-11\PG=OH [O(He1)]\\@


 BUT 'GLORY' DOESN'T MEAN 'A NICE KNOCK DOWN ARGUMENT', ALICE OBJECTED.
 WHEN I USE A WORD, HUMPTY DUMPTY SAID, IN A RATHER SCORNFUL TONE,
 IT MEANS JUST WHAT I CHOOSE IT TO MEAN....
 NEITHER MORE NOR LESS....
 THE QUESTION IS, SAID ALICE,
 WHETHER YOU CAN MAKE WORDS MEAN SO MANY DIFFERENT THINGS...
 THE QUESTION IS, SAID HUMPTY DUMPTY,
 WHICH IS TO BE MASTER....
 THAT IS ALL.....

 ALICE THROUGH THE LOOKING GLASS
 Job cpu time:       0 days  0 hours  0 minutes 42.8 seconds.
 Elapsed time:       0 days  0 hours  0 minutes  8.1 seconds.
 File lengths (MBytes):  RWF=     18 Int=      0 D2E=      0 Chk=      1 Scr=      1
 Normal termination of Gaussian 16 at Mon Oct  5 21:31:51 2020.
