[Molden Format]
[Title]
[Atoms] AU
C      1     6  0.21380504006794E+01 -0.82218504243944E+00 -0.22346696997240E+00
C      2     6 -0.61750652373374E+00 -0.68453941315676E+00 -0.40185237153451E+00
C      3     6 -0.10240379818872E+01  0.20459532325584E+01 -0.25019575745548E+00
C      4     6  0.14104148611380E+01  0.15604835961879E+01  0.59248634758647E+00
H      5     1 -0.19069188664640E+01 -0.20997123731567E+01  0.28303064109527E+00
[GTO]
           1 0
 s           4   1.0000000000000000     
   51.049363095579913      -0.16312063210127389     
   8.7911227406887544      -0.19911024581000730     
  0.70640422258929825       0.31882047753655751     
  0.26922813413411617       0.12706504184240380     
 p           4   1.0000000000000000     
   5.8263656140800002       0.73716451545209605     
   1.5106896018720002       0.68216371614850257     
  0.53256483288000001       0.35783053929253711     
  0.21202323690600003        5.3983030275847881E-002

           2 0
 s           4   1.0000000000000000     
   51.049363095579913      -0.16312063210127389     
   8.7911227406887544      -0.19911024581000730     
  0.70640422258929825       0.31882047753655751     
  0.26922813413411617       0.12706504184240380     
 p           4   1.0000000000000000     
   5.8263656140800002       0.73716451545209605     
   1.5106896018720002       0.68216371614850257     
  0.53256483288000001       0.35783053929253711     
  0.21202323690600003        5.3983030275847881E-002

           3 0
 s           4   1.0000000000000000     
   51.049363095579913      -0.16312063210127389     
   8.7911227406887544      -0.19911024581000730     
  0.70640422258929825       0.31882047753655751     
  0.26922813413411617       0.12706504184240380     
 p           4   1.0000000000000000     
   5.8263656140800002       0.73716451545209605     
   1.5106896018720002       0.68216371614850257     
  0.53256483288000001       0.35783053929253711     
  0.21202323690600003        5.3983030275847881E-002

           4 0
 s           4   1.0000000000000000     
   51.049363095579913      -0.16312063210127389     
   8.7911227406887544      -0.19911024581000730     
  0.70640422258929825       0.31882047753655751     
  0.26922813413411617       0.12706504184240380     
 p           4   1.0000000000000000     
   5.8263656140800002       0.73716451545209605     
   1.5106896018720002       0.68216371614850257     
  0.53256483288000001       0.35783053929253711     
  0.21202323690600003        5.3983030275847881E-002

           5 0
 s           3   1.0000000000000000     
   3.3702276975336001       0.27359110588908298     
  0.61389118221497996       0.26460540653860526     
  0.16614291148415999        8.2465947534082318E-002

[MO]
Sym=     1a
Ene=  -0.71120563381860424     
Spin= Alpha
Occup=     2.00000000
           1  0.27018687805711666     
           2 -0.10699911558845221     
           3   8.1935602246587566E-002
           4   1.8961128463655063E-002
           5  0.34344367144334825     
           6  0.10708116714176044     
           7  0.11841596074387188     
           8   3.8592748643474006E-002
           9  0.27018837125837325     
          10   9.1770596724395220E-002
          11  -9.8356548366490090E-002
          12   2.0641385156177586E-002
          13  0.35256308423219762     
          14 -0.10030080549833205     
          15 -0.11121417128969378     
          16  -6.8071504144899431E-002
          17   5.3567431600806667E-002
Sym=     2a
Ene=  -0.62377397043428640     
Spin= Alpha
Occup=     2.00000000
           1 -0.45541240832725238     
           2   3.5570272426429121E-002
           3  -2.0809307709636269E-002
           4  -3.1647469659286817E-002
           5   1.2960357569147383E-006
           6 -0.24332613639868797     
           7  0.22070493185648227     
           8  -2.0568625653934959E-003
           9  0.45541246520524620     
          10   2.3872584502584199E-002
          11  -3.3109832109397032E-002
          12   3.2149534146812500E-002
          13  -2.4618426467310794E-006
          14 -0.25841024931824991     
          15  0.23438844464399172     
          16  -2.1840505232821185E-003
          17   1.4287858892129637E-006
Sym=     3a
Ene=  -0.61133269107874011     
Spin= Alpha
Occup=     2.00000000
           1  -5.4071635733508379E-002
           2 -0.11200454682872574     
           3 -0.15458885571304146     
           4  -3.3363997994698108E-002
           5  0.47560671976696706     
           6 -0.17133634327900374     
           7 -0.18876342470345497     
           8   1.4399882032645342E-002
           9  -5.4075723277568266E-002
          10 -0.14265260628569568     
          11 -0.12679142015812780     
          12  -3.3623527702593504E-002
          13 -0.35247294923937889     
          14  -5.1761615768082282E-002
          15  -5.6791442673303244E-002
          16   2.9832435243602493E-002
          17  0.35588773005879670     
Sym=     4a
Ene=  -0.54001748040546926     
Spin= Alpha
Occup=     2.00000000
           1 -0.10014204296461846     
           2   7.5683805250116518E-002
           3   7.2988927576102564E-002
           4  0.27263648074075775     
           5  -7.9582723816938830E-002
           6 -0.17341033371355027     
           7 -0.18776125457800397     
           8  0.36716615729073299     
           9 -0.10014209421892624     
          10   6.2754065900357453E-002
          11   8.4717568557524200E-002
          12  0.27252870359497894     
          13  0.39640108679027741     
          14   6.0560241634245941E-002
          15   6.9721053817347056E-002
          16  0.31689842964260850     
          17  0.25571618019285769     
Sym=     5a
Ene=  -0.50756458869150944     
Spin= Alpha
Occup=     2.00000000
           1  -1.6225612866486165E-003
           2 -0.26097553512532962     
           3 -0.29640884018526653     
           4 -0.12898322997139269     
           5   9.3076548271505832E-007
           6  0.33813416773910532     
           7 -0.30669971167752003     
           8   2.8591824806507632E-003
           9   1.6212902650763604E-003
          10  0.26842387704344195     
          11  0.28965089113211817     
          12  0.12904746417331145     
          13  -2.3763989993912891E-006
          14 -0.29582094957776095     
          15  0.26831797045449590     
          16  -2.4998795783357751E-003
          17  -9.9744209286380588E-007
Sym=     6a
Ene=  -0.50406362344199229     
Spin= Alpha
Occup=     2.00000000
           1   1.6281237075911458E-002
           2  0.14715920783730721     
           3  0.17122524402420450     
           4 -0.19551023112778154     
           5   7.2155828667207919E-002
           6 -0.19845192602426534     
           7 -0.22153441133749444     
           8 -0.29409965543024086     
           9   1.6281376227401081E-002
          10  0.15791616803052838     
          11  0.16147366467468907     
          12 -0.19541932033889778     
          13  0.30624766393348013     
          14  0.28507953333740560     
          15  0.31167277218038647     
          16 -0.28183846670446988     
          17  0.26510859244520268     
Sym=     7a
Ene=  -0.45474908358475280     
Spin= Alpha
Occup=     2.00000000
           1 -0.54499335671131710     
           2 -0.32858684843976571     
           3  0.27082976617645932     
           4  -2.6597294786829213E-002
           5  0.12951615981712294     
           6   5.7693277846435617E-002
           7   6.2931722087297776E-002
           8  -7.2659674994106527E-002
           9 -0.54499600667491532     
          10  0.30172930050351393     
          11 -0.30089413868049758     
          12  -2.1268764528164057E-002
          13  0.11912252845453515     
          14  -1.4795175166224099E-002
          15  -1.6552366376059776E-002
          16  -2.6039826106821734E-002
          17  -5.5355972172937605E-002
Sym=     8a
Ene=  -0.38879132573773201     
Spin= Alpha
Occup=     1.00000000
           1 -0.34060114836276362     
           2 -0.43468199378295647     
           3  0.26702520687729908     
           4  0.28889483842570912     
           5   6.5091229683636748E-006
           6  0.16327942484044086     
           7 -0.14809928038084313     
           8   1.3655857099313373E-003
           9  0.34059709405546945     
          10 -0.30533453432465335     
          11  0.40418538175277929     
          12 -0.29514929140722507     
          13   8.0290969951448335E-006
          14  0.16740114348978333     
          15 -0.15183171716249041     
          16   1.4318354336904683E-003
          17  -4.9602190184391261E-006
Sym=     9a
Ene=  -0.38696195881219175     
Spin= Alpha
Occup=     1.00000000
           1  -2.5226104490565230E-002
           2   9.1685912955714710E-002
           3  0.18947354059919927     
           4  -2.8065889600031840E-002
           5 -0.22287596985557226     
           6  -2.9044606161519694E-002
           7  -2.6675079611525876E-002
           8  0.57450426783559438     
           9  -2.5208615313512928E-002
          10  0.17989824759483711     
          11  0.10946743882294767     
          12  -2.7334350635208910E-002
          13 -0.28429714132215717     
          14 -0.17033574397738274     
          15 -0.19371695296073341     
          16 -0.63467132268109849     
          17  0.18653923775040115     
Sym=    10a
Ene=  -0.34342900499473289     
Spin= Alpha
Occup=     1.00000000
           1   5.9687912683123664E-002
           2  0.10681770136111972     
           3 -0.36513510026904705     
           4  0.60758154523412133     
           5  -8.4164498038034831E-007
           6  -6.0438935471212867E-002
           7   5.4820155455906211E-002
           8  -5.0929216272951720E-004
           9  -5.9686388147799203E-002
          10  0.37940997629455991     
          11  -7.5890260785380317E-002
          12 -0.60347388985994954     
          13  -4.7513058682675223E-007
          14  -6.0113206905586476E-002
          15   5.4523087718577820E-002
          16  -5.0659633833775798E-004
          17   7.2138261358461973E-007
Sym=    11a
Ene=  -0.27755660683479716     
Spin= Alpha
Occup=     0.00000000
           1  -4.6063871706895371E-003
           2 -0.23513082726667769     
           3 -0.28970640448560520     
           4 -0.13000445775837649     
           5   7.1748594679880026E-002
           6  0.15866364724230536     
           7  0.18009238203542011     
           8  0.55466435034830075     
           9  -4.6062083947261585E-003
          10 -0.26425678020536580     
          11 -0.26328787650596885     
          12 -0.13025219393223361     
          13  0.15221179477268720     
          14  0.48167884410116607     
          15  0.52952268550746562     
          16 -0.16343693527957490     
          17 -0.12244606806031921     
Sym=    12a
Ene=  -0.20871172385562173     
Spin= Alpha
Occup=     0.00000000
           1   1.2399355202546807E-002
           2   7.3961197408054874E-002
           3  0.11995336231538931     
           4 -0.62111702205945174     
           5 -0.13317076800295599     
           6   4.8222548571060002E-002
           7   5.6389995078350026E-002
           8  0.34607717367472196     
           9   1.2398745840801185E-002
          10  0.11794850073215810     
          11   8.0053575036112629E-002
          12 -0.62074149607716467     
          13   8.1397884651262908E-002
          14 -0.15112687401934863     
          15 -0.16107529730063691     
          16  0.59447711139918680     
          17  0.15700590471772968     
Sym=    13a
Ene=    4.8476275285922278E-002
Spin= Alpha
Occup=     0.00000000
           1  -7.4270970233647413E-002
           2  0.42422259290427622     
           3  0.29856454860811366     
           4   6.1034955896932176E-002
           5   1.0151327740942924     
           6   8.8725189188999382E-002
           7  0.10032326198967122     
           8  0.26928559253038581     
           9  -7.4267190753002990E-002
          10  0.25532949889248380     
          11  0.45175248864366946     
          12   5.9607487179528948E-002
          13 -0.40904080224963058     
          14  0.18141697332665296     
          15  0.20161547605687727     
          16  0.17248407100150204     
          17 -0.55711030911138615     
Sym=    14a
Ene=   0.11734276294148346     
Spin= Alpha
Occup=     0.00000000
           1  0.22647835956526771     
           2 -0.58060221838769088     
           3 -0.34375998830960358     
           4 -0.15656360298411903     
           5   2.4457940728976428E-006
           6 -0.70678472233239842     
           7  0.64108845675313197     
           8  -5.9743119280915684E-003
           9 -0.22647865558066313     
          10  0.28422314223330791     
          11  0.61259326270470449     
          12  0.15406016121628546     
          13  -3.6109232641094516E-006
          14  0.29024274135105882     
          15 -0.26325703575085246     
          16   2.4549766005352446E-003
          17   1.9133703162768346E-006
Sym=    15a
Ene=   0.24472227323434362     
Spin= Alpha
Occup=     0.00000000
           1   2.2773098946021319E-002
           2   9.4025219013871369E-002
           3  0.19830914911817282     
           4  0.16617106635541704     
           5 -0.25284371269543243     
           6  0.68549893400262241     
           7  0.75380702614532091     
           8 -0.20790826447929497     
           9   2.2779143743285747E-002
          10  0.18668009361819818     
          11  0.11426190969380383     
          12  0.16695424646383347     
          13 -0.50124205719687631     
          14  0.27023829227572627     
          15  0.29986235241967379     
          16  0.20719251867893423     
          17  0.97647294178267174     
Sym=    16a
Ene=   0.34904043364661569     
Spin= Alpha
Occup=     0.00000000
           1 -0.62136000452370177     
           2  0.23723857440091539     
           3 -0.52515171162984631     
           4 -0.22484046898367405     
           5  -5.7901512351497388E-006
           6  0.25544653868553524     
           7 -0.23171476414974052     
           8   2.1603420802153851E-003
           9  0.62137324867604282     
          10  0.54363058988993862     
          11 -0.18313217860195041     
          12  0.23144076930711685     
          13  -5.3956833789738815E-006
          14  0.76918029161370927     
          15 -0.69767273692609943     
          16   6.5044686642616234E-003
          17  -5.1602195056253264E-006
Sym=    17a
Ene=   0.44335485564690813     
Spin= Alpha
Occup=     0.00000000
           1  0.57563856153344972     
           2 -0.50917594775235653     
           3  0.50526425918999607     
           4   7.0918034365784671E-002
           5 -0.33642743450182166     
           6 -0.38044484314703408     
           7 -0.41882887860812373     
           8   6.4533070980226606E-002
           9  0.57562304293133193     
          10  0.55167808822440267     
          11 -0.45698107414206934     
          12   7.9879512882749248E-002
          13 -0.73861121079304781     
          14  0.29609636612494145     
          15  0.32950034088229557     
          16  0.32603310876271796     
          17 -0.26456384660883736     
