 Entering Gaussian System
 *********************************************
 Gaussian 98:
 frequency output generated by the xtb code
 *********************************************
                         Standard orientation:
 --------------------------------------------------------------------
  Center     Atomic     Atomic              Coordinates (Angstroms)
  Number     Number      Type              X           Y           Z
 --------------------------------------------------------------------
    1          6             0        1.131408   -0.435082   -0.118254
    2          6             0       -0.326770   -0.362243   -0.212651
    3          6             0       -0.541898    1.082672   -0.132398
    4          6             0        0.746359    0.825772    0.313530
    5          1             0       -1.009098   -1.111120    0.149773
 --------------------------------------------------------------------
     1 basis functions        1 primitive gaussians
     1 alpha electrons        1 beta electrons

 Harmonic frequencies (cm**-1), IR intensities (KM/Mole),
 Raman scattering activities (A**4/amu), Raman depolarization ratios,
 reduced masses (AMU), force constants (mDyne/A) and normal coordinates:
                      1                      2                      3
                        a                      a                      a 
 Frequencies --   506.9589               636.0783               803.8123
 Red. masses --    11.9833                 8.4041                 7.1749
 Frc consts  --     0.0000                 0.0000                 0.0000
 IR Inten    --     0.3392                 0.3330                 0.2441
 Raman Activ --     0.0000                 0.0000                 0.0000
 Depolar     --     0.0000                 0.0000                 0.0000
 Atom AN      X      Y      Z        X      Y      Z        X      Y      Z
   1   6     0.03   0.10  -0.48     0.37  -0.05   0.06    -0.25   0.21  -0.06
   2   6     0.05   0.05   0.45     0.07   0.07  -0.15    -0.18  -0.20  -0.35
   3   6     0.10   0.03  -0.48    -0.09   0.36   0.06     0.23  -0.23  -0.05
   4   6    -0.17  -0.19   0.49    -0.39  -0.43  -0.13     0.17   0.19   0.27
   5   1    -0.00  -0.00   0.05     0.15   0.17   0.53     0.11   0.13   0.64
                      4                      5                      6
                        a                      a                      a 
 Frequencies --   859.4707               935.8117               954.4899
 Red. masses --    10.5579                11.0153                 3.7011
 Frc consts  --     0.0000                 0.0000                 0.0000
 IR Inten    --     0.3184                 0.5073                 0.4869
 Raman Activ --     0.0000                 0.0000                 0.0000
 Depolar     --     0.0000                 0.0000                 0.0000
 Atom AN      X      Y      Z        X      Y      Z        X      Y      Z
   1   6    -0.32  -0.11  -0.10    -0.20  -0.42  -0.05     0.33   0.07  -0.03
   2   6     0.54  -0.49   0.00     0.44   0.48  -0.06    -0.10   0.09  -0.00
   3   6     0.08   0.33   0.10    -0.40  -0.24  -0.05    -0.03  -0.33   0.03
   4   6    -0.22   0.20  -0.00     0.11   0.12   0.12    -0.01   0.01  -0.00
   5   1    -0.27   0.24  -0.00     0.16   0.18   0.17    -0.64   0.58  -0.01
                      7                      8                      9
                        a                      a                      a 
 Frequencies --  1290.4245              1393.4735              3070.7721
 Red. masses --    11.7914                11.8634                 1.8606
 Frc consts  --     0.0000                 0.0000                 0.0000
 IR Inten    --     1.3565                 0.2839                 0.0198
 Raman Activ --     0.0000                 0.0000                 0.0000
 Depolar     --     0.0000                 0.0000                 0.0000
 Atom AN      X      Y      Z        X      Y      Z        X      Y      Z
   1   6    -0.21   0.41   0.12     0.38  -0.36  -0.10    -0.00   0.01  -0.00
   2   6     0.14  -0.13   0.00    -0.26  -0.29  -0.08     0.18   0.20  -0.08
   3   6    -0.43   0.16  -0.13    -0.40   0.35  -0.10     0.01  -0.00  -0.00
   4   6     0.52  -0.47   0.00     0.29   0.32   0.26    -0.01  -0.01  -0.01
   5   1    -0.10   0.10   0.00    -0.07  -0.07   0.06    -0.61  -0.67   0.31
