5
 energy: -8.572580714568 gnorm: 0.159976545246 xtb: 6.2.2 (9d81278992624c895f80dd42a50cac0aa55982e2)
C         1.21990200000000   -0.50164200000000   -0.25053600000000
C        -0.27910600000000   -0.31106500000000   -0.35973900000000
C        -0.61551400000000    1.16317400000000   -0.26605600000000
C         0.53546100000000    0.59535300000000    0.53638600000000
H        -0.86074200000000   -0.94582000000000    0.33994600000000
5
 energy: -8.616087082443 gnorm: 0.099143763305 xtb: 6.2.2 (9d81278992624c895f80dd42a50cac0aa55982e2)
C         1.17321477735412   -0.49379180989039   -0.17999293192177
C        -0.29207453231367   -0.32500467850325   -0.32111904845226
C        -0.60382317453563    1.11805628322259   -0.19501884781807
C         0.64391013176424    0.71400621299561    0.43912426351378
H        -0.92122620226905   -1.01326600782455    0.25700756467832
5
 energy: -8.628494324967 gnorm: 0.073430162262 xtb: 6.2.2 (9d81278992624c895f80dd42a50cac0aa55982e2)
C         1.11732436789117   -0.39063102207942   -0.16422124688861
C        -0.33228780055290   -0.36884629044898   -0.26834271151320
C        -0.49587470956257    1.07259096506839   -0.17786151974403
C         0.69397374023047    0.76878108302834    0.39460142144140
H        -0.98313459800617   -1.08189473556833    0.21582505670445
5
 energy: -8.634560229033 gnorm: 0.020551209169 xtb: 6.2.2 (9d81278992624c895f80dd42a50cac0aa55982e2)
C         1.12774389182765   -0.44395627956856   -0.12365772772757
C        -0.32264025536206   -0.35815294127770   -0.26210159885292
C        -0.55033481450821    1.07811176336053   -0.13784636128657
C         0.73560481373032    0.81421429625091    0.34477845211879
H        -0.99037263568770   -1.09021683876518    0.17882823574826
5
 energy: -8.635056320577 gnorm: 0.012310094334 xtb: 6.2.2 (9d81278992624c895f80dd42a50cac0aa55982e2)
C         1.12774069648616   -0.43636099741582   -0.12019064552138
C        -0.32724469041686   -0.36310092684119   -0.24843828838704
C        -0.54280640050915    1.07887836647396   -0.13431596288145
C         0.74259334848422    0.82181395711378    0.33332420455143
H        -1.00028195404437   -1.10123039933073    0.16962169223843
5
 energy: -8.635307906447 gnorm: 0.006787733677 xtb: 6.2.2 (9d81278992624c895f80dd42a50cac0aa55982e2)
C         1.12910485985190   -0.43213073730343   -0.11647911388560
C        -0.33032283898026   -0.36633665886260   -0.23145260033741
C        -0.53876322084808    1.08067827434540   -0.13058138364621
C         0.74757801863335    0.82718588867330    0.31997338595863
H        -1.00759581865691   -1.10939676685267    0.15854071191060
5
 energy: -8.635384570479 gnorm: 0.004471231524 xtb: 6.2.2 (9d81278992624c895f80dd42a50cac0aa55982e2)
C         1.13053674120899   -0.43255864919517   -0.11590841414728
C        -0.32975572949017   -0.36562438172034   -0.22198539553889
C        -0.53933476581620    1.08206580455193   -0.13002753131084
C         0.74812646542719    0.82773855708082    0.31451722084069
H        -1.00957171132981   -1.11162133071723    0.15340512015632
5
 energy: -8.635422959268 gnorm: 0.001567467719 xtb: 6.2.2 (9d81278992624c895f80dd42a50cac0aa55982e2)
C         1.13160716766377   -0.43420430858768   -0.11694976422543
C        -0.32787058173907   -0.36347380644964   -0.21429083790811
C        -0.54106538453440    1.08296363887581   -0.13109248180891
C         0.74700247669556    0.82648010576067    0.31224626715454
H        -1.00967267808585   -1.11176562959916    0.15008781678791
5
 energy: -8.635427013832 gnorm: 0.000657509286 xtb: 6.2.2 (9d81278992624c895f80dd42a50cac0aa55982e2)
C         1.13141034361617   -0.43507549754320   -0.11825044885425
C        -0.32676777126428   -0.36224403082841   -0.21265290976455
C        -0.54190282008133    1.08266931938889   -0.13239790737818
C         0.74635405350396    0.82577579440400    0.31353434852338
H        -1.00909280577452   -1.11112558542126    0.14976791747361
