$hessian                                                                        
        0.3007640260  -0.1511090371  -0.0331895323  -0.2003052163  -0.0321520400
       -0.0037397086  -0.0723232893   0.0720012875  -0.0110474488  -0.0080642106
        0.1086845916   0.0511690443  -0.0200713098   0.0025751980  -0.0031923546
       -0.1511090371   0.3335720044   0.0706244475   0.0255670371  -0.0149043306
        0.0168317281   0.0732430524  -0.0583144663  -0.0095111116   0.0701318737
       -0.2637999560  -0.0775641173  -0.0178329260   0.0034467486  -0.0003809467
       -0.0331895323   0.0706244475   0.0525012468   0.0098244167   0.0184468172
       -0.0136989670  -0.0099465054  -0.0105486525   0.0229795680   0.0306471793
       -0.0776839413  -0.0573113902   0.0026644417  -0.0008386709  -0.0044704576
       -0.2003052163   0.0255670371   0.0098244167   0.4006517607   0.2054179627
       -0.0362747787  -0.0163244672  -0.0139943678   0.0175212147  -0.0505709644
       -0.0897136896  -0.0567702213  -0.1334511128  -0.1272769424   0.0656993686
       -0.0321520400  -0.0149043306   0.0184468172   0.2054179627   0.4401409543
       -0.0408493340   0.0436271792  -0.1991304433   0.0135297076  -0.0895475790
       -0.0689403995  -0.0630828326  -0.1273455230  -0.1571657808   0.0719556417
       -0.0037397086   0.0168317281  -0.0136989670  -0.0362747787  -0.0408493340
        0.1016513285   0.0171545401  -0.0008959242  -0.0133433444  -0.0367499309
       -0.0404327186  -0.0173813051   0.0596098781   0.0653462487  -0.0572277120
       -0.0723232893   0.0732430524  -0.0099465054  -0.0163244672   0.0436271792
        0.0171545401   0.3611254079  -0.1441966164   0.0775462857  -0.2771737553
        0.0427714321  -0.0846682308   0.0046961039  -0.0154450474  -0.0000860896
        0.0720012875  -0.0583144663  -0.0105486525  -0.0139943678  -0.1991304433
       -0.0008959242  -0.1441966164   0.2713704822  -0.0293212831   0.0811617947
        0.0073884477   0.0436594116   0.0050279020  -0.0213140202  -0.0028935519
       -0.0110474488  -0.0095111116   0.0229795680   0.0175212147   0.0135297076
       -0.0133433444   0.0775462857  -0.0293212831   0.0543393875  -0.0829617096
        0.0227354178  -0.0594299437  -0.0010583420   0.0025672692  -0.0045456673
       -0.0080642106   0.0701318737   0.0306471793  -0.0505709644  -0.0895475790
       -0.0367499309  -0.2771737553   0.0811617947  -0.0829617096   0.3408201863
       -0.0673262561   0.0870123599  -0.0050112560   0.0055801667   0.0020521013
        0.1086845916  -0.2637999560  -0.0776839413  -0.0897136896  -0.0689403995
       -0.0404327186   0.0427714321   0.0073884477   0.0227354178  -0.0673262561
        0.3292427594   0.0931605037   0.0055839219  -0.0038908515   0.0022207385
        0.0511690443  -0.0775641173  -0.0573113902  -0.0567702213  -0.0630828326
       -0.0173813051  -0.0846682308   0.0436594116  -0.0594299437   0.0870123599
        0.0931605037   0.1180893583   0.0032570479   0.0038270346   0.0160332807
       -0.0200713098  -0.0178329260   0.0026644417  -0.1334511128  -0.1273455230
        0.0596098781   0.0046961039   0.0050279020  -0.0010583420  -0.0050112560
        0.0055839219   0.0032570479   0.1538375747   0.1345666251  -0.0644730257
        0.0025751980   0.0034467486  -0.0008386709  -0.1272769424  -0.1571657808
        0.0653462487  -0.0154450474  -0.0213140202   0.0025672692   0.0055801667
       -0.0038908515   0.0038270346   0.1345666251   0.1789239040  -0.0709018816
       -0.0031923546  -0.0003809467  -0.0044704576   0.0656993686   0.0719556417
       -0.0572277120  -0.0000860896  -0.0028935519  -0.0045456673   0.0020521013
        0.0022207385   0.0160332807  -0.0644730257  -0.0709018816   0.0502105562
