 Entering Gaussian System
 *********************************************
 Gaussian 98:
 frequency output generated by the xtb code
 *********************************************
                         Standard orientation:
 --------------------------------------------------------------------
  Center     Atomic     Atomic              Coordinates (Angstroms)
  Number     Number      Type              X           Y           Z
 --------------------------------------------------------------------
    1          7             0       -0.571137   -0.437252    0.216695
    2          6             0        0.571513    0.315531    0.078753
    3          6             0       -0.553358    1.024655    0.358423
    4          1             0       -1.030184   -0.998654   -0.488628
    5          1             0        1.583167    0.095720   -0.165243
 --------------------------------------------------------------------
     1 basis functions        1 primitive gaussians
     1 alpha electrons        1 beta electrons

 Harmonic frequencies (cm**-1), IR intensities (KM/Mole),
 Raman scattering activities (A**4/amu), Raman depolarization ratios,
 reduced masses (AMU), force constants (mDyne/A) and normal coordinates:
                      1                      2                      3
                        a                      a                      a 
 Frequencies --   601.5127               747.6423               827.4404
 Red. masses --     3.5698                 9.0506                 4.7774
 Frc consts  --     0.0000                 0.0000                 0.0000
 IR Inten    --     0.0522                 0.1871                 0.3805
 Raman Activ --     0.0000                 0.0000                 0.0000
 Depolar     --     0.0000                 0.0000                 0.0000
 Atom AN      X      Y      Z        X      Y      Z        X      Y      Z
   1   7     0.04  -0.04   0.02     0.10  -0.30  -0.12    -0.19   0.37  -0.19
   2   6    -0.09   0.09  -0.44    -0.41  -0.19   0.01     0.17   0.07  -0.02
   3   6     0.02  -0.01   0.15     0.23   0.57   0.11    -0.05  -0.20   0.14
   4   1    -0.10  -0.00   0.08     0.33  -0.38   0.02     0.30  -0.65   0.34
   5   1     0.17  -0.15   0.84    -0.05   0.19   0.03    -0.02  -0.25  -0.04
                      4                      5                      6
                        a                      a                      a 
 Frequencies --   905.1688               940.4690              1235.7050
 Red. masses --     2.0076                 5.1303                12.5509
 Frc consts  --     0.0000                 0.0000                 0.0000
 IR Inten    --     0.2390                 0.2347                 0.4041
 Raman Activ --     0.0000                 0.0000                 0.0000
 Depolar     --     0.0000                 0.0000                 0.0000
 Atom AN      X      Y      Z        X      Y      Z        X      Y      Z
   1   7    -0.02   0.02  -0.22     0.37  -0.16  -0.22    -0.43  -0.46   0.02
   2   6     0.06  -0.11   0.11    -0.11   0.13   0.18     0.08   0.61   0.08
   3   6     0.07  -0.04  -0.03    -0.12   0.22   0.01     0.42  -0.07  -0.08
   4   1    -0.55  -0.17   0.46    -0.42  -0.02   0.29    -0.08  -0.11  -0.01
   5   1     0.15   0.59   0.06    -0.19  -0.60  -0.09    -0.04  -0.05  -0.03
                      7                      8                      9
                        a                      a                      a 
 Frequencies --  1604.7328              3215.2356              3320.4482
 Red. masses --    11.6541                 2.0056                 1.8401
 Frc consts  --     0.0000                 0.0000                 0.0000
 IR Inten    --     0.4094                 0.1436                 0.0405
 Raman Activ --     0.0000                 0.0000                 0.0000
 Depolar     --     0.0000                 0.0000                 0.0000
 Atom AN      X      Y      Z        X      Y      Z        X      Y      Z
   1   7     0.22   0.30  -0.02     0.00   0.01  -0.00     0.12   0.14   0.17
   2   6    -0.61   0.10   0.12    -0.29   0.06   0.07    -0.01   0.01   0.01
   3   6     0.43  -0.45  -0.13     0.02  -0.03  -0.01     0.01  -0.00   0.00
   4   1     0.04   0.06   0.04     0.01   0.01   0.01    -0.45  -0.55  -0.65
   5   1    -0.22   0.03   0.05     0.91  -0.19  -0.22     0.01  -0.01  -0.00
