[Molden Format]
[Title]
[Atoms] AU
N      1     7 -0.10792925555871E+01 -0.82628593721441E+00  0.40949441325230E+00
C      2     6  0.10800026121800E+01  0.59626695315512E+00  0.14882180284455E+00
C      3     6 -0.10456954447454E+01  0.19363162417924E+01  0.67732075815149E+00
H      4     1 -0.19467659979309E+01 -0.18871814735459E+01 -0.92337365179033E+00
H      5     1  0.29917513860834E+01  0.18088421581281E+00 -0.31226332245801E+00
[GTO]
           1 0
 s           4   1.0000000000000000     
   63.594024466941008      -0.19234388414721629     
   10.951417231523665      -0.23478107924953728     
  0.87999310257376984       0.37593753901700888     
  0.33538715296521110       0.14982889271862770     
 p           4   1.0000000000000000     
   7.2965040481495080       0.97658666315667420     
   1.8918745450712575       0.90372226730345739     
  0.66694432110824120       0.47404958461536373     
  0.26552202674130870        7.1516067715011844E-002

           2 0
 s           4   1.0000000000000000     
   51.049363095579913      -0.16312063210127389     
   8.7911227406887544      -0.19911024581000730     
  0.70640422258929825       0.31882047753655751     
  0.26922813413411617       0.12706504184240380     
 p           4   1.0000000000000000     
   5.8263656140800002       0.73716451545209605     
   1.5106896018720002       0.68216371614850257     
  0.53256483288000001       0.35783053929253711     
  0.21202323690600003        5.3983030275847881E-002

           3 0
 s           4   1.0000000000000000     
   51.049363095579913      -0.16312063210127389     
   8.7911227406887544      -0.19911024581000730     
  0.70640422258929825       0.31882047753655751     
  0.26922813413411617       0.12706504184240380     
 p           4   1.0000000000000000     
   5.8263656140800002       0.73716451545209605     
   1.5106896018720002       0.68216371614850257     
  0.53256483288000001       0.35783053929253711     
  0.21202323690600003        5.3983030275847881E-002

           4 0
 s           3   1.0000000000000000     
   3.3702276975336001       0.27359110588908298     
  0.61389118221497996       0.26460540653860526     
  0.16614291148415999        8.2465947534082318E-002

           5 0
 s           3   1.0000000000000000     
   3.3702276975336001       0.27359110588908298     
  0.61389118221497996       0.26460540653860526     
  0.16614291148415999        8.2465947534082318E-002

[MO]
Sym=     1a
Ene=  -0.69223594963106627     
Spin= Alpha
Occup=     2.00000000
           1  0.38957878517266203     
           2  0.13590315498776687     
           3  0.21062398454495510     
           4  -2.8648652077553575E-002
           5  0.36462397955386899     
           6 -0.19110958197183142     
           7  -2.4295442834493499E-002
           8   2.2423122878802205E-002
           9  0.32459488372774026     
          10   6.2661736270502033E-002
          11 -0.12510021141258570     
          12  -3.2046688591333208E-002
          13   4.7706115017311257E-002
          14   4.7287276077965477E-002
Sym=     2a
Ene=  -0.60292616260294507     
Spin= Alpha
Occup=     2.00000000
           1 -0.47886521218151590     
           2  0.14283358327047430     
           3  0.25884234304190784     
           4  0.20437631012672131     
           5  0.19312690611338346     
           6   3.4909856311388959E-002
           7  0.16946010104717768     
           8   7.6739727015510045E-002
           9  0.21252972747051335     
          10  0.10519972091855691     
          11   3.6287722013077846E-002
          12   2.8388732881634245E-002
          13 -0.38371211412535505     
          14   7.5422952129475404E-002
Sym=     3a
Ene=  -0.58065332902257361     
Spin= Alpha
Occup=     2.00000000
           1  -3.0251418938404266E-002
           2  0.27170495458800303     
           3 -0.19913846651190525     
           4  -8.8866045505566649E-002
           5  0.39599976360518974     
           6  0.26352421102652207     
           7 -0.18415575589643488     
           8  -8.3233872488531702E-002
           9 -0.32228586202544585     
          10  0.10265576501935351     
          11   3.9863187764882145E-002
          12  -1.8160870253750221E-002
          13   2.6066501311352238E-002
          14  0.36928778257697359     
Sym=     4a
Ene=  -0.53543931483953655     
Spin= Alpha
Occup=     2.00000000
           1 -0.22394180646247541     
           2 -0.33526218453484186     
           3   3.5231419027249168E-002
           4 -0.39626498863821902     
           5  0.12040483109254996     
           6  0.11480691430480468     
           7  0.35466032809755460     
           8 -0.26097042659570280     
           9  0.28496947395038968     
          10   3.1995217364162068E-002
          11  0.13915242887679050     
          12 -0.18641765370931954     
          13  0.21810425319702401     
          14  0.15878286402278324     
Sym=     5a
Ene=  -0.49906202038722314     
Spin= Alpha
Occup=     2.00000000
           1 -0.22519145580466149     
           2  0.38286478602523477     
           3  0.15822125169338858     
           4 -0.44249794633927919     
           5  -5.9005498622990267E-002
           6 -0.30572905992360339     
           7 -0.16737429565192985     
           8 -0.30209687762200055     
           9 -0.19469777477914701     
          10   3.5244121506789509E-002
          11  -6.9414440250022873E-003
          12 -0.25422455470583916     
          13 -0.11341153402009869     
          14 -0.24235783239705483     
Sym=     6a
Ene=  -0.46126822777085641     
Spin= Alpha
Occup=     2.00000000
           1   3.4083662629856265E-002
           2 -0.26951142416159102     
           3  0.47398545674327414     
           4   1.8334188020893746E-002
           5  -8.8785744464383726E-002
           6  0.16974379989457505     
           7 -0.24069048646948862     
           8 -0.22463301449541762     
           9 -0.10021632727387085     
          10 -0.42448153945199435     
          11 -0.31239943590793656     
          12  -7.4886468249524399E-002
          13 -0.16387096575885812     
          14  0.24636791732402755     
Sym=     7a
Ene=  -0.40060720337017469     
Spin= Alpha
Occup=     2.00000000
           1   4.2583040962158251E-002
           2 -0.26402099606684165     
           3  0.14181267682836329     
           4   5.4665235876783271E-002
           5  0.11333295214601768     
           6  -2.6985450343197055E-002
           7  0.33364161169275752     
           8   4.8322873737720817E-002
           9 -0.61424522913409818     
          10  0.43236698380528893     
          11 -0.45610268444808832     
          12 -0.11827618806012179     
          13   5.7952961727908677E-003
          14  -9.6069461983207108E-002
Sym=     8a
Ene=  -0.34703867813504657     
Spin= Alpha
Occup=     1.00000000
           1  0.31440397340589005     
           2   7.0421192485736351E-003
           3 -0.28113748777122494     
           4  0.58824058403064527     
           5  -1.1246891687868030E-002
           6  -9.2582833357348848E-002
           7  0.13938341619851358     
           8 -0.54347569189546729     
           9   2.0231870841472304E-002
          10  -1.0826445856256632E-002
          11  0.12814769270351700     
          12 -0.44740820896083966     
          13 -0.22463571286838568     
          14   1.2211442535233503E-002
Sym=     9a
Ene=  -0.24108446535522410     
Spin= Alpha
Occup=     0.00000000
           1   1.4223313534415956E-002
           2   6.2584559423290765E-004
           3  -7.8125304244296510E-003
           4   1.7038816290119219E-002
           5  -1.7644500925474350E-002
           6 -0.14319182539768602     
           7   7.5713974476363785E-002
           8 -0.70058098885990727     
           9   1.6344377275664061E-003
          10  0.16207003808213311     
          11  -7.9956507898940793E-002
          12  0.83699431405584579     
          13  -1.3918289925369583E-002
          14   1.1541288915355429E-002
Sym=    10a
Ene=   -6.0204485403684886E-002
Spin= Alpha
Occup=     0.00000000
           1 -0.35886047316131814     
           2  0.46058647105342909     
           3 -0.43485470619481958     
           4   4.8019875294439393E-002
           5  0.18993845679438096     
           6   7.4498951241076874E-002
           7  0.49357581448394078     
           8  -1.4930179022030508E-002
           9  0.10512100158976627     
          10 -0.60282894529655762     
          11 -0.65920192573257952     
          12   1.9280741485702795E-002
          13  0.23866127608248866     
          14 -0.14913406918430488     
Sym=    11a
Ene=    2.8167341040578477E-002
Spin= Alpha
Occup=     0.00000000
           1 -0.87546165294998790     
           2 -0.27470423807193806     
           3   3.1903603454947038E-003
           4  0.51356108973091730     
           5  0.33586224045119606     
           6 -0.23435755024014965     
           7 -0.59215405907480190     
           8 -0.11698349974022544     
           9  0.12859065227969502     
          10  0.15269489843301889     
          11 -0.10496853336790692     
          12 -0.10197740341308710     
          13  0.71773291001648454     
          14 -0.16713583995950604     
Sym=    12a
Ene=   0.10910348647135257     
Spin= Alpha
Occup=     0.00000000
           1 -0.19271517143560987     
           2  0.26406644465848117     
           3  -7.5514460466594449E-002
           4   5.8776008401125596E-002
           5  -1.0144859059094051     
           6 -0.32486358139438992     
           7   6.4906916630468386E-003
           8   6.8789966375597922E-002
           9  0.26908994235725053     
          10  0.34740424641483686     
          11 -0.33489602761480630     
          12 -0.12130931908180327     
          13  0.20587953314559493     
          14  0.93302186491635763     
Sym=    13a
Ene=   0.26204315344117707     
Spin= Alpha
Occup=     0.00000000
           1  -5.9235506922438418E-002
           2 -0.58101795098684927     
           3 -0.82214728249143743     
           4 -0.40704728009135621     
           5  0.16765622480154291     
           6 -0.18499168349196368     
           7 -0.44075849937783701     
           8   5.4526026230785091E-002
           9  0.40089562881292107     
          10  0.14493624241549005     
          11 -0.47396453395749777     
          12  -2.9463057297617626E-002
          13 -0.82966130545994166     
          14   3.8470769276296984E-003
Sym=    14a
Ene=   0.65283727896646393     
Spin= Alpha
Occup=     0.00000000
           1  0.15767944565279482     
           2  0.31857062041685386     
           3  0.11269773790759201     
           4  -3.0631719316749984E-003
           5 -0.36823405324254038     
           6   1.2205089069547850     
           7 -0.30514673259188646     
           8 -0.27820887268748068     
           9  0.65965306091429876     
          10  0.61351449730845387     
          11 -0.41849669908132681     
          12 -0.15542061695946513     
          13   9.6714152219490548E-002
          14 -0.72075938972348841     
