$hessian                                                                        
        0.0629816418  -0.0131607377  -0.0066512780  -0.0154286869   0.0132017981
        0.0017069339  -0.0089534039  -0.0058286654  -0.0005827499  -0.0192475091
        0.0021129297  -0.0014455095  -0.0193520420   0.0036746753   0.0069726036
       -0.0131607377   0.5113457878  -0.0134245920   0.0979381952  -0.1281146715
       -0.0115999863  -0.0905246827  -0.1342365061  -0.0140889414   0.0021976998
       -0.1573689743   0.1481652237   0.0035495253  -0.0916256358  -0.1090517041
       -0.0066512780  -0.0134245920   0.6207246342   0.0118053255  -0.0123101655
       -0.0252430498  -0.0107820129  -0.0133844266  -0.0255841526  -0.0018021276
        0.1609509685  -0.2521374680   0.0074300930  -0.1218317845  -0.3177599638
       -0.0154286869   0.0979381952   0.0118053255   0.7077698669  -0.0360616877
        0.0019299460  -0.6940043564  -0.0556714950  -0.0129868152   0.0009667889
       -0.0034365682   0.0013036038   0.0006963875  -0.0027684442  -0.0020520601
        0.0132017981  -0.1281146715  -0.0123101655  -0.0360616877   0.1081319993
        0.0093077055   0.0108563786   0.0569965266   0.0083812484   0.0077814557
       -0.0202696441   0.0024610430   0.0042220553  -0.0167442102  -0.0078398314
        0.0017069339  -0.0115999863  -0.0252430498   0.0019299460   0.0093077055
        0.0292859690  -0.0050170923   0.0077426936  -0.0113168413  -0.0147722026
        0.0070158232   0.0053207811   0.0161524150  -0.0124662360   0.0019531410
       -0.0089534039  -0.0905246827  -0.0107820129  -0.6940043564   0.0108563786
       -0.0050170923   0.7010884260   0.0710485747   0.0147728048   0.0008345377
        0.0044481693  -0.0015360555   0.0010347966   0.0041715600   0.0025623559
       -0.0058286654  -0.1342365061  -0.0133844266  -0.0556714950   0.0569965266
        0.0077426936   0.0710485747   0.1145244906   0.0110509206  -0.0065693683
       -0.0205866250   0.0022383089  -0.0029790459  -0.0166978860  -0.0076474965
       -0.0005827499  -0.0140889414  -0.0255841526  -0.0129868152   0.0083812484
       -0.0113168413   0.0147728048   0.0110509206   0.0296124454   0.0142094131
        0.0079623649   0.0056606911  -0.0154126528  -0.0133055925   0.0016278574
       -0.0192475091   0.0021976998  -0.0018021276   0.0009667889   0.0077814557
       -0.0147722026   0.0008345377  -0.0065693683   0.0142094131   0.0202783854
       -0.0028492507   0.0018336772  -0.0028322030  -0.0005605364   0.0005312399
        0.0021129297  -0.1573689743   0.1609509685  -0.0034365682  -0.0202696441
        0.0070158232   0.0044481693  -0.0205866250   0.0079623649  -0.0028492507
        0.1889376089  -0.1688617334  -0.0002752801   0.0092876345  -0.0070674233
       -0.0014455095   0.1481652237  -0.2521374680   0.0013036038   0.0024610430
        0.0053207811  -0.0015360555   0.0022383089   0.0056606911   0.0018336772
       -0.1688617334   0.2686091203  -0.0001557159   0.0159971578  -0.0274531246
       -0.0193520420   0.0035495253   0.0074300930   0.0006963875   0.0042220553
        0.0161524150   0.0010347966  -0.0029790459  -0.0154126528  -0.0028322030
       -0.0002752801  -0.0001557159   0.0204530609  -0.0045172547  -0.0080141392
        0.0036746753  -0.0916256358  -0.1218317845  -0.0027684442  -0.0167442102
       -0.0124662360   0.0041715600  -0.0166978860  -0.0133055925  -0.0005605364
        0.0092876345   0.0159971578  -0.0045172547   0.1157800976   0.1316064553
        0.0069726036  -0.1090517041  -0.3177599638  -0.0020520601  -0.0078398314
        0.0019531410   0.0025623559  -0.0076474965   0.0016278574   0.0005312399
       -0.0070674233  -0.0274531246  -0.0080141392   0.1316064553   0.3416320900
