 Entering Gaussian System
 *********************************************
 Gaussian 98:
 frequency output generated by the xtb code
 *********************************************
                         Standard orientation:
 --------------------------------------------------------------------
  Center     Atomic     Atomic              Coordinates (Angstroms)
  Number     Number      Type              X           Y           Z
 --------------------------------------------------------------------
    1          7             0       -0.010399    0.333283    0.039896
    2          6             0        0.677539   -1.023865   -0.116595
    3          6             0       -0.612454   -1.062135   -0.133109
    4          1             0       -0.019511    0.978049   -0.742567
    5          1             0       -0.035175    0.774668    0.952376
 --------------------------------------------------------------------
     1 basis functions        1 primitive gaussians
     1 alpha electrons        1 beta electrons

 Harmonic frequencies (cm**-1), IR intensities (KM/Mole),
 Raman scattering activities (A**4/amu), Raman depolarization ratios,
 reduced masses (AMU), force constants (mDyne/A) and normal coordinates:
                      1                      2                      3
                        a                      a                      a 
 Frequencies --   402.1731               742.7316               832.6373
 Red. masses --    12.3409                 3.2555                 2.4166
 Frc consts  --     0.0000                 0.0000                 0.0000
 IR Inten    --     0.8627                 0.3972                 0.0021
 Raman Activ --     0.0000                 0.0000                 0.0000
 Depolar     --     0.0000                 0.0000                 0.0000
 Atom AN      X      Y      Z        X      Y      Z        X      Y      Z
   1   7     0.45   0.01   0.01     0.39   0.01   0.01     0.00  -0.00  -0.00
   2   6    -0.28   0.56   0.06    -0.02  -0.10  -0.01    -0.00  -0.03   0.25
   3   6    -0.24  -0.58  -0.07    -0.03   0.10   0.01     0.00   0.03  -0.25
   4   1     0.06   0.00   0.00    -0.64  -0.02  -0.01    -0.66  -0.02  -0.01
   5   1     0.06   0.00   0.00    -0.64  -0.02  -0.01     0.66   0.02   0.01
                      4                      5                      6
                        a                      a                      a 
 Frequencies --   937.0976               990.8878              1483.4004
 Red. masses --    12.7502                 3.4015                 1.7787
 Frc consts  --     0.0000                 0.0000                 0.0000
 IR Inten    --     0.9739                 0.0508                 0.2696
 Raman Activ --     0.0000                 0.0000                 0.0000
 Depolar     --     0.0000                 0.0000                 0.0000
 Atom AN      X      Y      Z        X      Y      Z        X      Y      Z
   1   7     0.02  -0.74  -0.09     0.00   0.05  -0.39     0.01  -0.22  -0.03
   2   6     0.09   0.44   0.05    -0.00  -0.02   0.13     0.06  -0.05  -0.01
   3   6    -0.11   0.43   0.05    -0.00  -0.02   0.13    -0.06  -0.05  -0.01
   4   1     0.00  -0.13   0.01    -0.02   0.54   0.34    -0.02   0.53   0.43
   5   1     0.00  -0.12  -0.04     0.02  -0.60   0.20    -0.01   0.62  -0.29
                      7                      8                      9
                        a                      a                      a 
 Frequencies --  1769.6619              3346.0929              3351.5935
 Red. masses --    11.9811                 1.3793                 2.1916
 Frc consts  --     0.0000                 0.0000                 0.0000
 IR Inten    --     0.4102                 0.0717                 0.0755
 Raman Activ --     0.0000                 0.0000                 0.0000
 Depolar     --     0.0000                 0.0000                 0.0000
 Atom AN      X      Y      Z        X      Y      Z        X      Y      Z
   1   7    -0.00   0.12   0.01     0.01  -0.17  -0.02     0.00   0.03  -0.30
   2   6     0.70  -0.04   0.00    -0.01  -0.01  -0.00    -0.00  -0.00  -0.00
   3   6    -0.69  -0.08  -0.02     0.01  -0.01  -0.00     0.00   0.00  -0.00
   4   1     0.00  -0.02  -0.05    -0.01   0.42  -0.57     0.01  -0.42   0.51
   5   1     0.00  -0.03   0.04    -0.02   0.27   0.63    -0.02   0.30   0.62
