      -----------------------------------------------------------      
     |                   =====================                   |     
     |                           x T B                           |     
     |                   =====================                   |     
     |                         S. Grimme                         |     
     |          Mulliken Center for Theoretical Chemistry        |     
     |                    University of Bonn                     |     
      -----------------------------------------------------------      

   * xtb version 6.2.2 (9d81278992624c895f80dd42a50cac0aa55982e2) compiled by '@Darwin' on 04/03/2020

   xtb is free software: you can redistribute it and/or modify it under
   the terms of the GNU Lesser General Public License as published by
   the Free Software Foundation, either version 3 of the License, or
   (at your option) any later version.
   
   xtb is distributed in the hope that it will be useful,
   but WITHOUT ANY WARRANTY; without even the implied warranty of
   MERCHANTABILITY or FITNESS FOR A PARTICULAR PURPOSE.  See the
   GNU Lesser General Public License for more details.
   
   Cite this work as:
   * S. Grimme, C. Bannwarth, P. Shushkov, J. Chem. Theory Comput., 2017,
     13, 1989-2009. DOI: 10.1021/acs.jctc.7b00118
   * C. Bannwarth, S. Ehlert and S. Grimme., J. Chem. Theory Comput., 2019,
     15, 1652-1671. DOI: 10.1021/acs.jctc.8b01176
   * P. Pracht, E. Caldeweyher, S. Ehlert, S. Grimme, ChemRxiv, 2019, preprint.
     DOI: 10.26434/chemrxiv.8326202.v1
   
   for DFT-D4:
   * E. Caldeweyher, C. Bannwarth and S. Grimme, J. Chem. Phys., 2017,
     147, 034112. DOI: 10.1063/1.4993215
   * E. Caldeweyher, S. Ehlert, A. Hansen, H. Neugebauer, S. Spicher,
     C. Bannwarth and S. Grimme, J. Chem. Phys., 2019, 150, 154122.
     DOI: 10.1063/1.5090222
   
   for sTDA-xTB:
   * S. Grimme and C. Bannwarth, J. Chem. Phys., 2016, 145, 054103.
     DOI: 10.1063/1.4959605
   
   in the mass-spec context:
   * V. Asgeirsson, C. Bauer and S. Grimme, Chem. Sci., 2017, 8, 4879.
     DOI: 10.1039/c7sc00601b
   
   for metadynamics refer to:
   * S. Grimme, J. Chem. Theory Comput., 2019, 155, 2847-2862
     DOI: 10.1021/acs.jctc.9b00143
   
   with help from (in alphabetical order)
   C. Bannwarth, F. Bohle, G. Brandenburg, E. Caldeweyher, M. Checinski,
   S. Dohm, S. Ehlert, S. Ehrlich, F. März, H. Neugebauer, J. Pisarek,
   P. Pracht, P. Shushkov, and S. Spicher.
   
 * started run on 2020/05/12 at 11:43:49.926     

           -------------------------------------------------
          |                Calculation Setup                |
           -------------------------------------------------

          program call               : xtb --input H2C1N1_0_S_1.input H2C1N1_0_S_1.xyz --ohess --molden --namespace H2C1N1_0_S_1 output.out
          calculation namespace      : H2C1N1_0_S_1
          coordinate file            : H2C1N1_0_S_1.xyz
          number of atoms            :                     4
          number of electrons        :                    11
          charge                     :                     0
          spin                       :                   0.5
          first test random number   :      0.15513994689138

   ID    Z sym.   atoms
    1    6 C      1
    2    7 N      2
    3    1 H      3, 4

           -------------------------------------------------
          |                 G F N 2 - x T B                 |
           -------------------------------------------------

        Reference                      10.1021/acs.jctc.8b01176
      * Hamiltonian:
        H0-scaling (s, p, d)           1.850000    2.230000    2.230000
        zeta-weighting                 0.500000
      * Dispersion:
        s8                             2.700000
        a1                             0.520000
        a2                             5.000000
        s9                             5.000000
      * Repulsion:
        kExp                           1.500000    1.000000
        rExp                           1.000000
      * Coulomb:
        alpha                          2.000000
        third order                    shell-resolved
        anisotropic                    true
        a3                             3.000000
        a5                             4.000000
        cn-shift                       1.200000
        cn-exp                         4.000000
        max-rad                        5.000000


          ...................................................
          :                      SETUP                      :
          :.................................................:
          :  # basis functions                  10          :
          :  # atomic orbitals                  10          :
          :  # shells                            6          :
          :  # electrons                        11          :
          :  max. iterations                   250          :
          :  Hamiltonian                  GFN2-xTB          :
          :  restarted?                      false          :
          :  GBSA solvation                  false          :
          :  PC potential                    false          :
          :  electronic temp.          300.0000000     K    :
          :  accuracy                    1.0000000          :
          :  -> integral cutoff          0.2500000E+02      :
          :  -> integral neglect         0.1000000E-07      :
          :  -> SCF convergence          0.1000000E-05 Eh   :
          :  -> wf. convergence          0.1000000E-03 e    :
          :  Broyden damping             0.4000000          :
          ...................................................

 iter      E             dE          RMSdq      gap      omega  full diag
   1     -5.8507938 -0.585079E+01  0.687E+00    1.05       0.0  T
   2     -5.7289124  0.121881E+00  0.819E+00    2.40       1.0  T
   3     -5.9224067 -0.193494E+00  0.310E+00    1.36       1.0  T
   4     -5.9216859  0.720809E-03  0.101E+00    1.55       1.0  T
   5     -5.9240280 -0.234213E-02  0.205E-01    1.49       1.0  T
   6     -5.9240402 -0.121531E-04  0.576E-02    1.49       1.0  T
   7     -5.9240415 -0.132755E-05  0.841E-03    1.49       5.9  T
   8     -5.9240415  0.424184E-09  0.258E-03    1.49      19.4  T
   9     -5.9240415 -0.122048E-07  0.114E-03    1.49      44.0  T
  10     -5.9240415 -0.717563E-09  0.910E-04    1.49      55.0  T
  11     -5.9240415 -0.238287E-08  0.121E-04    1.49     412.1  T

   *** convergence criteria satisfied after 11 iterations ***

         #    Occupation            Energy/Eh            Energy/eV
      -------------------------------------------------------------
         1        2.0000           -0.6260334             -17.0352
         2        2.0000           -0.5653508             -15.3840
         3        2.0000           -0.5202729             -14.1573
         4        2.0000           -0.4662637             -12.6877
         5        2.0000           -0.4362385             -11.8707
         6        1.0000           -0.3891551             -10.5894 (HOMO)
         7                         -0.3343952              -9.0994 (LUMO)
         8                          0.0731205               1.9897
         9                          0.1182971               3.2190
        10                          0.1586380               4.3168
      -------------------------------------------------------------
                  HL-Gap            0.0547599 Eh            1.4901 eV
             Fermi-level           -0.3872359 Eh          -10.5372 eV

 SCC (total)                   0 d,  0 h,  0 min,  0.001 sec
 SCC setup                      ...        0 min,  0.000 sec (  4.514%)
 Dispersion                     ...        0 min,  0.000 sec (  0.473%)
 integral evaluation            ...        0 min,  0.000 sec ( 20.515%)
 zeroth order Hamiltonian       ...        0 min,  0.000 sec (  0.684%)
 iterations                     ...        0 min,  0.001 sec ( 47.711%)
 molecular gradient             ...        0 min,  0.000 sec ( 20.776%)
 printout                       ...        0 min,  0.000 sec (  4.839%)

         :::::::::::::::::::::::::::::::::::::::::::::::::::::
         ::                     SUMMARY                     ::
         :::::::::::::::::::::::::::::::::::::::::::::::::::::
         :: total energy              -5.883876349742 Eh    ::
         :: gradient norm              0.249353408810 Eh/a0 ::
         :: HOMO-LUMO gap              1.490092015823 eV    ::
         ::.................................................::
         :: SCC energy                -5.924041514961 Eh    ::
         :: -> isotropic ES            0.007175862286 Eh    ::
         :: -> anisotropic ES          0.001093860700 Eh    ::
         :: -> anisotropic XC          0.014827615640 Eh    ::
         :: -> dispersion             -0.000707785723 Eh    ::
         :: repulsion energy           0.040165159932 Eh    ::
         :: add. restraining           0.000000000000 Eh    ::
         :::::::::::::::::::::::::::::::::::::::::::::::::::::

      ----------------------------------------------------------- 
     |                   =====================                   |
     |                        A N C O P T                        |
     |                   =====================                   |
     |               Approximate Normal Coordinate               |
     |                Rational Function Optimizer                |
      ----------------------------------------------------------- 

          ...................................................
          :                      SETUP                      :
          :.................................................:
          :   optimization level            normal          :
          :   max. optcycles                   200          :
          :   ANC micro-cycles                  20          :
          :   degrees of freedom                 6          :
          :.................................................:
          :   RF solver                   davidson          :
          :   write xtbopt.log                true          :
          :   linear?                        false          :
          :   energy convergence         0.5000000E-05 Eh   :
          :   grad. convergence          0.1000000E-02 Eh/α :
          :   maximium RF displ.         1.0000000          :
          :   Hlow (freq-cutoff)         0.1000000E-01      :
          :   Hmax (freq-cutoff)         5.0000000          :
          :   S6 in model hess.         20.0000000          :
          ...................................................

generating ANC from model Hessian ...
Using Lindh-Hessian (1995)
 Shifting diagonal of input Hessian by    0.0000000000000000     
 Lowest  eigenvalues of input Hessian
   -0.000000    0.000000    0.000000    0.000000    0.000000    0.000000
    0.081985    0.097345    0.110660    0.588039    0.981695    1.141876
 Highest eigenvalues
    0.081985    0.097345    0.110660    0.588039    0.981695    1.141876


........................................................................
.............................. CYCLE    1 ..............................
........................................................................
   1     -5.9240415 -0.592404E+01  0.336E-05    1.49       0.0  T
   2     -5.9240415  0.686473E-11  0.475E-05    1.49    1052.2  T
   3     -5.9240415 -0.910827E-11  0.131E-05    1.49    3813.3  T
     SCC iter.                  ...        0 min,  0.000 sec
     gradient                   ...        0 min,  0.000 sec
 * total energy  :    -5.8838763 Eh     change        0.4058940E-09 Eh
   gradient norm :     0.2493535 Eh/α   predicted     0.0000000E+00 (-100.00%)
   displ. norm   :     0.3900859 α      lambda       -0.7488076E-01
   maximum displ.:     0.2866240 α      in ANC's #1, #4, #6, ...

........................................................................
.............................. CYCLE    2 ..............................
........................................................................
   1     -6.0060196 -0.600602E+01  0.174E+00    2.66       0.0  T
   2     -6.0060324 -0.128108E-04  0.107E+00    2.53       1.0  T
   3     -6.0053296  0.702828E-03  0.817E-01    2.68       1.0  T
   4     -6.0069147 -0.158509E-02  0.525E-02    2.59       1.0  T
   5     -6.0069165 -0.180455E-05  0.132E-02    2.59       3.8  T
   6     -6.0069166 -0.129489E-06  0.471E-03    2.59      10.6  T
   7     -6.0069166 -0.460738E-07  0.622E-04    2.59      80.4  T
   8     -6.0069166 -0.562155E-10  0.664E-05    2.59     752.5  T
     SCC iter.                  ...        0 min,  0.000 sec
     gradient                   ...        0 min,  0.000 sec
 * total energy  :    -5.9421824 Eh     change       -0.5830603E-01 Eh
   gradient norm :     0.1382801 Eh/α   predicted    -0.4313758E-01 ( -26.02%)
   displ. norm   :     0.3174587 α      lambda       -0.4196708E-01
   maximum displ.:     0.2362030 α      in ANC's #4, #6, #3, ...

........................................................................
.............................. CYCLE    3 ..............................
........................................................................
   1     -6.0958296 -0.609583E+01  0.191E+00    4.39       0.0  T
   2     -6.0962670 -0.437338E-03  0.106E+00    4.25       1.0  T
   3     -6.0961117  0.155257E-03  0.421E-01    4.27       1.0  T
   4     -6.0964104 -0.298647E-03  0.429E-02    4.21       1.2  T
   5     -6.0964105 -0.120641E-06  0.139E-02    4.22       3.6  T
   6     -6.0964106 -0.127750E-06  0.361E-03    4.21      13.8  T
   7     -6.0964106 -0.264675E-07  0.541E-04    4.21      92.4  T
   8     -6.0964106 -0.625201E-09  0.319E-05    4.21    1568.2  T
     SCC iter.                  ...        0 min,  0.000 sec
     gradient                   ...        0 min,  0.000 sec
 * total energy  :    -5.9312500 Eh     change        0.1093242E-01 Eh
   gradient norm :     0.3626930 Eh/α   predicted    -0.2309827E-01 (-311.28%)
   displ. norm   :     0.2573987 α      lambda       -0.6798010E-01
   maximum displ.:     0.1752631 α      in ANC's #1, #3, #6, ...

........................................................................
.............................. CYCLE    4 ..............................
........................................................................
   1     -6.0354058 -0.603541E+01  0.139E+00    3.07       0.0  T
   2     -6.0356162 -0.210310E-03  0.811E-01    3.23       1.0  T
   3     -6.0356473 -0.311397E-04  0.578E-01    3.14       1.0  T
   4     -6.0362045 -0.557257E-03  0.371E-02    3.22       1.3  T
   5     -6.0362051 -0.520477E-06  0.109E-02    3.22       4.6  T
   6     -6.0362054 -0.288041E-06  0.165E-03    3.22      30.3  T
   7     -6.0362054 -0.243894E-09  0.520E-04    3.22      96.1  T
   8     -6.0362054 -0.636229E-10  0.468E-05    3.22    1068.1  T
     SCC iter.                  ...        0 min,  0.001 sec
     gradient                   ...        0 min,  0.000 sec
 * total energy  :    -5.9555837 Eh     change       -0.2433375E-01 Eh
   gradient norm :     0.0448970 Eh/α   predicted    -0.3624204E-01 (  48.94%)
   displ. norm   :     0.0900129 α      lambda       -0.2268631E-02
   maximum displ.:     0.0838674 α      in ANC's #1, #4, #3, ...

........................................................................
.............................. CYCLE    5 ..............................
........................................................................
   1     -6.0480225 -0.604802E+01  0.233E-01    3.26       0.0  T
   2     -6.0480350 -0.124647E-04  0.133E-01    3.26       1.0  T
   3     -6.0480314  0.359254E-05  0.450E-02    3.27       1.1  T
   4     -6.0480370 -0.560761E-05  0.200E-02    3.26       2.5  T
   5     -6.0480376 -0.564720E-06  0.360E-03    3.26      13.9  T
   6     -6.0480376 -0.196703E-08  0.169E-04    3.26     296.2  T
   7     -6.0480376 -0.160139E-10  0.803E-05    3.26     622.5  T
     SCC iter.                  ...        0 min,  0.000 sec
     gradient                   ...        0 min,  0.000 sec
 * total energy  :    -5.9566494 Eh     change       -0.1065702E-02 Eh
   gradient norm :     0.0201711 Eh/α   predicted    -0.1143507E-02 (   7.30%)
   displ. norm   :     0.0606626 α      lambda       -0.8454358E-03
   maximum displ.:     0.0383942 α      in ANC's #4, #1, #3, ...

........................................................................
.............................. CYCLE    6 ..............................
........................................................................
   1     -6.0525873 -0.605259E+01  0.232E-01    3.37       0.0  T
   2     -6.0525909 -0.362526E-05  0.128E-01    3.36       1.0  T
   3     -6.0525853  0.553757E-05  0.530E-02    3.36       1.0  T
   4     -6.0525931 -0.780247E-05  0.573E-03    3.36       8.7  T
   5     -6.0525931 -0.656818E-08  0.171E-03    3.36      29.3  T
   6     -6.0525931 -0.634265E-09  0.152E-04    3.36     329.5  T
   7     -6.0525931 -0.181917E-10  0.680E-05    3.36     735.3  T
     SCC iter.                  ...        0 min,  0.000 sec
     gradient                   ...        0 min,  0.000 sec
 * total energy  :    -5.9570613 Eh     change       -0.4118576E-03 Eh
   gradient norm :     0.0078085 Eh/α   predicted    -0.4242745E-03 (   3.01%)
   displ. norm   :     0.0099160 α      lambda       -0.4164590E-04
   maximum displ.:     0.0066626 α      in ANC's #1, #4, #3, ...

........................................................................
.............................. CYCLE    7 ..............................
........................................................................
   1     -6.0520272 -0.605203E+01  0.281E-02    3.34       0.0  T
   2     -6.0520273 -0.104202E-06  0.155E-02    3.34       3.2  T
   3     -6.0520272  0.742249E-07  0.693E-03    3.34       7.2  T
   4     -6.0520273 -0.110355E-06  0.130E-03    3.34      38.4  T
   5     -6.0520273 -0.576418E-09  0.410E-04    3.34     121.8  T
   6     -6.0520273 -0.569003E-10  0.220E-05    3.34    2276.8  T
     SCC iter.                  ...        0 min,  0.000 sec
     gradient                   ...        0 min,  0.000 sec
 * total energy  :    -5.9570907 Eh     change       -0.2947729E-04 Eh
   gradient norm :     0.0030967 Eh/α   predicted    -0.2082627E-04 ( -29.35%)
   displ. norm   :     0.0076464 α      lambda       -0.1428111E-04
   maximum displ.:     0.0056347 α      in ANC's #4, #1, #6, ...

........................................................................
.............................. CYCLE    8 ..............................
........................................................................
   1     -6.0519491 -0.605195E+01  0.214E-02    3.33       0.0  T
   2     -6.0519492 -0.885110E-07  0.115E-02    3.33       4.3  T
   3     -6.0519492  0.190980E-07  0.448E-03    3.33      11.2  T
   4     -6.0519492 -0.369836E-07  0.107E-03    3.33      46.8  T
   5     -6.0519492 -0.104098E-08  0.330E-04    3.33     151.6  T
   6     -6.0519492 -0.516547E-10  0.128E-05    3.33    3891.8  T
     SCC iter.                  ...        0 min,  0.000 sec
     gradient                   ...        0 min,  0.000 sec
 * total energy  :    -5.9570979 Eh     change       -0.7173662E-05 Eh
   gradient norm :     0.0000437 Eh/α   predicted    -0.7142717E-05 (  -0.43%)
   displ. norm   :     0.0004310 α      lambda       -0.1102025E-07
   maximum displ.:     0.0003617 α      in ANC's #3, #1, #4, ...

........................................................................
.............................. CYCLE    9 ..............................
........................................................................
   1     -6.0519381 -0.605194E+01  0.130E-03    3.33       0.0  T
   2     -6.0519381 -0.141502E-09  0.723E-04    3.33      69.2  T
   3     -6.0519381  0.241556E-09  0.353E-04    3.33     141.5  T
     SCC iter.                  ...        0 min,  0.000 sec
     gradient                   ...        0 min,  0.000 sec
 * total energy  :    -5.9570979 Eh     change       -0.6927398E-08 Eh
   gradient norm :     0.0000219 Eh/α   predicted    -0.5665829E-08 ( -18.21%)
   displ. norm   :     0.0001212 α      lambda       -0.4104083E-08
   maximum displ.:     0.0000865 α      in ANC's #1, #3, #4, ...

   *** GEOMETRY OPTIMIZATION CONVERGED AFTER 9 ITERATIONS ***

------------------------------------------------------------------------
 total energy gain   :        -0.0732216 Eh      -45.9472 kcal/mol
 total RMSD          :         0.3501108 a0        0.1853 Å
 total power (kW/mol):       -21.3603566 (step)********** (real)
------------------------------------------------------------------------

 ANCopt (total)                0 d,  0 h,  0 min,  0.009 sec
 optimizer setup                ...        0 min,  0.000 sec (  0.896%)
 model hessian                  ...        0 min,  0.000 sec (  1.006%)
 ANC generation                 ...        0 min,  0.000 sec (  0.459%)
 coordinate transformation      ...        0 min,  0.000 sec (  0.169%)
 single point calculation       ...        0 min,  0.008 sec ( 90.978%)
 optimization log               ...        0 min,  0.000 sec (  1.788%)
 hessian update                 ...        0 min,  0.000 sec (  0.169%)
 rational function              ...        0 min,  0.000 sec (  1.921%)

================
 final structure:
================
4
 xtb: 6.2.2 (9d81278992624c895f80dd42a50cac0aa55982e2)
C         0.00252569671950   -0.00020093981858    0.00002083711890
N         1.21188182676428   -0.09637156113501    0.03289905537912
H        -0.53508491532960    0.95622714921229   -0.01342078893344
H        -0.67932260815418   -0.85965564825871   -0.01949910356457

 Bond Distances (Angstroems)
 ---------------------------
C1-N2=1.2136         C1-H3=1.0973         C1-H4=1.0973         N2-C1=1.2136         H3-C1=1.0973         H4-C1=1.0973         
 C  H  Rav=1.0973 sigma=0.0000  Rmin=1.0973  Rmax=1.0973     2
 N  C  Rav=1.2136 sigma=0.0000  Rmin=1.2136  Rmax=1.2136     1

 selected bond angles (degree)
 --------------------
H3-C1-N2=123.89                H4-C1-N2=123.89                H4-C1-H3=112.21                

 selected dihedral angles (degree)
 ---------------------------------

           -------------------------------------------------
          |                Final Singlepoint                |
           -------------------------------------------------

          ...................................................
          :                      SETUP                      :
          :.................................................:
          :  # basis functions                  10          :
          :  # atomic orbitals                  10          :
          :  # shells                            6          :
          :  # electrons                        11          :
          :  max. iterations                   250          :
          :  Hamiltonian                  GFN2-xTB          :
          :  restarted?                      false          :
          :  GBSA solvation                  false          :
          :  PC potential                    false          :
          :  electronic temp.          300.0000000     K    :
          :  accuracy                    1.0000000          :
          :  -> integral cutoff          0.2500000E+02      :
          :  -> integral neglect         0.1000000E-07      :
          :  -> SCF convergence          0.1000000E-05 Eh   :
          :  -> wf. convergence          0.1000000E-03 e    :
          :  Broyden damping             0.4000000          :
          ...................................................

 iter      E             dE          RMSdq      gap      omega  full diag
   1     -6.0519381 -0.605194E+01  0.134E-04    3.33       0.0  T
   2     -6.0519381 -0.143174E-11  0.604E-05    3.33     827.5  T
   3     -6.0519381  0.223022E-11  0.497E-05    3.33    1006.7  T

   *** convergence criteria satisfied after 3 iterations ***

         #    Occupation            Energy/Eh            Energy/eV
      -------------------------------------------------------------
         1        2.0000           -0.6536495             -17.7867
         2        2.0000           -0.5774467             -15.7131
         3        2.0000           -0.5365920             -14.6014
         4        2.0000           -0.4840562             -13.1718
         5        2.0000           -0.4349198             -11.8348
         6        1.0000           -0.3699455             -10.0667 (HOMO)
         7                         -0.2475140              -6.7352 (LUMO)
         8                          0.1178777               3.2076
         9                          0.2357928               6.4162
        10                          0.6346409              17.2695
      -------------------------------------------------------------
                  HL-Gap            0.1224315 Eh            3.3315 eV
             Fermi-level           -0.3555812 Eh           -9.6759 eV

 SCC (total)                   0 d,  0 h,  0 min,  0.001 sec
 SCC setup                      ...        0 min,  0.000 sec (  4.611%)
 Dispersion                     ...        0 min,  0.000 sec (  0.533%)
 integral evaluation            ...        0 min,  0.000 sec ( 37.108%)
 zeroth order Hamiltonian       ...        0 min,  0.000 sec (  0.627%)
 iterations                     ...        0 min,  0.000 sec ( 16.468%)
 molecular gradient             ...        0 min,  0.000 sec ( 33.689%)
 printout                       ...        0 min,  0.000 sec (  6.305%)

         :::::::::::::::::::::::::::::::::::::::::::::::::::::
         ::                     SUMMARY                     ::
         :::::::::::::::::::::::::::::::::::::::::::::::::::::
         :: total energy              -5.957097919013 Eh    ::
         :: gradient norm              0.000022424321 Eh/a0 ::
         :: HOMO-LUMO gap              3.331531064954 eV    ::
         ::.................................................::
         :: SCC energy                -6.051938118049 Eh    ::
         :: -> isotropic ES            0.007898623869 Eh    ::
         :: -> anisotropic ES          0.000700829802 Eh    ::
         :: -> anisotropic XC          0.014824285330 Eh    ::
         :: -> dispersion             -0.000720418575 Eh    ::
         :: repulsion energy           0.094840194515 Eh    ::
         :: add. restraining           0.000000000000 Eh    ::
         :::::::::::::::::::::::::::::::::::::::::::::::::::::

           ------------------------------------------------- 
          |                Numerical Hessian                |
           ------------------------------------------------- 
step length          :   0.00500
SCC accuracy         :   0.30000
Hessian scale factor :   1.00000
frozen atoms in %    :   0.00000    0
RMS gradient         :   0.00002
estimated CPU  time      0.00 min
estimated wall time      0.00 min

writing file <hessian>.

 projected vibrational frequencies (cm-1)
eigval :       -0.00    -0.00    -0.00    -0.00     0.00     0.00
eigval :      850.76   938.41  1295.13  1853.25  2779.51  2845.07
           -------------------------------------------------
          |                Property Printout                |
           -------------------------------------------------

    * Orbital Energies and Occupations

         #    Occupation            Energy/Eh            Energy/eV
      -------------------------------------------------------------
         1        2.0000           -0.6536495             -17.7867
         2        2.0000           -0.5774467             -15.7131
         3        2.0000           -0.5365921             -14.6014
         4        2.0000           -0.4840561             -13.1718
         5        2.0000           -0.4349197             -11.8348
         6        1.0000           -0.3699454             -10.0667 (HOMO)
         7                         -0.2475140              -6.7352 (LUMO)
         8                          0.1178776               3.2076
         9                          0.2357927               6.4162
        10                          0.6346409              17.2695
      -------------------------------------------------------------
                  HL-Gap            0.1224314 Eh            3.3315 eV
             Fermi-level           -0.3555811 Eh           -9.6759 eV

     #   Z        covCN         q      C6AA      α(0)
     1   6 C      2.758     0.047    26.925     8.497
     2   7 N      0.910    -0.218    25.756     7.340
     3   1 H      0.924     0.085     1.924     2.169
     4   1 H      0.924     0.085     1.924     2.169
Molecule has the following symmetry elements: (C2) 2*(sigma) 
It seems to be the C2v point group

 Mol. C6AA /au·bohr⁶  :        169.487924
 Mol. C8AA /au·bohr⁸  :       3757.688816
 Mol. α(0) /au        :         20.176019


Wiberg/Mayer (AO) data.
largest (>0.10) Wiberg bond orders for each atom
          total WBO             WBO to atom ...
     1  C   3.950        N    2 2.218    H    4 0.866    H    3 0.866
     2  N   2.248        C    1 2.218
     3  H   0.884        C    1 0.866
     4  H   0.884        C    1 0.866

MOs/occ written to file <molden.input>


molecular dipole:
                 x           y           z       tot (Debye)
 q only:       -0.695       0.055      -0.019
   full:       -1.182       0.094      -0.032       3.015
molecular quadrupole (traceless):
                xx          xy          yy          xz          yz          zz
 q only:       -1.163       0.169       0.955      -0.037       0.005       0.208
  q+dip:       -2.008       0.325       2.060      -0.053       0.011      -0.052
   full:       -2.983       0.406       2.095      -0.105       0.012       0.888

           -------------------------------------------------
          |                Geometry Summary                 |
           -------------------------------------------------

      molecular mass/u    :       28.0333206
   center of mass at/Å    :        0.5629283      -0.0447683       0.0152612
  moments of inertia/u·Å² :        0.1672311E+01   0.1251873E+02   0.1419104E+02
rotational constants/cm⁻¹ :        0.1008044E+02   0.1346593E+01   0.1187907E+01

 * 3 selected distances

     #   Z        #   Z                                     value/Å
     1   6 C      2   7 N                                 1.2136194 (max)
     1   6 C      3   1 H                                 1.0972514
     1   6 C      4   1 H                                 1.0972514 (min)

 * 2 distinct bonds (by element types)

   Z      Z             #   av. dist./Å        max./Å        min./Å
   1 H    6 C           2     1.0972514     1.0972514     1.0972514
   6 C    7 N           1     1.2136194     1.2136194     1.2136194

           -------------------------------------------------
          |               Frequency Printout                |
           -------------------------------------------------
 projected vibrational frequencies (cm-1)
eigval :       -0.00    -0.00    -0.00    -0.00     0.00     0.00
eigval :      850.76   938.41  1295.13  1853.25  2779.51  2845.07
 reduced masses (amu)
   1:  8.98   2:  7.73   3: 13.26   4: 13.76   5: 10.60   6:  3.24   7:  4.42   8:  4.29
   9:  1.64  10: 12.77  11:  2.00  12:  1.41
 IR intensities (amu)
   1:  0.28   2:  0.23   3:  0.24   4:  0.34   5:  0.23   6:  0.13   7:  0.14   8:  0.10
   9:  0.14  10:  0.13  11:  0.13  12:  0.07
 Raman intensities (amu)
   1:  0.00   2:  0.00   3:  0.00   4:  0.00   5:  0.00   6:  0.00   7:  0.00   8:  0.00
   9:  0.00  10:  0.00  11:  0.00  12:  0.00
 output can be read by thermo (or use thermo option).
 writing <g98.out> molden fake output.
 recommended (thermochemical) frequency scaling factor: 1.0
           -------------------------------------------------
          |             Thermodynamic Functions             |
           -------------------------------------------------

c2v symmetry found (for desy threshold:  0.10E+00) used in thermo

          ...................................................
          :                      SETUP                      :
          :.................................................:
          :  # frequencies                           6      :
          :  # imaginary freq.                       0      :
          :  linear?                             false      :
          :  only rotor calc.                    false      :
          :  symmetry                              c2v      :
          :  rotational number                       2      :
          :  scaling factor                  1.0000000      :
          :  rotor cutoff                   50.0000000 cm⁻¹ :
          :  imag. cutoff                  -20.0000000 cm⁻¹ :
          :.................................................:

    mode    ω/cm⁻¹     T·S(HO)/kcal·mol⁻¹    T·S(FR)/kcal·mol⁻¹   T·S(vib)
   ------------------------------------------------------------------------
   ------------------------------------------------------------------------

   temp. (K)  partition function   enthalpy   heat capacity  entropy
                                   cal/mol     cal/K/mol   cal/K/mol   J/K/mol
 298.15  VIB   1.03                   77.926      1.193      0.320
         ROT   658.                  888.752      2.981     15.878
         INT   678.                  966.679      4.173     16.198
         TR   0.144E+27             1481.254      4.968     35.911
         TOT                        2447.9327     9.1416    52.1086   218.0223

   temp. (K)  partition function   enthalpy   heat capacity  entropy
                                   cal/mol     cal/K/mol   cal/K/mol   J/K/mol
 120.00  VIB   1.00                    0.126      0.011      0.001
         ROT   168.                  357.707      2.981     13.165
         INT   168.                  357.833      2.992     13.166
         TR   0.367E+26              596.178      4.968     31.391
         TOT                         954.0107     7.9601    44.5574   186.4281

   temp. (K)  partition function   enthalpy   heat capacity  entropy
                                   cal/mol     cal/K/mol   cal/K/mol   J/K/mol
 100.00  VIB   1.00                    0.015      0.002      0.000
         ROT   128.                  298.089      2.981     12.621
         INT   128.                  298.104      2.983     12.621
         TR   0.279E+26              496.815      4.968     30.486
         TOT                         794.9195     7.9510    43.1076   180.3620

   temp. (K)  partition function   enthalpy   heat capacity  entropy
                                   cal/mol     cal/K/mol   cal/K/mol   J/K/mol
  80.00  VIB   1.00                    0.001      0.000     -0.000
         ROT   91.5                  238.471      2.981     11.956
         INT   91.5                  238.472      2.981     11.956
         TR   0.200E+26              397.452      4.968     29.378
         TOT                         635.9239     7.9492    41.3342   172.9421

   temp. (K)  partition function   enthalpy   heat capacity  entropy
                                   cal/mol     cal/K/mol   cal/K/mol   J/K/mol
  60.00  VIB   1.00                    0.000      0.000     -0.000
         ROT   59.4                  178.853      2.981     11.099
         INT   59.4                  178.853      2.981     11.099
         TR   0.130E+26              298.089      4.968     27.950
         TOT                         476.9424     7.9490    39.0480   163.3770

   temp. (K)  partition function   enthalpy   heat capacity  entropy
                                   cal/mol     cal/K/mol   cal/K/mol   J/K/mol
  40.00  VIB   1.00                    0.000      0.000     -0.000
         ROT   32.4                  119.236      2.981      9.890
         INT   32.4                  119.236      2.981      9.890
         TR   0.706E+25              198.726      4.968     25.936
         TOT                         317.9616     7.9490    35.8260   149.8958

   temp. (K)  partition function   enthalpy   heat capacity  entropy
                                   cal/mol     cal/K/mol   cal/K/mol   J/K/mol
  20.00  VIB   1.00                    0.000      0.000     -0.000
         ROT   11.4                   59.618      2.981      7.824
         INT   11.4                   59.618      2.981      7.824
         TR   0.249E+25               99.363      4.968     22.494
         TOT                         158.9808     7.9490    30.3178   126.8496

   temp. (K)  partition function   enthalpy   heat capacity  entropy
                                   cal/mol     cal/K/mol   cal/K/mol   J/K/mol
  10.00  VIB   1.00                    0.000      0.000     -0.000
         ROT   4.04                   29.809      2.981      5.758
         INT   4.04                   29.809      2.981      5.757
         TR   0.882E+24               49.681      4.968     19.052
         TOT                          79.4904     7.9490    24.8096   103.8033

       T/K    H(0)-H(T)+PV         H(T)/Eh          T*S/Eh         G(T)/Eh
   ------------------------------------------------------------------------
    298.15    0.390103E-02    0.279633E-01    0.247585E-01    0.320488E-02
    120.00    0.152031E-02    0.255826E-01    0.852081E-02    0.170618E-01
    100.00    0.126678E-02    0.253291E-01    0.686963E-02    0.184595E-01
     80.00    0.101341E-02    0.250757E-01    0.526961E-02    0.198061E-01
     60.00    0.760056E-03    0.248224E-01    0.373362E-02    0.210887E-01
     40.00    0.506704E-03    0.245690E-01    0.228369E-02    0.222853E-01
     20.00    0.253352E-03    0.243157E-01    0.966289E-03    0.233494E-01
     10.00    0.126676E-03    0.241890E-01    0.395366E-03    0.237936E-01 (used)
   ------------------------------------------------------------------------

         :::::::::::::::::::::::::::::::::::::::::::::::::::::
         ::                  THERMODYNAMIC                  ::
         :::::::::::::::::::::::::::::::::::::::::::::::::::::
         :: total free energy          -5.933304293938 Eh   ::
         ::.................................................::
         :: total energy               -5.957097919168 Eh   ::
         :: zero point energy           0.024062315183 Eh   ::
         :: G(RRHO) w/o ZPVE           -0.000268689953 Eh   ::
         :: G(RRHO) contrib.            0.023793625230 Eh   ::
         :::::::::::::::::::::::::::::::::::::::::::::::::::::

optimized geometry written to: xtbopt.xyz


           -------------------------------------------------
          | TOTAL ENERGY               -5.957097919168 Eh   |
          | TOTAL ENTHALPY             -5.932908927969 Eh   |
          | TOTAL FREE ENERGY          -5.933304293938 Eh   |
          | GRADIENT NORM               0.000022441129 Eh/α |
          | HOMO-LUMO GAP               3.331528139999 eV   |
           -------------------------------------------------

------------------------------------------------------------------------
 * finished run on 2020/05/12 at 11:43:49.974     
------------------------------------------------------------------------
 total:
 * wall-time:     0 d,  0 h,  0 min,  0.047 sec
 *  cpu-time:     0 d,  0 h,  0 min,  0.047 sec
 * ratio c/w:     0.997 speedup
 SCF:
 * wall-time:     0 d,  0 h,  0 min,  0.002 sec
 *  cpu-time:     0 d,  0 h,  0 min,  0.002 sec
 * ratio c/w:     0.994 speedup
 ANC optimizer:
 * wall-time:     0 d,  0 h,  0 min,  0.010 sec
 *  cpu-time:     0 d,  0 h,  0 min,  0.010 sec
 * ratio c/w:     0.991 speedup
 numerical hessian:
 * wall-time:     0 d,  0 h,  0 min,  0.021 sec
 *  cpu-time:     0 d,  0 h,  0 min,  0.021 sec
 * ratio c/w:     1.000 speedup

