[Molden Format]
[Title]
[Atoms] AU
C      1     6  0.47728727800376E-02 -0.37974611140013E-03  0.39360446551311E-04
N      2     7  0.22901237989331E+01 -0.18212772240603E+00  0.62162522466234E-01
H      3     1 -0.10111544766279E+01  0.18070125074391E+01 -0.25361237302311E-01
H      4     1 -0.12837421950951E+01 -0.16245069286476E+01 -0.36840645607176E-01
[GTO]
           1 0
 s           4   1.0000000000000000     
   51.049363095579913      -0.16312063210127389     
   8.7911227406887544      -0.19911024581000730     
  0.70640422258929825       0.31882047753655751     
  0.26922813413411617       0.12706504184240380     
 p           4   1.0000000000000000     
   5.8263656140800002       0.73716451545209605     
   1.5106896018720002       0.68216371614850257     
  0.53256483288000001       0.35783053929253711     
  0.21202323690600003        5.3983030275847881E-002

           2 0
 s           4   1.0000000000000000     
   63.594024466941008      -0.19234388414721629     
   10.951417231523665      -0.23478107924953728     
  0.87999310257376984       0.37593753901700888     
  0.33538715296521110       0.14982889271862770     
 p           4   1.0000000000000000     
   7.2965040481495080       0.97658666315667420     
   1.8918745450712575       0.90372226730345739     
  0.66694432110824120       0.47404958461536373     
  0.26552202674130870        7.1516067715011844E-002

           3 0
 s           3   1.0000000000000000     
   3.3702276975336001       0.27359110588908298     
  0.61389118221497996       0.26460540653860526     
  0.16614291148415999        8.2465947534082318E-002

           4 0
 s           3   1.0000000000000000     
   3.3702276975336001       0.27359110588908298     
  0.61389118221497996       0.26460540653860526     
  0.16614291148415999        8.2465947534082318E-002

[MO]
Sym=     1a
Ene=  -0.65364946757190368     
Spin= Alpha
Occup=     2.00000000
           1  0.49335491267889409     
           2  0.19506558544840930     
           3  -1.5513061101575546E-002
           4   5.3081290009956601E-003
           5  0.46986252490802294     
           6 -0.22096153432408652     
           7   1.7572517389885682E-002
           8  -6.0032091243260120E-003
           9  0.11418068754823515     
          10  0.11418068812504351     
Sym=     2a
Ene=  -0.57744672000522901     
Spin= Alpha
Occup=     2.00000000
           1  0.31721842315467175     
           2 -0.41110071210932575     
           3   3.2693609227212019E-002
           4  -1.1145498912402603E-002
           5 -0.43267413240037250     
           6  -1.3545058368109878E-002
           7   1.0771010146718644E-003
           8  -3.5554864441751324E-004
           9  0.30755710296222666     
          10  0.30755717606305816     
Sym=     3a
Ene=  -0.53659209947343911     
Spin= Alpha
Occup=     2.00000000
           1   2.4160476718653721E-008
           2   4.3323542955158605E-002
           3  0.54538703880456962     
           4   1.8244620327734541E-003
           5  -5.4222998909512362E-008
           6   2.9502332599134588E-002
           7  0.37139531527962782     
           8   1.2424151372875938E-003
           9  0.32727392210295181     
          10 -0.32727386577139711     
Sym=     4a
Ene=  -0.48405612928985514     
Spin= Alpha
Occup=     2.00000000
           1  -4.8041735119539443E-005
           2  -1.6503087582028148E-002
           3  -7.1485204104939780E-004
           4  0.60557021000179101     
           5   4.9369287734424883E-005
           6  -1.8130450176583233E-002
           7  -7.8852099220123124E-004
           8  0.66623437173372890     
           9   8.1993407916154989E-006
          10   8.1838970402744344E-006
Sym=     5a
Ene=  -0.43491968675627385     
Spin= Alpha
Occup=     2.00000000
           1 -0.11671873754298476     
           2 -0.26537318986865960     
           3   2.1104508108349001E-002
           4  -7.2430088857043167E-003
           5  0.61140671937795177     
           6  0.69042818784611881     
           7  -5.4907657141296751E-002
           8   1.8711902168831836E-002
           9  0.15965266538402828     
          10  0.15965274919196676     
Sym=     6a
Ene=  -0.36994542926943186     
Spin= Alpha
Occup=     1.00000000
           1   6.0389437410581418E-009
           2   1.1944021060859844E-002
           3  0.15035969660599802     
           4   5.0299288149972950E-004
           5   8.6765626788263450E-008
           6  -7.1463969618363793E-002
           7 -0.89963804359087007     
           8  -3.0095438287774893E-003
           9  0.35165806851685749     
          10 -0.35165804620430052     
Sym=     7a
Ene=  -0.24751402293427521     
Spin= Alpha
Occup=     0.00000000
           1   7.2799564743088969E-005
           2   2.2608004372660168E-002
           3   9.8358108513934466E-004
           4 -0.83086459739472174     
           5   9.6709896347429391E-006
           6  -2.1337122564691294E-002
           7  -9.2461320253137212E-004
           8  0.78305971464103996     
           9  -3.4796972259333220E-005
          10  -3.4789235209025835E-005
Sym=     8a
Ene=   0.11787755118946661     
Spin= Alpha
Occup=     0.00000000
           1   1.0591005153576691     
           2 -0.50769123171979791     
           3   4.0374891922744842E-002
           4  -1.3676604269050275E-002
           5  -1.9393415164810558E-002
           6  0.23425096743483356     
           7  -1.8629205792812829E-002
           8   6.3251634741562550E-003
           9 -0.75664001777195122     
          10 -0.75664007221059459     
Sym=     9a
Ene=   0.23579267501030229     
Spin= Alpha
Occup=     0.00000000
           1   3.7610768603258265E-008
           2   8.8435067317684746E-002
           3   1.1132809865879372     
           4   3.7242451497736077E-003
           5   3.4052225590128064E-009
           6  -2.6367468731986914E-002
           7 -0.33193174592123587     
           8  -1.1104068404211985E-003
           9 -0.81199058802946433     
          10  0.81199052625142853     
Sym=    10a
Ene=   0.63464091547047052     
Spin= Alpha
Occup=     0.00000000
           1 -0.61938399382702269     
           2  -1.1258497288646312     
           3   8.9535806822514899E-002
           4  -3.0583045733398088E-002
           5  0.86196972241309244     
           6 -0.95312297413614289     
           7   7.5799385977173769E-002
           8  -2.5913701795054866E-002
           9 -0.17870839827391544     
          10 -0.17870840128701868     
