 Entering Gaussian System
 *********************************************
 Gaussian 98:
 frequency output generated by the xtb code
 *********************************************
                         Standard orientation:
 --------------------------------------------------------------------
  Center     Atomic     Atomic              Coordinates (Angstroms)
  Number     Number      Type              X           Y           Z
 --------------------------------------------------------------------
    1          6             0        0.002526   -0.000201    0.000021
    2          7             0        1.211881   -0.096378    0.032895
    3          1             0       -0.535080    0.956230   -0.013421
    4          1             0       -0.679327   -0.859652   -0.019495
 --------------------------------------------------------------------
     1 basis functions        1 primitive gaussians
     1 alpha electrons        1 beta electrons

 Harmonic frequencies (cm**-1), IR intensities (KM/Mole),
 Raman scattering activities (A**4/amu), Raman depolarization ratios,
 reduced masses (AMU), force constants (mDyne/A) and normal coordinates:
                      1                      2                      3
                        a                      a                      a 
 Frequencies --   850.7582               938.4145              1295.1272
 Red. masses --     4.4242                 4.2938                 1.6393
 Frc consts  --     0.0000                 0.0000                 0.0000
 IR Inten    --     0.1388                 0.1050                 0.1436
 Raman Activ --     0.0000                 0.0000                 0.0000
 Depolar     --     0.0000                 0.0000                 0.0000
 Atom AN      X      Y      Z        X      Y      Z        X      Y      Z
   1   6    -0.04  -0.46  -0.00     0.01   0.00  -0.52     0.19  -0.01   0.01
   2   7     0.02   0.28   0.00    -0.00  -0.00   0.16     0.13  -0.01   0.00
   3   1     0.55   0.22   0.02    -0.02  -0.00   0.59    -0.61  -0.33  -0.02
   4   1    -0.51   0.31  -0.01    -0.02  -0.00   0.59    -0.55   0.42  -0.01
                      4                      5                      6
                        a                      a                      a 
 Frequencies --  1853.2532              2779.5095              2845.0728
 Red. masses --    12.7703                 1.9978                 1.4069
 Frc consts  --     0.0000                 0.0000                 0.0000
 IR Inten    --     0.1267                 0.1287                 0.0727
 Raman Activ --     0.0000                 0.0000                 0.0000
 Depolar     --     0.0000                 0.0000                 0.0000
 Atom AN      X      Y      Z        X      Y      Z        X      Y      Z
   1   6     0.70  -0.06   0.02    -0.02  -0.30  -0.00    -0.19   0.02  -0.01
   2   7    -0.69   0.06  -0.02    -0.00  -0.01  -0.00    -0.01   0.00  -0.00
   3   1     0.07  -0.07   0.00    -0.36   0.57  -0.01     0.30  -0.62   0.01
   4   1     0.08   0.05   0.00     0.44   0.51   0.01     0.40   0.57   0.01
