4
 energy: -5.883876349336 gnorm: 0.249353466386 xtb: 6.2.2 (9d81278992624c895f80dd42a50cac0aa55982e2)
C        -0.10647400000000    0.00746100000000    0.29771100000000
N         1.29405300000000   -0.10256900000000   -0.06564000000000
H        -0.52206600000000    0.95052000000000   -0.11301300000000
H        -0.66551300000000   -0.85541300000000   -0.11905800000000
4
 energy: -5.942182376063 gnorm: 0.138565940640 xtb: 6.2.2 (9d81278992624c895f80dd42a50cac0aa55982e2)
C        -0.05148523898487    0.00361159474743    0.14275590095050
N         1.22888706388273   -0.09756099779401   -0.01532893818989
H        -0.51379478554781    0.99000708654344   -0.06055687386345
H        -0.66360703935006   -0.89605868349686   -0.06687008889716
4
 energy: -5.931249953866 gnorm: 0.366282822314 xtb: 6.2.2 (9d81278992624c895f80dd42a50cac0aa55982e2)
C         0.03094157923902   -0.00266149484269    0.06081433847796
N         1.13116805069312   -0.08992156658348    0.02127930749209
H        -0.50899285400987    0.95351754185012   -0.03801006829089
H        -0.65311677592226   -0.86093548042394   -0.04408357767916
4
 energy: -5.955583703288 gnorm: 0.045086025641 xtb: 6.2.2 (9d81278992624c895f80dd42a50cac0aa55982e2)
C         0.00295939539734   -0.00027020176255    0.01041960307420
N         1.23243085737520   -0.09799697672800    0.03085838764691
H        -0.54363038925588    0.98157252143957   -0.01751784027637
H        -0.69175986351666   -0.88330634294901   -0.02376015044474
4
 energy: -5.956649405733 gnorm: 0.020268792973 xtb: 6.2.2 (9d81278992624c895f80dd42a50cac0aa55982e2)
C        -0.00237152951517    0.00008039956527    0.03218256233492
N         1.21557811781256   -0.09663413409182    0.02362241303000
H        -0.53437468299016    0.95759993998718   -0.02485871382860
H        -0.67883190530724   -0.86104720546064   -0.03094626153633
4
 energy: -5.957061263340 gnorm: 0.007991999892 xtb: 6.2.2 (9d81278992624c895f80dd42a50cac0aa55982e2)
C         0.00658491297217   -0.00054356045839    0.00604798654268
N         1.21297199606817   -0.09645600964164    0.03226198084570
H        -0.53774459223501    0.95537067967026   -0.01611941334642
H        -0.68181231680532   -0.85837210957023   -0.02219055404196
4
 energy: -5.957090740628 gnorm: 0.003172257290 xtb: 6.2.2 (9d81278992624c895f80dd42a50cac0aa55982e2)
C         0.00417612525762   -0.00034144329804    0.00282849840990
N         1.21249667377290   -0.09641923484588    0.03255243118538
H        -0.53621335451947    0.95637408077477   -0.01465113353201
H        -0.68045944451104   -0.85961440263085   -0.02072979606327
4
 energy: -5.957097914290 gnorm: 0.000043726122 xtb: 6.2.2 (9d81278992624c895f80dd42a50cac0aa55982e2)
C         0.00245877978369   -0.00019609736220    0.00016123498127
N         1.21180977649157   -0.09636565994229    0.03284622490563
H        -0.53501101170222    0.95627741587077   -0.01346438705284
H        -0.67925754457304   -0.85971665856628   -0.01954307283407
4
 energy: -5.957097921217 gnorm: 0.000021921830 xtb: 6.2.2 (9d81278992624c895f80dd42a50cac0aa55982e2)
C         0.00252569671950   -0.00020093981858    0.00002083711890
N         1.21188182676428   -0.09637156113501    0.03289905537912
H        -0.53508491532960    0.95622714921229   -0.01342078893344
H        -0.67932260815418   -0.85965564825871   -0.01949910356457
