$hessian                                                                        
        0.5763524598   0.0087273900  -0.0000020271  -0.3986630237   0.1701950952
        0.0000010946  -0.1776894361  -0.1789224852   0.0000009325
        0.0087273900   0.3172121277  -0.0000005841   0.1698300072  -0.1061819825
       -0.0000004075  -0.1785573972  -0.2110301452   0.0000009916
       -0.0000020271  -0.0000005841   0.0000000000   0.0000010952  -0.0000004088
       -0.0000000000   0.0000009319   0.0000009929  -0.0000000000
       -0.3986630237   0.1698300072   0.0000010952   0.4555525144  -0.1727695245
       -0.0000012886  -0.0568894908   0.0029395173   0.0000001935
        0.1701950952  -0.1061819825  -0.0000004088  -0.1727695245   0.0879012846
        0.0000004497   0.0025744293   0.0182806979  -0.0000000409
        0.0000010946  -0.0000004075  -0.0000000000  -0.0000012886   0.0000004497
        0.0000000000   0.0000001941  -0.0000000422  -0.0000000000
       -0.1776894361  -0.1785573972   0.0000009319  -0.0568894908   0.0025744293
        0.0000001941   0.2345789269   0.1759829679  -0.0000011260
       -0.1789224852  -0.2110301452   0.0000009929   0.0029395173   0.0182806979
       -0.0000000422   0.1759829679   0.1927494472  -0.0000009507
        0.0000009325   0.0000009916  -0.0000000000   0.0000001935  -0.0000000409
       -0.0000000000  -0.0000011260  -0.0000009507   0.0000000000
