      -----------------------------------------------------------      
     |                   =====================                   |     
     |                           x T B                           |     
     |                   =====================                   |     
     |                         S. Grimme                         |     
     |          Mulliken Center for Theoretical Chemistry        |     
     |                    University of Bonn                     |     
      -----------------------------------------------------------      

   * xtb version 6.2.2 (9d81278992624c895f80dd42a50cac0aa55982e2) compiled by '@Darwin' on 04/03/2020

   xtb is free software: you can redistribute it and/or modify it under
   the terms of the GNU Lesser General Public License as published by
   the Free Software Foundation, either version 3 of the License, or
   (at your option) any later version.
   
   xtb is distributed in the hope that it will be useful,
   but WITHOUT ANY WARRANTY; without even the implied warranty of
   MERCHANTABILITY or FITNESS FOR A PARTICULAR PURPOSE.  See the
   GNU Lesser General Public License for more details.
   
   Cite this work as:
   * S. Grimme, C. Bannwarth, P. Shushkov, J. Chem. Theory Comput., 2017,
     13, 1989-2009. DOI: 10.1021/acs.jctc.7b00118
   * C. Bannwarth, S. Ehlert and S. Grimme., J. Chem. Theory Comput., 2019,
     15, 1652-1671. DOI: 10.1021/acs.jctc.8b01176
   * P. Pracht, E. Caldeweyher, S. Ehlert, S. Grimme, ChemRxiv, 2019, preprint.
     DOI: 10.26434/chemrxiv.8326202.v1
   
   for DFT-D4:
   * E. Caldeweyher, C. Bannwarth and S. Grimme, J. Chem. Phys., 2017,
     147, 034112. DOI: 10.1063/1.4993215
   * E. Caldeweyher, S. Ehlert, A. Hansen, H. Neugebauer, S. Spicher,
     C. Bannwarth and S. Grimme, J. Chem. Phys., 2019, 150, 154122.
     DOI: 10.1063/1.5090222
   
   for sTDA-xTB:
   * S. Grimme and C. Bannwarth, J. Chem. Phys., 2016, 145, 054103.
     DOI: 10.1063/1.4959605
   
   in the mass-spec context:
   * V. Asgeirsson, C. Bauer and S. Grimme, Chem. Sci., 2017, 8, 4879.
     DOI: 10.1039/c7sc00601b
   
   for metadynamics refer to:
   * S. Grimme, J. Chem. Theory Comput., 2019, 155, 2847-2862
     DOI: 10.1021/acs.jctc.9b00143
   
   with help from (in alphabetical order)
   C. Bannwarth, F. Bohle, G. Brandenburg, E. Caldeweyher, M. Checinski,
   S. Dohm, S. Ehlert, S. Ehrlich, F. März, H. Neugebauer, J. Pisarek,
   P. Pracht, P. Shushkov, and S. Spicher.
   
 * started run on 2020/05/12 at 11:44:43.996     

           -------------------------------------------------
          |                Calculation Setup                |
           -------------------------------------------------

          program call               : xtb --input H1N1O1_0_S_2.input H1N1O1_0_S_2.xyz --ohess --molden --namespace H1N1O1_0_S_2 output.out
          calculation namespace      : H1N1O1_0_S_2
          coordinate file            : H1N1O1_0_S_2.xyz
          number of atoms            :                     3
          number of electrons        :                    12
          charge                     :                     0
          spin                       :                   1.0
          first test random number   :      0.44084733161290

   ID    Z sym.   atoms
    1    8 O      1
    2    7 N      2
    3    1 H      3

           -------------------------------------------------
          |                 G F N 2 - x T B                 |
           -------------------------------------------------

        Reference                      10.1021/acs.jctc.8b01176
      * Hamiltonian:
        H0-scaling (s, p, d)           1.850000    2.230000    2.230000
        zeta-weighting                 0.500000
      * Dispersion:
        s8                             2.700000
        a1                             0.520000
        a2                             5.000000
        s9                             5.000000
      * Repulsion:
        kExp                           1.500000    1.000000
        rExp                           1.000000
      * Coulomb:
        alpha                          2.000000
        third order                    shell-resolved
        anisotropic                    true
        a3                             3.000000
        a5                             4.000000
        cn-shift                       1.200000
        cn-exp                         4.000000
        max-rad                        5.000000


          ...................................................
          :                      SETUP                      :
          :.................................................:
          :  # basis functions                   9          :
          :  # atomic orbitals                   9          :
          :  # shells                            5          :
          :  # electrons                        12          :
          :  max. iterations                   250          :
          :  Hamiltonian                  GFN2-xTB          :
          :  restarted?                      false          :
          :  GBSA solvation                  false          :
          :  PC potential                    false          :
          :  electronic temp.          300.0000000     K    :
          :  accuracy                    1.0000000          :
          :  -> integral cutoff          0.2500000E+02      :
          :  -> integral neglect         0.1000000E-07      :
          :  -> SCF convergence          0.1000000E-05 Eh   :
          :  -> wf. convergence          0.1000000E-03 e    :
          :  Broyden damping             0.4000000          :
          ...................................................

 iter      E             dE          RMSdq      gap      omega  full diag
   1     -7.2936858 -0.729369E+01  0.527E+00    9.62       0.0  T
   2     -7.3016871 -0.800129E-02  0.230E+00    9.81       1.0  T
   3     -7.3020374 -0.350247E-03  0.102E+00    9.72       1.0  T
   4     -7.3021165 -0.790952E-04  0.187E-01    9.72       1.0  T
   5     -7.3021229 -0.640447E-05  0.409E-02    9.73       1.4  T
   6     -7.3021239 -0.101739E-05  0.253E-02    9.74       2.3  T
   7     -7.3021248 -0.945885E-06  0.336E-03    9.74      17.2  T
   8     -7.3021248  0.101848E-08  0.166E-03    9.74      34.8  T
   9     -7.3021248 -0.377912E-08  0.485E-04    9.74     118.9  T
  10     -7.3021248 -0.308304E-09  0.859E-05    9.74     672.3  T

   *** convergence criteria satisfied after 10 iterations ***

         #    Occupation            Energy/Eh            Energy/eV
      -------------------------------------------------------------
         1        2.0000           -0.7539691             -20.5165
         2        2.0000           -0.6637975             -18.0628
         3        2.0000           -0.6117385             -16.6463
         4        2.0000           -0.5611631             -15.2700
         5        2.0000           -0.4911590             -13.3651
         6        1.0000           -0.3987747             -10.8512
         7        1.0000           -0.3696233             -10.0580 (HOMO)
         8                         -0.0117720              -0.3203 (LUMO)
         9                          0.0743933               2.0243
      -------------------------------------------------------------
                  HL-Gap            0.3578513 Eh            9.7376 eV
             Fermi-level           -0.3178322 Eh           -8.6487 eV

 transition dipole moment (au) for excitation:           6           7
     X       Y       Z   
  -0.0000   0.0000   0.0228  total (au/Debye):    0.023   0.058
 dE (eV)             :    0.793
 oscillator strength :  0.14228E-04

 SCC (total)                   0 d,  0 h,  0 min,  0.002 sec
 SCC setup                      ...        0 min,  0.000 sec (  4.740%)
 Dispersion                     ...        0 min,  0.000 sec (  0.614%)
 integral evaluation            ...        0 min,  0.000 sec ( 20.538%)
 zeroth order Hamiltonian       ...        0 min,  0.000 sec (  0.688%)
 iterations                     ...        0 min,  0.001 sec ( 38.458%)
 molecular gradient             ...        0 min,  0.000 sec ( 16.384%)
 printout                       ...        0 min,  0.000 sec ( 17.847%)

         :::::::::::::::::::::::::::::::::::::::::::::::::::::
         ::                     SUMMARY                     ::
         :::::::::::::::::::::::::::::::::::::::::::::::::::::
         :: total energy              -7.284722957879 Eh    ::
         :: gradient norm              0.063978423422 Eh/a0 ::
         :: HOMO-LUMO gap              9.737629791419 eV    ::
         ::.................................................::
         :: SCC energy                -7.302124836555 Eh    ::
         :: -> isotropic ES            0.014238432445 Eh    ::
         :: -> anisotropic ES          0.002087186937 Eh    ::
         :: -> anisotropic XC          0.004284907929 Eh    ::
         :: -> dispersion             -0.000358211461 Eh    ::
         :: repulsion energy           0.017401878459 Eh    ::
         :: add. restraining           0.000000000000 Eh    ::
         :::::::::::::::::::::::::::::::::::::::::::::::::::::

      ----------------------------------------------------------- 
     |                   =====================                   |
     |                        A N C O P T                        |
     |                   =====================                   |
     |               Approximate Normal Coordinate               |
     |                Rational Function Optimizer                |
      ----------------------------------------------------------- 

          ...................................................
          :                      SETUP                      :
          :.................................................:
          :   optimization level            normal          :
          :   max. optcycles                   200          :
          :   ANC micro-cycles                  20          :
          :   degrees of freedom                 3          :
          :.................................................:
          :   RF solver                   davidson          :
          :   write xtbopt.log                true          :
          :   linear?                        false          :
          :   energy convergence         0.5000000E-05 Eh   :
          :   grad. convergence          0.1000000E-02 Eh/α :
          :   maximium RF displ.         1.0000000          :
          :   Hlow (freq-cutoff)         0.1000000E-01      :
          :   Hmax (freq-cutoff)         5.0000000          :
          :   S6 in model hess.         20.0000000          :
          ...................................................

generating ANC from model Hessian ...
Using Lindh-Hessian (1995)
 Shifting diagonal of input Hessian by    0.0000000000000000     
 Lowest  eigenvalues of input Hessian
   -0.000000   -0.000000   -0.000000   -0.000000    0.000000    0.000000
    0.238125    1.131146    1.400036
 Highest eigenvalues
   -0.000000    0.000000    0.000000    0.238125    1.131146    1.400036


........................................................................
.............................. CYCLE    1 ..............................
........................................................................
   1     -7.3021248 -0.730212E+01  0.607E-06    9.74       0.0  T
   2     -7.3021248 -0.364153E-13  0.366E-06    9.74   15755.2  T
   3     -7.3021248 -0.177636E-14  0.216E-06    9.74   26675.1  T
     SCC iter.                  ...        0 min,  0.000 sec
     gradient                   ...        0 min,  0.000 sec
 * total energy  :    -7.2847230 Eh     change       -0.3641709E-10 Eh
   gradient norm :     0.0639775 Eh/α   predicted     0.0000000E+00 (-100.00%)
   displ. norm   :     0.0540843 α      lambda       -0.3321281E-02
   maximum displ.:     0.0397079 α      in ANC's #2, #3, #1, ...

........................................................................
.............................. CYCLE    2 ..............................
........................................................................
   1     -7.3077492 -0.730775E+01  0.453E-01   10.49       0.0  T
   2     -7.3078340 -0.847387E-04  0.230E-01   10.46       1.0  T
   3     -7.3078380 -0.398764E-05  0.919E-02   10.46       1.0  T
   4     -7.3078388 -0.874563E-06  0.162E-02   10.46       3.6  T
   5     -7.3078389 -0.508991E-07  0.395E-03   10.46      14.6  T
   6     -7.3078389 -0.280917E-08  0.635E-04   10.46      90.9  T
   7     -7.3078389 -0.615445E-10  0.279E-04   10.46     206.9  T
     SCC iter.                  ...        0 min,  0.000 sec
     gradient                   ...        0 min,  0.000 sec
 * total energy  :    -7.2871887 Eh     change       -0.2465767E-02 Eh
   gradient norm :     0.0294908 Eh/α   predicted    -0.1665499E-02 ( -32.46%)
   displ. norm   :     0.0711157 α      lambda       -0.1710205E-02
   maximum displ.:     0.0525817 α      in ANC's #1, #2, #3, ...

........................................................................
.............................. CYCLE    3 ..............................
........................................................................
   1     -7.3114425 -0.731144E+01  0.470E-01   10.71       0.0  T
   2     -7.3114894 -0.468784E-04  0.256E-01   10.68       1.0  T
   3     -7.3114918 -0.244239E-05  0.708E-02   10.68       1.0  T
   4     -7.3114921 -0.294436E-06  0.128E-02   10.67       4.5  T
   5     -7.3114921 -0.302904E-07  0.243E-03   10.67      23.8  T
   6     -7.3114921 -0.785888E-09  0.405E-04   10.67     142.4  T
   7     -7.3114921 -0.235261E-10  0.199E-04   10.67     290.8  T
     SCC iter.                  ...        0 min,  0.000 sec
     gradient                   ...        0 min,  0.000 sec
 * total energy  :    -7.2880754 Eh     change       -0.8866859E-03 Eh
   gradient norm :     0.0077168 Eh/α   predicted    -0.8594271E-03 (  -3.07%)
   displ. norm   :     0.0266741 α      lambda       -0.1446535E-03
   maximum displ.:     0.0266235 α      in ANC's #1, #2, #3, ...

........................................................................
.............................. CYCLE    4 ..............................
........................................................................
   1     -7.3112353 -0.731124E+01  0.120E-01   10.48       0.0  T
   2     -7.3112394 -0.403566E-05  0.612E-02   10.49       1.0  T
   3     -7.3112396 -0.224477E-06  0.206E-02   10.49       2.8  T
   4     -7.3112396 -0.416200E-07  0.438E-03   10.49      13.2  T
   5     -7.3112397 -0.432695E-08  0.129E-03   10.49      44.9  T
   6     -7.3112397 -0.257169E-09  0.119E-04   10.49     484.8  T
   7     -7.3112397 -0.133760E-11  0.481E-05   10.49    1201.0  T
     SCC iter.                  ...        0 min,  0.001 sec
     gradient                   ...        0 min,  0.000 sec
 * total energy  :    -7.2881766 Eh     change       -0.1011409E-03 Eh
   gradient norm :     0.0031136 Eh/α   predicted    -0.7237678E-04 ( -28.44%)
   displ. norm   :     0.0176731 α      lambda       -0.3826073E-04
   maximum displ.:     0.0176163 α      in ANC's #1, #2, #3, ...

........................................................................
.............................. CYCLE    5 ..............................
........................................................................
   1     -7.3110384 -0.731104E+01  0.810E-02   10.36       0.0  T
   2     -7.3110403 -0.192554E-05  0.408E-02   10.36       1.4  T
   3     -7.3110404 -0.103337E-06  0.142E-02   10.36       4.1  T
   4     -7.3110405 -0.204634E-07  0.295E-03   10.36      19.6  T
   5     -7.3110405 -0.200243E-08  0.874E-04   10.36      66.1  T
   6     -7.3110405 -0.123345E-09  0.815E-05   10.36     708.6  T
     SCC iter.                  ...        0 min,  0.000 sec
     gradient                   ...        0 min,  0.000 sec
 * total energy  :    -7.2881957 Eh     change       -0.1915444E-04 Eh
   gradient norm :     0.0002022 Eh/α   predicted    -0.1913770E-04 (  -0.09%)
   displ. norm   :     0.0002515 α      lambda       -0.3144275E-07
   maximum displ.:     0.0002107 α      in ANC's #2, #3, #1, ...

........................................................................
.............................. CYCLE    6 ..............................
........................................................................
   1     -7.3110633 -0.731106E+01  0.152E-03   10.37       0.0  T
   2     -7.3110633 -0.130595E-08  0.644E-04   10.37      89.6  T
   3     -7.3110633 -0.137412E-09  0.324E-04   10.37     178.3  T
     SCC iter.                  ...        0 min,  0.000 sec
     gradient                   ...        0 min,  0.000 sec
 * total energy  :    -7.2881957 Eh     change       -0.2485581E-07 Eh
   gradient norm :     0.0000049 Eh/α   predicted    -0.1676963E-07 ( -32.53%)
   displ. norm   :     0.0000071 α      lambda       -0.2975376E-10
   maximum displ.:     0.0000064 α      in ANC's #3, #2, #1, ...

   *** GEOMETRY OPTIMIZATION CONVERGED AFTER 6 ITERATIONS ***

------------------------------------------------------------------------
 total energy gain   :        -0.0034728 Eh       -2.1792 kcal/mol
 total RMSD          :         0.0880102 a0        0.0466 Å
 total power (kW/mol):        -1.5196276 (step)-1530.9320 (real)
------------------------------------------------------------------------

 ANCopt (total)                0 d,  0 h,  0 min,  0.006 sec
 optimizer setup                ...        0 min,  0.000 sec (  1.092%)
 model hessian                  ...        0 min,  0.000 sec (  0.652%)
 ANC generation                 ...        0 min,  0.000 sec (  0.588%)
 coordinate transformation      ...        0 min,  0.000 sec (  0.216%)
 single point calculation       ...        0 min,  0.005 sec ( 89.576%)
 optimization log               ...        0 min,  0.000 sec (  2.063%)
 hessian update                 ...        0 min,  0.000 sec (  0.204%)
 rational function              ...        0 min,  0.000 sec (  1.927%)

================
 final structure:
================
3
 xtb: 6.2.2 (9d81278992624c895f80dd42a50cac0aa55982e2)
O        -0.15383780428122    0.39699860934345    0.00000000000000
N         1.02719790327304   -0.13752757011415    0.00000000000000
H        -0.87336009899182   -0.25947103922930    0.00000000000000

 Bond Distances (Angstroems)
 ---------------------------
O1-N2=1.2964         O1-H3=0.9740         N2-O1=1.2964         H3-O1=0.9740         
 O  H  Rav=0.9740 sigma=0.0000  Rmin=0.9740  Rmax=0.9740     1
 O  N  Rav=1.2964 sigma=0.0000  Rmin=1.2964  Rmax=1.2964     1

 selected bond angles (degree)
 --------------------
H3-O1-N2=113.27                

 selected dihedral angles (degree)
 ---------------------------------

           -------------------------------------------------
          |                Final Singlepoint                |
           -------------------------------------------------

          ...................................................
          :                      SETUP                      :
          :.................................................:
          :  # basis functions                   9          :
          :  # atomic orbitals                   9          :
          :  # shells                            5          :
          :  # electrons                        12          :
          :  max. iterations                   250          :
          :  Hamiltonian                  GFN2-xTB          :
          :  restarted?                      false          :
          :  GBSA solvation                  false          :
          :  PC potential                    false          :
          :  electronic temp.          300.0000000     K    :
          :  accuracy                    1.0000000          :
          :  -> integral cutoff          0.2500000E+02      :
          :  -> integral neglect         0.1000000E-07      :
          :  -> SCF convergence          0.1000000E-05 Eh   :
          :  -> wf. convergence          0.1000000E-03 e    :
          :  Broyden damping             0.4000000          :
          ...................................................

 iter      E             dE          RMSdq      gap      omega  full diag
   1     -7.3110633 -0.731106E+01  0.106E-04   10.37       0.0  T
   2     -7.3110633 -0.305000E-11  0.613E-05   10.37     941.9  T
   3     -7.3110633 -0.979661E-12  0.151E-05   10.37    3816.7  T

   *** convergence criteria satisfied after 3 iterations ***

         #    Occupation            Energy/Eh            Energy/eV
      -------------------------------------------------------------
         1        2.0000           -0.7602900             -20.6885
         2        2.0000           -0.6762699             -18.4022
         3        2.0000           -0.6105175             -16.6130
         4        2.0000           -0.5700996             -15.5132
         5        2.0000           -0.4801869             -13.0665
         6        1.0000           -0.3840449             -10.4504
         7        1.0000           -0.3507814              -9.5452 (HOMO)
         8                          0.0301911               0.8215 (LUMO)
         9                          0.1632480               4.4422
      -------------------------------------------------------------
                  HL-Gap            0.3809725 Eh           10.3668 eV
             Fermi-level           -0.2962055 Eh           -8.0602 eV

 transition dipole moment (au) for excitation:           6           7
     X       Y       Z   
   0.0000   0.0000  -0.0216  total (au/Debye):    0.022   0.055
 dE (eV)             :    0.905
 oscillator strength :  0.14693E-04

 SCC (total)                   0 d,  0 h,  0 min,  0.001 sec
 SCC setup                      ...        0 min,  0.000 sec (  3.943%)
 Dispersion                     ...        0 min,  0.000 sec (  0.373%)
 integral evaluation            ...        0 min,  0.000 sec ( 31.031%)
 zeroth order Hamiltonian       ...        0 min,  0.000 sec (  0.397%)
 iterations                     ...        0 min,  0.000 sec ( 14.886%)
 molecular gradient             ...        0 min,  0.000 sec ( 23.682%)
 printout                       ...        0 min,  0.000 sec ( 24.755%)

         :::::::::::::::::::::::::::::::::::::::::::::::::::::
         ::                     SUMMARY                     ::
         :::::::::::::::::::::::::::::::::::::::::::::::::::::
         :: total energy              -7.288195731704 Eh    ::
         :: gradient norm              0.000005903005 Eh/a0 ::
         :: HOMO-LUMO gap             10.366788679535 eV    ::
         ::.................................................::
         :: SCC energy                -7.311063315445 Eh    ::
         :: -> isotropic ES            0.013955500546 Eh    ::
         :: -> anisotropic ES          0.002757276112 Eh    ::
         :: -> anisotropic XC          0.004766219249 Eh    ::
         :: -> dispersion             -0.000358529739 Eh    ::
         :: repulsion energy           0.022867583713 Eh    ::
         :: add. restraining           0.000000000000 Eh    ::
         :::::::::::::::::::::::::::::::::::::::::::::::::::::

           ------------------------------------------------- 
          |                Numerical Hessian                |
           ------------------------------------------------- 
step length          :   0.00500
SCC accuracy         :   0.30000
Hessian scale factor :   1.00000
frozen atoms in %    :   0.00000    0
RMS gradient         :   0.00001
estimated CPU  time      0.00 min
estimated wall time      0.00 min

writing file <hessian>.

 projected vibrational frequencies (cm-1)
eigval :       -0.00    -0.00    -0.00    -0.00     0.00     0.00
eigval :     1030.01  1340.69  3293.28
           -------------------------------------------------
          |                Property Printout                |
           -------------------------------------------------

    * Orbital Energies and Occupations

         #    Occupation            Energy/Eh            Energy/eV
      -------------------------------------------------------------
         1        2.0000           -0.7602900             -20.6885
         2        2.0000           -0.6762698             -18.4022
         3        2.0000           -0.6105174             -16.6130
         4        2.0000           -0.5700996             -15.5132
         5        2.0000           -0.4801868             -13.0665
         6        1.0000           -0.3840448             -10.4504
         7        1.0000           -0.3507813              -9.5452 (HOMO)
Molecule has the following symmetry elements: (sigma) 
It seems to be the Cs point group
         8                          0.0301911               0.8215 (LUMO)
         9                          0.1632481               4.4422
      -------------------------------------------------------------
                  HL-Gap            0.3809724 Eh           10.3668 eV
             Fermi-level           -0.2962054 Eh           -8.0602 eV

     #   Z        covCN         q      C6AA      α(0)
     1   8 O      1.725    -0.202    17.368     5.627
     2   7 N      0.922    -0.131    23.793     7.049
     3   1 H      0.804     0.334     0.628     1.245

 Mol. C6AA /au·bohr⁶  :         96.500498
 Mol. C8AA /au·bohr⁸  :       1965.248565
 Mol. α(0) /au        :         13.920862


Wiberg/Mayer (AO) data.
largest (>0.10) Wiberg bond orders for each atom
          total WBO             WBO to atom ...
     1  O   2.086        N    2 1.259    H    3 0.828
     2  N   1.267        O    1 1.259
     3  H   0.837        O    1 0.828

MOs/occ written to file <molden.input>


molecular dipole:
                 x           y           z       tot (Debye)
 q only:       -0.747      -0.281       0.000
   full:       -1.100      -0.352       0.000       2.936
molecular quadrupole (traceless):
                xx          xy          yy          xz          yz          zz
 q only:        0.419       0.571      -0.241      -0.000      -0.000      -0.177
  q+dip:       -0.595       1.515       0.090       0.000      -0.000       0.505
   full:       -0.620       1.571       0.196       0.000      -0.000       0.424

           -------------------------------------------------
          |                Geometry Summary                 |
           -------------------------------------------------

      molecular mass/u    :       31.0140489
   center of mass at/Å    :        0.3561634       0.1342567      -0.0000015
  moments of inertia/u·Å² :        0.7223408E+00   0.1356527E+02   0.1428761E+02
rotational constants/cm⁻¹ :        0.2333751E+02   0.1242705E+01   0.1179878E+01

 * 2 selected distances

     #   Z        #   Z                                     value/Å
     1   8 O      2   7 N                                 1.2963655 (max)
     1   8 O      3   1 H                                 0.9739942 (min)

 * 2 distinct bonds (by element types)

   Z      Z             #   av. dist./Å        max./Å        min./Å
   1 H    8 O           1     0.9739942     0.9739942     0.9739942
   7 N    8 O           1     1.2963655     1.2963655     1.2963655

           -------------------------------------------------
          |               Frequency Printout                |
           -------------------------------------------------
 projected vibrational frequencies (cm-1)
eigval :       -0.00    -0.00    -0.00    -0.00     0.00     0.00
eigval :     1030.01  1340.69  3293.28
 reduced masses (amu)
   1: 13.64   2:  1.01   3: 14.37   4: 13.93   5: 16.00   6: 14.51   7:  3.54   8: 14.21
   9:  1.84
 IR intensities (amu)
   1:  0.21   2:  0.46   3:  0.19   4:  0.20   5:  0.24   6:  0.26   7:  0.57   8:  0.86
   9:  0.21
 Raman intensities (amu)
   1:  0.00   2:  0.00   3:  0.00   4:  0.00   5:  0.00   6:  0.00   7:  0.00   8:  0.00
   9:  0.00
 output can be read by thermo (or use thermo option).
 writing <g98.out> molden fake output.
 recommended (thermochemical) frequency scaling factor: 1.0
           -------------------------------------------------
          |             Thermodynamic Functions             |
           -------------------------------------------------

cs  symmetry found (for desy threshold:  0.10E+00) used in thermo

          ...................................................
          :                      SETUP                      :
          :.................................................:
          :  # frequencies                           3      :
          :  # imaginary freq.                       0      :
          :  linear?                             false      :
          :  only rotor calc.                    false      :
          :  symmetry                               cs      :
          :  rotational number                       1      :
          :  scaling factor                  1.0000000      :
          :  rotor cutoff                   50.0000000 cm⁻¹ :
          :  imag. cutoff                  -20.0000000 cm⁻¹ :
          :.................................................:

    mode    ω/cm⁻¹     T·S(HO)/kcal·mol⁻¹    T·S(FR)/kcal·mol⁻¹   T·S(vib)
   ------------------------------------------------------------------------
   ------------------------------------------------------------------------

   temp. (K)  partition function   enthalpy   heat capacity  entropy
                                   cal/mol     cal/K/mol   cal/K/mol   J/K/mol
 298.15  VIB   1.01                   26.531      0.475      0.106
         ROT   904.                  888.752      2.981     16.508
         INT   912.                  915.283      3.456     16.613
         TR   0.167E+27             1481.254      4.968     36.212
         TOT                        2396.5369     8.4239    52.8253   221.0212

   temp. (K)  partition function   enthalpy   heat capacity  entropy
                                   cal/mol     cal/K/mol   cal/K/mol   J/K/mol
 120.00  VIB   1.00                    0.013      0.001      0.000
         ROT   231.                  357.707      2.981     13.795
         INT   231.                  357.720      2.982     13.795
         TR   0.427E+26              596.178      4.968     31.693
         TOT                         953.8980     7.9504    45.4873   190.3188

   temp. (K)  partition function   enthalpy   heat capacity  entropy
                                   cal/mol     cal/K/mol   cal/K/mol   J/K/mol
 100.00  VIB   1.00                    0.001      0.000      0.000
         ROT   176.                  298.089      2.981     13.251
         INT   176.                  298.090      2.981     13.251
         TR   0.325E+26              496.815      4.968     30.787
         TOT                         794.9051     7.9492    44.0383   184.2564

   temp. (K)  partition function   enthalpy   heat capacity  entropy
                                   cal/mol     cal/K/mol   cal/K/mol   J/K/mol
  80.00  VIB   1.00                    0.000      0.000     -0.000
         ROT   126.                  238.471      2.981     12.586
         INT   126.                  238.471      2.981     12.586
         TR   0.232E+26              397.452      4.968     29.679
         TOT                         635.9232     7.9490    42.2651   176.8371

   temp. (K)  partition function   enthalpy   heat capacity  entropy
                                   cal/mol     cal/K/mol   cal/K/mol   J/K/mol
  60.00  VIB   1.00                    0.000      0.000     -0.000
         ROT   81.6                  178.853      2.981     11.728
         INT   81.6                  178.853      2.981     11.728
         TR   0.151E+26              298.089      4.968     28.251
         TOT                         476.9424     7.9490    39.9790   167.2721

   temp. (K)  partition function   enthalpy   heat capacity  entropy
                                   cal/mol     cal/K/mol   cal/K/mol   J/K/mol
  40.00  VIB   1.00                    0.000      0.000     -0.000
         ROT   44.4                  119.236      2.981     10.520
         INT   44.4                  119.236      2.981     10.520
         TR   0.821E+25              198.726      4.968     26.237
         TOT                         317.9616     7.9490    36.7569   153.7909

   temp. (K)  partition function   enthalpy   heat capacity  entropy
                                   cal/mol     cal/K/mol   cal/K/mol   J/K/mol
  20.00  VIB   1.00                    0.000      0.000     -0.000
         ROT   15.7                   59.618      2.981      8.454
         INT   15.7                   59.618      2.981      8.454
         TR   0.290E+25               99.363      4.968     22.795
         TOT                         158.9808     7.9490    31.2487   130.7447

   temp. (K)  partition function   enthalpy   heat capacity  entropy
                                   cal/mol     cal/K/mol   cal/K/mol   J/K/mol
  10.00  VIB   1.00                    0.000      0.000     -0.000
         ROT   5.55                   29.809      2.981      6.387
         INT   5.55                   29.809      2.981      6.387
         TR   0.103E+25               49.681      4.968     19.353
         TOT                          79.4904     7.9490    25.7406   107.6985

       T/K    H(0)-H(T)+PV         H(T)/Eh          T*S/Eh         G(T)/Eh
   ------------------------------------------------------------------------
    298.15    0.381912E-02    0.167226E-01    0.250990E-01   -0.837637E-02
    120.00    0.152013E-02    0.144237E-01    0.869863E-02    0.572502E-02
    100.00    0.126676E-02    0.141703E-01    0.701796E-02    0.715232E-02
     80.00    0.101341E-02    0.139169E-01    0.538830E-02    0.852863E-02
     60.00    0.760056E-03    0.136636E-01    0.382263E-02    0.984094E-02
     40.00    0.506704E-03    0.134102E-01    0.234303E-02    0.110672E-01
     20.00    0.253352E-03    0.131569E-01    0.995960E-03    0.121609E-01
     10.00    0.126676E-03    0.130302E-01    0.410202E-03    0.126200E-01 (used)
   ------------------------------------------------------------------------

         :::::::::::::::::::::::::::::::::::::::::::::::::::::
         ::                  THERMODYNAMIC                  ::
         :::::::::::::::::::::::::::::::::::::::::::::::::::::
         :: total free energy          -7.275575739621 Eh   ::
         ::.................................................::
         :: total energy               -7.288195731676 Eh   ::
         :: zero point energy           0.012903517859 Eh   ::
         :: G(RRHO) w/o ZPVE           -0.000283525804 Eh   ::
         :: G(RRHO) contrib.            0.012619992055 Eh   ::
         :::::::::::::::::::::::::::::::::::::::::::::::::::::

optimized geometry written to: xtbopt.xyz


           -------------------------------------------------
          | TOTAL ENERGY               -7.288195731676 Eh   |
          | TOTAL ENTHALPY             -7.275165537801 Eh   |
          | TOTAL FREE ENERGY          -7.275575739621 Eh   |
          | GRADIENT NORM               0.000005854922 Eh/α |
          | HOMO-LUMO GAP              10.366786952634 eV   |
           -------------------------------------------------

------------------------------------------------------------------------
 * finished run on 2020/05/12 at 11:44:44.038     
------------------------------------------------------------------------
 total:
 * wall-time:     0 d,  0 h,  0 min,  0.041 sec
 *  cpu-time:     0 d,  0 h,  0 min,  0.041 sec
 * ratio c/w:     0.998 speedup
 SCF:
 * wall-time:     0 d,  0 h,  0 min,  0.002 sec
 *  cpu-time:     0 d,  0 h,  0 min,  0.002 sec
 * ratio c/w:     1.000 speedup
 ANC optimizer:
 * wall-time:     0 d,  0 h,  0 min,  0.008 sec
 *  cpu-time:     0 d,  0 h,  0 min,  0.008 sec
 * ratio c/w:     0.996 speedup
 numerical hessian:
 * wall-time:     0 d,  0 h,  0 min,  0.016 sec
 *  cpu-time:     0 d,  0 h,  0 min,  0.016 sec
 * ratio c/w:     0.997 speedup

