 Entering Gaussian System
 *********************************************
 Gaussian 98:
 frequency output generated by the xtb code
 *********************************************
                         Standard orientation:
 --------------------------------------------------------------------
  Center     Atomic     Atomic              Coordinates (Angstroms)
  Number     Number      Type              X           Y           Z
 --------------------------------------------------------------------
    1          8             0       -0.153836    0.396999   -0.000000
    2          7             0        1.027197   -0.137533   -0.000003
    3          1             0       -0.873361   -0.259466    0.000004
 --------------------------------------------------------------------
     1 basis functions        1 primitive gaussians
     1 alpha electrons        1 beta electrons

 Harmonic frequencies (cm**-1), IR intensities (KM/Mole),
 Raman scattering activities (A**4/amu), Raman depolarization ratios,
 reduced masses (AMU), force constants (mDyne/A) and normal coordinates:
                      1                      2                      3
                        a                      a                      a 
 Frequencies --  1030.0123              1340.6947              3293.2826
 Red. masses --     3.5395                14.2104                 1.8410
 Frc consts  --     0.0000                 0.0000                 0.0000
 IR Inten    --     0.5739                 0.8631                 0.2055
 Raman Activ --     0.0000                 0.0000                 0.0000
 Depolar     --     0.0000                 0.0000                 0.0000
 Atom AN      X      Y      Z        X      Y      Z        X      Y      Z
   1   8     0.14  -0.34   0.00     0.60  -0.22  -0.00     0.16   0.17  -0.00
   2   7     0.02   0.19  -0.00    -0.69   0.26   0.00     0.02  -0.01  -0.00
   3   1    -0.64   0.65   0.00     0.17  -0.13  -0.00    -0.72  -0.65   0.00
