[Molden Format]
[Title]
[Atoms] AU
O      1     8 -0.29070736259668E+00  0.75022009606056E+00 -0.29460458322702E-06
N      2     7  0.19411211720641E+01 -0.25989958167836E+00 -0.63222032731674E-05
H      3     1 -0.16504138094674E+01 -0.49032051438220E+00  0.66168078563944E-05
[GTO]
           1 0
 s           4   1.0000000000000000     
   69.137961906196551      -0.20478756370077797     
   11.906129132707308      -0.24997023136827334     
  0.95670827744340703       0.40025880240639616     
  0.36462520496073686       0.15952206667693555     
 p           4   1.0000000000000000     
   8.2124193257781641        1.1321556799186829     
   2.1293576997098116        1.0476840782254817     
  0.75066448202360914       0.54956508217158984     
  0.29885246543283073        8.2908486592766617E-002

           2 0
 s           4   1.0000000000000000     
   63.594024466941008      -0.19234388414721629     
   10.951417231523665      -0.23478107924953728     
  0.87999310257376984       0.37593753901700888     
  0.33538715296521110       0.14982889271862770     
 p           4   1.0000000000000000     
   7.2965040481495080       0.97658666315667420     
   1.8918745450712575       0.90372226730345739     
  0.66694432110824120       0.47404958461536373     
  0.26552202674130870        7.1516067715011844E-002

           3 0
 s           3   1.0000000000000000     
   3.3702276975336001       0.27359110588908298     
  0.61389118221497996       0.26460540653860526     
  0.16614291148415999        8.2465947534082318E-002

[MO]
Sym=     1a
Ene=  -0.76028999598284364     
Spin= Alpha
Occup=     2.00000000
           1  0.74510353252665673     
           2   9.6728834284378104E-002
           3 -0.10427323424468107     
           4  -1.6342748679197627E-007
           5  0.22071025757341831     
           6 -0.20415692094486901     
           7   7.5485944107910985E-002
           8   5.7681828084235379E-007
           9  0.14302053617189392     
Sym=     2a
Ene=  -0.67626983967042853     
Spin= Alpha
Occup=     2.00000000
           1  0.19259725557130011     
           2 -0.62031643973617978     
           3  -7.3398959734965075E-002
           4   2.2903996395573386E-006
           5 -0.37848084158150697     
           6  0.12597629358064227     
           7 -0.15017671338975885     
           8  -1.7646950094792614E-007
           9  0.31761616114244318     
Sym=     3a
Ene=  -0.61051743310949824     
Spin= Alpha
Occup=     2.00000000
           1 -0.42188309471445595     
           2   7.1112022306382243E-003
           3 -0.73560001340257897     
           4   1.2478680237345134E-006
           5  0.28362803203047426     
           6 -0.13556075866565220     
           7 -0.24594358340335817     
           8   8.9150212134093629E-007
           9  0.19295463064525048     
Sym=     4a
Ene=  -0.57009958406110228     
Spin= Alpha
Occup=     2.00000000
           1  -1.0795877042784868E-009
           2  -2.9584856242464803E-006
           3  -1.4632606456777501E-006
           4 -0.84757669656487100     
           5  -3.8355217468800213E-009
           6  -1.4452881660344925E-006
           7  -7.2430922401636076E-007
           8 -0.41477778076245259     
           9  -4.3323982209809630E-009
Sym=     5a
Ene=  -0.48018679024082145     
Spin= Alpha
Occup=     2.00000000
           1   1.2894872738416236E-002
           2 -0.24820048061011410     
           3  0.24445006698644042     
           4   4.4342310051760400E-007
           5  0.76934808272734834     
           6  0.53512610304774433     
           7 -0.15630471414363864     
           8  -1.5975646251263469E-006
           9   7.3945566926795173E-002
Sym=     6a
Ene=  -0.38404483733354289     
Spin= Alpha
Occup=     1.00000000
           1  0.19039920037125077     
           2   1.9366025160381450E-002
           3  0.30750401888903545     
           4  -5.7156666184369515E-007
           5   1.6429103610810965E-002
           6 -0.34797115297083236     
           7 -0.89171720203204563     
           8   2.7242126569660202E-006
           9 -0.25252269949597161     
Sym=     7a
Ene=  -0.35078128424291538     
Spin= Alpha
Occup=     1.00000000
           1  -8.9191491750873828E-009
           2   1.9300412486853956E-006
           3   9.5324547909562711E-007
           4  0.55362841606037072     
           5  -4.9460952588920301E-009
           6  -3.2076272952732126E-006
           7  -1.5630627786409848E-006
           8 -0.92349882090628088     
           9   1.3190874211038059E-008
Sym=     8a
Ene=    3.0191126150226275E-002
Spin= Alpha
Occup=     0.00000000
           1 -0.80804016062556228     
           2  -5.7761857359440484E-002
           3  0.67074301299309314     
           4  -9.6829193312949309E-007
           5  0.31323034824012580     
           6 -0.62731461293618040     
           7  0.16282136554225773     
           8   1.9074917993052478E-006
           9  0.83572006364284379     
Sym=     9a
Ene=   0.16324805670993331     
Spin= Alpha
Occup=     0.00000000
           1  -2.1852159084258267E-003
           2 -0.97248273171334743     
           3 -0.11091971853360881     
           4   3.5874207194076537E-006
           5  0.47969658859863418     
           6 -0.60825812562372406     
           7  0.36787552887975744     
           8   1.4818251592259834E-006
           9 -0.80008312216623168     
