3
 energy: -7.284722957916 gnorm: 0.063977461701 xtb: 6.2.2 (9d81278992624c895f80dd42a50cac0aa55982e2)
O        -0.18053800000000    0.45302300000000    0.00000000000000
N         1.02165000000000   -0.16831600000000    0.00000000000000
H        -0.84111200000000   -0.28470700000000    0.00000000000000
3
 energy: -7.287188725309 gnorm: 0.029490957068 xtb: 6.2.2 (9d81278992624c895f80dd42a50cac0aa55982e2)
O        -0.16924104723360    0.43301002202812    0.00000000000000
N         1.01247013358903   -0.15731851344847    0.00000000000000
H        -0.84322908635542   -0.27569150857966    0.00000000000000
3
 energy: -7.288075411182 gnorm: 0.007718266491 xtb: 6.2.2 (9d81278992624c895f80dd42a50cac0aa55982e2)
O        -0.15587147312090    0.40721257484063    0.00000000000000
N         1.01428105580891   -0.14276215367911    0.00000000000000
H        -0.85840958268801   -0.26445042116153    0.00000000000000
3
 energy: -7.288176552073 gnorm: 0.003114662142 xtb: 6.2.2 (9d81278992624c895f80dd42a50cac0aa55982e2)
O        -0.15455723482555    0.40116707348455    0.00000000000000
N         1.02204409362721   -0.13961274341353    0.00000000000000
H        -0.86748685880166   -0.26155433007102    0.00000000000000
3
 energy: -7.288195706515 gnorm: 0.000202479606 xtb: 6.2.2 (9d81278992624c895f80dd42a50cac0aa55982e2)
O        -0.15377161955948    0.39706870976668    0.00000000000000
N         1.02718933773276   -0.13752675251856    0.00000000000000
H        -0.87341771817328   -0.25954195724812    0.00000000000000
3
 energy: -7.288195731370 gnorm: 0.000004916564 xtb: 6.2.2 (9d81278992624c895f80dd42a50cac0aa55982e2)
O        -0.15383780428122    0.39699860934345    0.00000000000000
N         1.02719790327304   -0.13752757011415    0.00000000000000
H        -0.87336009899182   -0.25947103922930    0.00000000000000
