[Molden Format]
[Title]
[Atoms] AU
C      1     6 -0.10828715002862E+00 -0.11013124220136E-01 -0.16602422215819E-02
C      2     6  0.26057354033792E+01  0.26502067611484E+00  0.39960797940064E-01
H      3     1 -0.67707313659668E+00 -0.13988248735917E+01 -0.14311221392224E+01
H      4     1 -0.10170995876720E+01  0.17963486592405E+01 -0.44932487207178E+00
H      5     1 -0.80327552906536E+00 -0.65152944781423E+00  0.18421483452984E+01
[GTO]
           1 0
 s           4   1.0000000000000000     
   51.049363095579913      -0.16312063210127389     
   8.7911227406887544      -0.19911024581000730     
  0.70640422258929825       0.31882047753655751     
  0.26922813413411617       0.12706504184240380     
 p           4   1.0000000000000000     
   5.8263656140800002       0.73716451545209605     
   1.5106896018720002       0.68216371614850257     
  0.53256483288000001       0.35783053929253711     
  0.21202323690600003        5.3983030275847881E-002

           2 0
 s           4   1.0000000000000000     
   51.049363095579913      -0.16312063210127389     
   8.7911227406887544      -0.19911024581000730     
  0.70640422258929825       0.31882047753655751     
  0.26922813413411617       0.12706504184240380     
 p           4   1.0000000000000000     
   5.8263656140800002       0.73716451545209605     
   1.5106896018720002       0.68216371614850257     
  0.53256483288000001       0.35783053929253711     
  0.21202323690600003        5.3983030275847881E-002

           3 0
 s           3   1.0000000000000000     
   3.3702276975336001       0.27359110588908298     
  0.61389118221497996       0.26460540653860526     
  0.16614291148415999        8.2465947534082318E-002

           4 0
 s           3   1.0000000000000000     
   3.3702276975336001       0.27359110588908298     
  0.61389118221497996       0.26460540653860526     
  0.16614291148415999        8.2465947534082318E-002

           5 0
 s           3   1.0000000000000000     
   3.3702276975336001       0.27359110588908298     
  0.61389118221497996       0.26460540653860526     
  0.16614291148415999        8.2465947534082318E-002

[MO]
Sym=     1a
Ene=  -0.63455327721637966     
Spin= Alpha
Occup=     2.00000000
           1 -0.48878544485995462     
           2 -0.12987954479098315     
           3  -1.3209591021987580E-002
           4  -1.9917708121974455E-003
           5 -0.47008297417463135     
           6  0.13605198545176034     
           7   1.3837378183112337E-002
           8   2.0864357951708478E-003
           9 -0.15307144088667088     
          10 -0.15307142874246726     
          11 -0.15307143227693409     
Sym=     2a
Ene=  -0.56335001574196741     
Spin= Alpha
Occup=     2.00000000
           1  0.24624487439648199     
           2 -0.39340789782712166     
           3  -4.0012164661051466E-002
           4  -6.0331248348864507E-003
           5 -0.59906764395701140     
           6  -1.8898564555737674E-002
           7  -1.9221083694460483E-003
           8  -2.8981804296823418E-004
           9  0.21191781002587329     
          10  0.21191779357374463     
          11  0.21191782610123988     
Sym=     3a
Ene=  -0.50386623023915456     
Spin= Alpha
Occup=     2.00000000
           1  -2.2358252858113682E-008
           2   5.7594536826487977E-002
           3 -0.54143746227801581     
           4 -0.16476787660249265     
           5   6.7987406883005603E-009
           6   2.2396006201917687E-002
           7 -0.21054140556626480     
           8  -6.4071038509270761E-002
           9  0.38671488668369230     
          10 -0.38791921369858512     
          11   1.2043202934078946E-003
Sym=     4a
Ene=  -0.50386622810073023     
Spin= Alpha
Occup=     2.00000000
           1  -3.7808122295866272E-010
           2  -8.4103559756285844E-003
           3  0.16478176900048447     
           4 -0.54442295242264094     
           5  -2.8323514748986654E-008
           6  -3.2704256726871200E-003
           7   6.4076439234280969E-002
           8 -0.21170233123936624     
           9  0.22466058662116672     
          10  0.22257463495806998     
          11 -0.44723519448269361     
Sym=     5a
Ene=  -0.41683537531873838     
Spin= Alpha
Occup=     2.00000000
           1 -0.14314656300960232     
           2 -0.39535739582386215     
           3  -4.0210420371204862E-002
           4  -6.0630382022147473E-003
           5  0.51503792195458853     
           6  0.67240648350592302     
           7   6.8388126337265126E-002
           8   1.0311709982118087E-002
           9  0.10923062214951183     
          10  0.10923063223682380     
          11  0.10923063070133915     
Sym=     6a
Ene=  -0.31608391245156897     
Spin= Alpha
Occup=     0.50000012
           1   5.7652961538651835E-010
           2  -6.6147487910853744E-003
           3   7.6402677052973267E-002
           4  -7.5374361183194821E-002
           5  -1.2774122570816973E-009
           6   5.9747006245052109E-002
           7 -0.69009943574333266     
           8  0.68081127014998877     
           9   7.1807088611787889E-003
          10  0.23326290806280919     
          11 -0.24044360080178159     
Sym=     7a
Ene=  -0.31608391151574283     
Spin= Alpha
Occup=     0.49999988
           1  -2.3220272574915689E-009
           2   8.7913587750092070E-003
           3  -7.4877882200585874E-002
           4  -7.6670942282091037E-002
           5   3.8578633252853099E-009
           6  -7.9407057822078325E-002
           7  0.67632686692529009     
           8  0.69252249883663974     
           9  0.27349458630591073     
          10 -0.14296595590334638     
          11 -0.13052861624153159     
Sym=     8a
Ene=   0.14511456438445380     
Spin= Alpha
Occup=     0.00000000
           1   1.1457935028642556     
           2 -0.45237756528119877     
           3  -4.6009599321826009E-002
           4  -6.9378311885641359E-003
           5   2.3925569611358142E-002
           6  0.12358021784679767     
           7   1.2568884045196103E-002
           8   1.8952365361979771E-003
           9 -0.60356804809986841     
          10 -0.60356812890410139     
          11 -0.60356759457707798     
Sym=     9a
Ene=   0.19605014531051940     
Spin= Alpha
Occup=     0.00000000
           1  -1.7853064046276122E-007
           2   9.9055746163110955E-002
           3 -0.88188252437864889     
           4 -0.61052167664686563     
           5   1.2750521263153469E-007
           6  -1.8126726337681212E-002
           7  0.16137824909120288     
           8  0.11172115284670631     
           9 -0.92808369422992310     
          10  0.64165770160026325     
          11  0.28642605452971670     
Sym=    10a
Ene=   0.19605016312851720     
Spin= Alpha
Occup=     0.00000000
           1  -5.8612440264851806E-007
           2  -4.8315101900269893E-002
           3  0.60882869835067654     
           4 -0.88727606764696665     
           5   1.9654521865366910E-007
           6   8.8409550941131801E-003
           7 -0.11141139062262770     
           8  0.16236525389681541     
           9 -0.20509290573714936     
          10 -0.70119734424330971     
          11  0.90629082023470930     
Sym=    11a
Ene=   0.23917668644853970     
Spin= Alpha
Occup=     0.00000000
           1  0.48807135016888420     
           2  0.95692367027607195     
           3   9.7325400034150564E-002
           4   1.4674541151702188E-002
           5 -0.63084934949845628     
           6  0.91080272546275221     
           7   9.2634574930504365E-002
           8   1.3967735504321727E-002
           9   8.8171624490537601E-002
          10   8.8171790299488642E-002
          11   8.8172258753893659E-002
