5
 energy: -5.581857720927 gnorm: 0.049292136488 xtb: 6.2.2 (9d81278992624c895f80dd42a50cac0aa55982e2)
C        -0.08049800000000   -0.00818700000000   -0.00123400000000
C         1.42555500000000    0.14499600000000    0.02186400000000
H        -0.36454600000000   -0.75419900000000   -0.77165800000000
H        -0.54790200000000    0.96864900000000   -0.24226800000000
H        -0.43260900000000   -0.35125800000000    0.99329700000000
5
 energy: -5.584584394801 gnorm: 0.018411421683 xtb: 6.2.2 (9d81278992624c895f80dd42a50cac0aa55982e2)
C        -0.07223218533466   -0.00734665456440   -0.00110718451004
C         1.38664811742321    0.14103867877713    0.02126895138131
H        -0.35548572320730   -0.74341922007648   -0.76099086444535
H        -0.53632041237647    0.95574553160870   -0.23887701480418
H        -0.42260979650477   -0.34601733574495    0.97970711237826
5
 energy: -5.584872830247 gnorm: 0.003567275855 xtb: 6.2.2 (9d81278992624c895f80dd42a50cac0aa55982e2)
C        -0.06080764289345   -0.00618466728480   -0.00093215522968
C         1.37521044508533    0.13987530692934    0.02109444188136
H        -0.35599397554680   -0.73909063354863   -0.75632002204174
H        -0.53570825113551    0.94955087310543   -0.23743958344920
H        -0.42270057550957   -0.34414987920134    0.97359831883926
5
 energy: -5.584889919053 gnorm: 0.001229158141 xtb: 6.2.2 (9d81278992624c895f80dd42a50cac0aa55982e2)
C        -0.05866946321186   -0.00596718316162   -0.00089950921536
C         1.37815718976012    0.14017502964449    0.02113982989316
H        -0.35764249857776   -0.73965705737696   -0.75677120872984
H        -0.53745861735264    0.94994241324145   -0.23759644408981
H        -0.42438661061786   -0.34449220234737    0.97412833214185
5
 energy: -5.584891184790 gnorm: 0.000610057519 xtb: 6.2.2 (9d81278992624c895f80dd42a50cac0aa55982e2)
C        -0.05730306376267   -0.00582819340335   -0.00087877262730
C         1.37889511289303    0.14025009819408    0.02115140359605
H        -0.35828518788478   -0.74022686805664   -0.75731983495566
H        -0.53823012021931    0.95058445833708   -0.23777272434929
H        -0.42507674102627   -0.34477849507118    0.97482092833621
