5
 energy: -7.829517019058 gnorm: 0.180374485092 xtb: 6.2.2 (9d81278992624c895f80dd42a50cac0aa55982e2)
N         0.01222400000000    0.60921400000000    0.60255000000000
C        -1.04238800000000    0.38860100000000   -0.37395500000000
C         1.04234400000000   -0.39080100000000    0.37177800000000
H        -1.65666200000000   -0.48906600000000   -0.07909200000000
H         1.64448200000000   -0.11794800000000   -0.52128200000000
5
 energy: -7.865880783776 gnorm: 0.107144343312 xtb: 6.2.2 (9d81278992624c895f80dd42a50cac0aa55982e2)
N         0.01232499055115    0.61428198636231    0.60756495182346
C        -0.99424820898843    0.38910522351430   -0.28394501096080
C         0.99604183975791   -0.29983078918505    0.37224109614439
H        -1.60822154749353   -0.51436596391579   -0.15106242787012
H         1.59410292617290   -0.18919045677576   -0.54479960913693
5
 energy: -7.894042779436 gnorm: 0.149483820689 xtb: 6.2.2 (9d81278992624c895f80dd42a50cac0aa55982e2)
N         0.01133440829209    0.56487418851620    0.55869571081531
C        -1.02318509067894    0.43444341818674   -0.11661827632550
C         1.02923941659189   -0.13264733147278    0.41511030855243
H        -1.57046544337183   -0.54568564707454   -0.28331885878006
H         1.55307670916679   -0.32098462815562   -0.57386988426218
5
 energy: -7.912690480102 gnorm: 0.092216069081 xtb: 6.2.2 (9d81278992624c895f80dd42a50cac0aa55982e2)
N         0.01091348951757    0.54402229980285    0.53807742752880
C        -1.12297382556310    0.44922419899683   -0.02539871671777
C         1.13112445969033   -0.04331117006352    0.42686825967092
H        -1.61976509410952   -0.54541709170087   -0.36587680734287
H         1.60070097046473   -0.40451823703529   -0.57367116313908
5
 energy: -7.923628319715 gnorm: 0.083699053342 xtb: 6.2.2 (9d81278992624c895f80dd42a50cac0aa55982e2)
N         0.00915696266049    0.45622536418891    0.45122628660172
C        -1.22268873272364    0.37458510854358    0.03803218885693
C         1.23053647912614    0.01726196571091    0.34952406975600
H        -1.74461781602478   -0.44243553801960   -0.36557472588345
H         1.72761310696179   -0.40563690042380   -0.47320881933121
5
 energy: -7.931311303665 gnorm: 0.060401265455 xtb: 6.2.2 (9d81278992624c895f80dd42a50cac0aa55982e2)
N         0.00981202198407    0.48933230910038    0.48399438424745
C        -1.22834229215170    0.35770756288994    0.13607441774035
C         1.23784203887029    0.11500235119566    0.33145919245161
H        -1.72855885853699   -0.45976405265792   -0.46237869209432
H         1.70924708983432   -0.50227817052804   -0.48915030234508
5
 energy: -7.936352713625 gnorm: 0.040016317096 xtb: 6.2.2 (9d81278992624c895f80dd42a50cac0aa55982e2)
N         0.01082632949088    0.53914029009616    0.53321339305828
C        -1.16571210649255    0.32723015228934    0.13025358226853
C         1.17444632923490    0.11008377207952    0.30227438193540
H        -1.64588874226502   -0.46446822096237   -0.47371772005211
H         1.62632819003179   -0.51198599350265   -0.49202463721010
5
 energy: -7.938951616751 gnorm: 0.015377800344 xtb: 6.2.2 (9d81278992624c895f80dd42a50cac0aa55982e2)
N         0.01062518192237    0.53243710080042    0.52679048252319
C        -1.18051565858071    0.30025621893359    0.16520427311170
C         1.18968590693888    0.14462103553190    0.27481337479887
H        -1.62928854939828   -0.44005717613220   -0.49959725673449
H         1.60949311911773   -0.53725717913371   -0.46721187369928
5
 energy: -7.939598623181 gnorm: 0.005448827789 xtb: 6.2.2 (9d81278992624c895f80dd42a50cac0aa55982e2)
N         0.01152546203047    0.53486681630361    0.52649767778515
C        -1.18736092883547    0.28172352330200    0.19196880978765
C         1.19300379010274    0.16859044940571    0.25336170731649
H        -1.60002666204402   -0.42613053457489   -0.52214207356132
H         1.58285833874628   -0.55905025443643   -0.44968712132797
5
 energy: -7.938808012828 gnorm: 0.034329714842 xtb: 6.2.2 (9d81278992624c895f80dd42a50cac0aa55982e2)
N         0.00306779995785    0.52468184119322    0.54289460638097
C        -1.16856765654705    0.26172708009392    0.18513367519963
C         1.20957127187982    0.18601829205283    0.25807535318997
H        -1.59748828084055   -0.40736392294123   -0.52832754511562
H         1.55341686554993   -0.56506329039874   -0.45777708965495
5
 energy: -7.939639517242 gnorm: 0.002581037352 xtb: 6.2.2 (9d81278992624c895f80dd42a50cac0aa55982e2)
N         0.01113251180368    0.53749638358137    0.53159378491635
C        -1.18247993082796    0.27550672118003    0.19188604973764
C         1.19200176398732    0.17079822409987    0.25013791744955
H        -1.58812315484269   -0.42218048101164   -0.52541392868674
H         1.56746880987965   -0.56162084784963   -0.44820482341679
5
 energy: -7.939638949348 gnorm: 0.003104245420 xtb: 6.2.2 (9d81278992624c895f80dd42a50cac0aa55982e2)
N         0.01075851775541    0.53914846027176    0.53306874911371
C        -1.18322376666764    0.27727964773254    0.19459869004033
C         1.19178418627488    0.17337733670798    0.25092981127134
H        -1.58465694126056   -0.42434260092728   -0.52874046784197
H         1.56533800389791   -0.56546284378500   -0.44985778258341
5
 energy: -7.939647263365 gnorm: 0.000289408493 xtb: 6.2.2 (9d81278992624c895f80dd42a50cac0aa55982e2)
N         0.01076230324833    0.53866938474163    0.53277432918831
C        -1.18280153956020    0.27683331014206    0.19284196038576
C         1.19170960677431    0.17178606332913    0.25080614793478
H        -1.58513914130729   -0.42357818156989   -0.52707786112865
H         1.56546877084485   -0.56371057664293   -0.44934557638020
5
 energy: -7.939647401372 gnorm: 0.000068830630 xtb: 6.2.2 (9d81278992624c895f80dd42a50cac0aa55982e2)
N         0.01085859860024    0.53897083830380    0.53307234853331
C        -1.18264083993650    0.27697575996806    0.19263880553889
C         1.19173165853101    0.17158619963873    0.25111527416677
H        -1.58433121016478   -0.42375994234928   -0.52727039385453
H         1.56438179297004   -0.56377285556131   -0.44955703438444
