$hessian                                                                        
        0.8059697889  -0.0314950430   0.0206185926  -0.3956673166  -0.0808000486
       -0.1043920677  -0.3865005280   0.1109337795   0.0855819258  -0.0125329317
       -0.0128948145  -0.0143528775  -0.0112690126   0.0142561266   0.0125444268
       -0.0314950430   0.1545519768   0.1003518364  -0.1178011701  -0.0610674171
       -0.0323348891   0.1479331659  -0.0814120910  -0.0342223067  -0.0174403727
       -0.0046291319  -0.0167459516   0.0188034199  -0.0074433368  -0.0170486890
        0.0206185926   0.1003518364   0.1512731558  -0.1409301292  -0.0297978103
       -0.0755830511   0.1221200952  -0.0367577373  -0.0644286275  -0.0188476235
       -0.0164374779  -0.0064005472   0.0170390650  -0.0173588110  -0.0048609300
       -0.3956673166  -0.1178011701  -0.1409301292   0.6015636859   0.1436876382
        0.1801816314  -0.1446021613   0.0288646339   0.0179556974  -0.0597769873
       -0.0562791400  -0.0583009515  -0.0015172207   0.0015280380   0.0010937520
       -0.0808000486  -0.0610674171  -0.0297978103   0.1436876382   0.1777142162
        0.1431199896  -0.0151901278   0.0091395697  -0.0015621125  -0.0516399053
       -0.1302195841  -0.1119596368   0.0039424434   0.0044332152   0.0001995699
       -0.1043920677  -0.0323348891  -0.0755830511   0.1801816314   0.1431199896
        0.1965847114  -0.0255521928   0.0014622758   0.0093534260  -0.0537180146
       -0.1122758643  -0.1351320909   0.0034806438   0.0000284879   0.0047770047
       -0.3865005280   0.1479331659   0.1221200952  -0.1446021613  -0.0151901278
       -0.0255521928   0.5883001016  -0.1867586023  -0.1470855947  -0.0017259417
       -0.0009766319  -0.0013973826  -0.0554714706   0.0549921960   0.0519150750
        0.1109337795  -0.0814120910  -0.0367577373   0.0288646339   0.0091395697
        0.0014622758  -0.1867586023   0.2072456228   0.1495744304  -0.0033875798
        0.0048744015   0.0001263923   0.0503477686  -0.1398475031  -0.1144053612
        0.0855819258  -0.0342223067  -0.0644286275   0.0179556974  -0.0015621125
        0.0093534260  -0.1470855947   0.1495744304   0.1804522152  -0.0037734409
        0.0002970406   0.0045387193   0.0473214124  -0.1140870517  -0.1299157330
       -0.0125329317  -0.0174403727  -0.0188476235  -0.0597769873  -0.0516399053
       -0.0537180146  -0.0017259417  -0.0033875798  -0.0037734409   0.0719162806
        0.0716133200   0.0748725486   0.0021195801   0.0008545378   0.0014665304
       -0.0128948145  -0.0046291319  -0.0164374779  -0.0562791400  -0.1302195841
       -0.1122758643  -0.0009766319   0.0048744015   0.0002970406   0.0716133200
        0.1319008266   0.1235143403  -0.0014627336  -0.0019265121   0.0049019613
       -0.0143528775  -0.0167459516  -0.0064005472  -0.0583009515  -0.1119596368
       -0.1351320909  -0.0013973826   0.0001263923   0.0045387193   0.0748725486
        0.1235143403   0.1390421113  -0.0008213370   0.0050648558  -0.0020481925
       -0.0112690126   0.0188034199   0.0170390650  -0.0015172207   0.0039424434
        0.0034806438  -0.0554714706   0.0503477686   0.0473214124   0.0021195801
       -0.0014627336  -0.0008213370   0.0661381237  -0.0716308984  -0.0670197842
        0.0142561266  -0.0074433368  -0.0173588110   0.0015280380   0.0044332152
        0.0000284879   0.0549921960  -0.1398475031  -0.1140870517   0.0008545378
       -0.0019265121   0.0050648558  -0.0716308984   0.1447841367   0.1263525190
        0.0125444268  -0.0170486890  -0.0048609300   0.0010937520   0.0001995699
        0.0047770047   0.0519150750  -0.1144053612  -0.1299157330   0.0014665304
        0.0049019613  -0.0020481925  -0.0670197842   0.1263525190   0.1320478508
