3
 energy: -6.539752314314 gnorm: 0.282712950443 xtb: 6.2.2 (9d81278992624c895f80dd42a50cac0aa55982e2)
O         1.09256700000000   -0.18865400000000    0.00000000000000
C        -0.13669500000000    0.46839900000000    0.00000000000000
H        -0.95587200000000   -0.27974500000000    0.00000000000000
3
 energy: -6.589768908119 gnorm: 0.107048418894 xtb: 6.2.2 (9d81278992624c895f80dd42a50cac0aa55982e2)
O         1.02708613833911   -0.14070297540236    0.00000000000000
C        -0.07286540998406    0.39950578003357    0.00000000000000
H        -0.95422072835505   -0.25880280463122    0.00000000000000
3
 energy: -6.590341711707 gnorm: 0.153831898649 xtb: 6.2.2 (9d81278992624c895f80dd42a50cac0aa55982e2)
O         1.02171788330565   -0.09527047888928    0.00000000000000
C        -0.02715982638204    0.32704239384761    0.00000000000000
H        -0.99455805692361   -0.23177191495833    0.00000000000000
3
 energy: -6.594916198203 gnorm: 0.022172739148 xtb: 6.2.2 (9d81278992624c895f80dd42a50cac0aa55982e2)
O         1.05584379076440   -0.10435848259249    0.00000000000000
C        -0.04909257072549    0.33353175227691    0.00000000000000
H        -1.00675122003892   -0.22917326968443    0.00000000000000
3
 energy: -6.595137494368 gnorm: 0.004519648612 xtb: 6.2.2 (9d81278992624c895f80dd42a50cac0aa55982e2)
O         1.04228572083395   -0.10803440836563    0.00000000000000
C        -0.05111666267977    0.33936758423475    0.00000000000000
H        -0.99116905815418   -0.23133317586912    0.00000000000000
3
 energy: -6.595153789388 gnorm: 0.001287456988 xtb: 6.2.2 (9d81278992624c895f80dd42a50cac0aa55982e2)
O         1.04393911341260   -0.10598084974106    0.00000000000000
C        -0.05015547180767    0.33529414075653    0.00000000000000
H        -0.99378364160493   -0.22931329101547    0.00000000000000
3
 energy: -6.595155121618 gnorm: 0.000169064591 xtb: 6.2.2 (9d81278992624c895f80dd42a50cac0aa55982e2)
O         1.04446525308951   -0.10561259909860    0.00000000000000
C        -0.05056657514889    0.33405634124971    0.00000000000000
H        -0.99389867794062   -0.22844374215112    0.00000000000000
