$hessian                                                                        
        0.8652815662  -0.3311942087  -0.0000024424  -0.8069479473   0.3471349123
        0.0000022109  -0.0583336189  -0.0159407035   0.0000002314
       -0.3311942087   0.1603218914   0.0000008763   0.3370619702  -0.1885609691
       -0.0000008475  -0.0058677615   0.0282390777  -0.0000000288
       -0.0000024424   0.0000008763   0.0000000000   0.0000022285  -0.0000008826
       -0.0000000000   0.0000002139   0.0000000064  -0.0000000000
       -0.8069479473   0.3370619702   0.0000022285   0.9694823348  -0.2553025042
       -0.0000029386  -0.1625343875  -0.0817594660   0.0000007100
        0.3471349123  -0.1885609691  -0.0000008826  -0.2553025042   0.3004074261
        0.0000003669  -0.0918324080  -0.1118464570   0.0000005158
        0.0000022109  -0.0000008475  -0.0000000000  -0.0000029386   0.0000003669
        0.0000000000   0.0000007276   0.0000004806  -0.0000000000
       -0.0583336189  -0.0058677615   0.0000002139  -0.1625343875  -0.0918324080
        0.0000007276   0.2208680063   0.0977001695  -0.0000009415
       -0.0159407035   0.0282390777   0.0000000064  -0.0817594660  -0.1118464570
        0.0000004806   0.0977001695   0.0836073793  -0.0000004870
        0.0000002314  -0.0000000288  -0.0000000000   0.0000007100   0.0000005158
       -0.0000000000  -0.0000009415  -0.0000004870   0.0000000000
