[Molden Format]
[Title]
[Atoms] AU
O      1     8  0.19737520468722E+01 -0.19958920363333E+00 -0.65413671767102E-05
C      2     6 -0.95553663880067E-01  0.63127543691238E+00 -0.76822586562539E-06
H      3     1 -0.18781983829921E+01 -0.43168623327905E+00  0.73095930423356E-05
[GTO]
           1 0
 s           4   1.0000000000000000     
   69.137961906196551      -0.20478756370077797     
   11.906129132707308      -0.24997023136827334     
  0.95670827744340703       0.40025880240639616     
  0.36462520496073686       0.15952206667693555     
 p           4   1.0000000000000000     
   8.2124193257781641        1.1321556799186829     
   2.1293576997098116        1.0476840782254817     
  0.75066448202360914       0.54956508217158984     
  0.29885246543283073        8.2908486592766617E-002

           2 0
 s           4   1.0000000000000000     
   51.049363095579913      -0.16312063210127389     
   8.7911227406887544      -0.19911024581000730     
  0.70640422258929825       0.31882047753655751     
  0.26922813413411617       0.12706504184240380     
 p           4   1.0000000000000000     
   5.8263656140800002       0.73716451545209605     
   1.5106896018720002       0.68216371614850257     
  0.53256483288000001       0.35783053929253711     
  0.21202323690600003        5.3983030275847881E-002

           3 0
 s           3   1.0000000000000000     
   3.3702276975336001       0.27359110588908298     
  0.61389118221497996       0.26460540653860526     
  0.16614291148415999        8.2465947534082318E-002

[MO]
Sym=     1a
Ene=  -0.75161588666210455     
Spin= Alpha
Occup=     2.00000000
           1  0.67075241237124028     
           2 -0.20176474128222041     
           3   8.1783398713970043E-002
           4   5.7330474232649639E-007
           5  0.32613809252599651     
           6  0.20724806164040338     
           7  -8.3064437656292511E-002
           8  -5.7763057110956416E-007
           9   2.5687868730498394E-002
Sym=     2a
Ene=  -0.63045516858649231     
Spin= Alpha
Occup=     2.00000000
           1 -0.54307717494998886     
           2 -0.51193482684511527     
           3  0.11588016695201207     
           4   1.5557981016853333E-006
           5  0.44999381281398021     
           6 -0.12536241117527866     
           7  -4.0384906890144859E-002
           8   4.9442736602817670E-007
           9  0.22858695907966362     
Sym=     3a
Ene=  -0.57996705294714057     
Spin= Alpha
Occup=     2.00000000
           1  0.18225774833166691     
           2  -6.1848252422393711E-004
           3 -0.69617393671812644     
           4   1.2637603880035672E-006
           5  -5.3973740194025503E-002
           6 -0.26113236897266756     
           7 -0.38074970192189816     
           8   1.6039503564750996E-006
           9  0.21827473734358260     
Sym=     4a
Ene=  -0.56975984009141289     
Spin= Alpha
Occup=     2.00000000
           1   3.1163809033534255E-008
           2  -2.6789170651236578E-006
           3  -1.3933409838371732E-006
           4 -0.77003072505281001     
           5  -1.7768242211615355E-008
           6  -1.6910275244387814E-006
           7  -8.7212287539855119E-007
           8 -0.48443894581955060     
           9   1.0929808412540701E-010
Sym=     5a
Ene=  -0.52157775240340887     
Spin= Alpha
Occup=     2.00000000
           1 -0.22438709908452278     
           2 -0.56163483356315291     
           3 -0.22647857735685653     
           4   2.3645667622924980E-006
           5 -0.29224265781921094     
           6  0.37754241410419137     
           7 -0.25915580090199070     
           8  -8.5388915712930206E-007
           9 -0.38581006245855215     
Sym=     6a
Ene=  -0.33284316762006116     
Spin= Alpha
Occup=     1.00000000
           1  -4.3262940964187507E-002
           2  0.11518361152723744     
           3  0.63327953055642183     
           4  -1.5119718075104540E-006
           5 -0.41837173275515188     
           6   5.2329457426319365E-002
           7 -0.73351231051909516     
           8   1.1030762187580996E-006
           9  0.31998361359295491     
Sym=     7a
Ene=  -0.28231148045299359     
Spin= Alpha
Occup=     0.00000000
           1   6.7756279820037952E-009
           2  -2.3736760520997404E-006
           3  -1.1916317463959489E-006
           4 -0.68076618247644050     
           5   4.4973669545213080E-009
           6   3.1626290565870870E-006
           7   1.5868314767551388E-006
           8  0.90648156103815913     
           9  -1.6258091433426955E-009
Sym=     8a
Ene=   0.15388644210674404     
Spin= Alpha
Occup=     0.00000000
           1   6.0137487154387582E-002
           2 -0.27223811649233121     
           3 -0.15593098757298432     
           4   1.2219838446383841E-006
           5 -0.78379457318255674     
           6  0.57861439573851436     
           7  0.59862356689862728     
           8  -3.0637320988756730E-006
           9   1.0937029168055146     
Sym=     9a
Ene=   0.63221983171835361     
Spin= Alpha
Occup=     0.00000000
           1 -0.83897378031650527     
           2  0.83974590539063909     
           3 -0.37141619655089225     
           4  -2.2810411249454818E-006
           5  0.68426809829600488     
           6   1.0916026670607435     
           7 -0.29266530558274639     
           8  -3.2980916892404824E-006
           9  0.25642490169437510     
