3
 energy: -7.300259369353 gnorm: 0.000185384830 xtb: 6.2.2 (9d81278992624c895f80dd42a50cac0aa55982e2)
O        -0.13273358323972    0.39329325849820   -0.00000022309022
N         1.01652665317018   -0.12852806207792   -0.00000332403526
H        -0.88379306993046   -0.26476519642028    0.00000354712547
