[Molden Format]
[Title]
[Atoms] AU
O      1     8 -0.25083009659131E+00  0.74321647626770E+00 -0.42157937085370E-06
N      2     7  0.19209567946479E+01 -0.24288281412153E+00 -0.62815156845650E-05
H      3     1 -0.16701266980566E+01 -0.50033366214617E+00  0.67030950554187E-05
[GTO]
           1 0
 s           4   1.0000000000000000     
   69.137961906196551      -0.20478756370077797     
   11.906129132707308      -0.24997023136827334     
  0.95670827744340703       0.40025880240639616     
  0.36462520496073686       0.15952206667693555     
 p           4   1.0000000000000000     
   8.2124193257781641        1.1321556799186829     
   2.1293576997098116        1.0476840782254817     
  0.75066448202360914       0.54956508217158984     
  0.29885246543283073        8.2908486592766617E-002

           2 0
 s           4   1.0000000000000000     
   63.594024466941008      -0.19234388414721629     
   10.951417231523665      -0.23478107924953728     
  0.87999310257376984       0.37593753901700888     
  0.33538715296521110       0.14982889271862770     
 p           4   1.0000000000000000     
   7.2965040481495080       0.97658666315667420     
   1.8918745450712575       0.90372226730345739     
  0.66694432110824120       0.47404958461536373     
  0.26552202674130870        7.1516067715011844E-002

           3 0
 s           3   1.0000000000000000     
   3.3702276975336001       0.27359110588908298     
  0.61389118221497996       0.26460540653860526     
  0.16614291148415999        8.2465947534082318E-002

[MO]
Sym=     1a
Ene=  -0.77072597996340642     
Spin= Alpha
Occup=     2.00000000
           1 -0.74584487995786852     
           2 -0.11061343068513785     
           3   9.9229746431951357E-002
           4   2.5189606526567151E-007
           5 -0.22208439123761348     
           6  0.20602230614715250     
           7  -7.8152759326612864E-002
           8  -5.8927130852803104E-007
           9 -0.12532584746297637     
Sym=     2a
Ene=  -0.68342108832634674     
Spin= Alpha
Occup=     2.00000000
           1  0.22234613644037984     
           2 -0.63115685254339804     
           3  -6.0642883088380582E-002
           4   2.2330306475466238E-006
           5 -0.35764282122920371     
           6  0.11880678530074062     
           7 -0.13384965214045505     
           8  -1.9383079758404805E-007
           9  0.31586548324175640     
Sym=     3a
Ene=  -0.61881157479096682     
Spin= Alpha
Occup=     2.00000000
           1 -0.40645628957390306     
           2   2.2796060050493819E-003
           3 -0.76135345681646494     
           4   1.3914228512218232E-006
           5  0.25392240007710881     
           6 -0.13007123878526125     
           7 -0.21573503458091961     
           8   8.4264854763847672E-007
           9  0.19406045813952341     
Sym=     4a
Ene=  -0.58829938529395176     
Spin= Alpha
Occup=     2.00000000
           1  -5.0992769195594844E-008
           2  -2.8707331245480347E-006
           3  -1.4868570527176772E-006
           4 -0.83294252720622874     
           5   1.0820603864852626E-007
           6  -1.4318259555774868E-006
           7  -7.8757419293578036E-007
           8 -0.43043052793367986     
           9  -9.1619075161545676E-009
Sym=     5a
Ene=  -0.47148507942565698     
Spin= Alpha
Occup=     2.00000000
           1   9.7274855915741075E-004
           2 -0.23284553515420556     
           3  0.22784635397183262     
           4   6.0857504404116907E-007
           5  0.77881462486896047     
           6  0.53564440071646358     
           7 -0.16478109075178649     
           8  -1.6962704575756572E-006
           9   8.5676860053223072E-002
Sym=     6a
Ene=  -0.35561889525322860     
Spin= Alpha
Occup=     1.57222900
           1  0.19010578052088836     
           2   5.4893227761829990E-004
           3  0.27814383415532062     
           4  -5.9242270812151210E-007
           5   2.5044302806761811E-002
           6 -0.34905353499443414     
           7 -0.89757582890815368     
           8   2.9536156856535753E-006
           9 -0.27844668804729761     
Sym=     7a
Ene=  -0.35314562734826144     
Spin= Alpha
Occup=     0.42777100
           1  -6.8700741154752338E-008
           2  -2.0525851611231970E-006
           3  -1.0297128615930501E-006
           4 -0.57921095971805925     
           5   1.4266742441462566E-007
           6   3.3599537722100612E-006
           7   1.7367483687551376E-006
           8  0.91869916191741452     
           9   6.4471808470442709E-008
Sym=     8a
Ene=    2.0896210785784651E-002
Spin= Alpha
Occup=     0.00000000
           1 -0.75630085870162589     
           2  0.23423613764574103     
           3  0.66044769361878342     
           4  -1.9797089983563782E-006
           5  0.16680462598806092     
           6 -0.43958403671296692     
           7   1.7140947040366488E-002
           8   1.4931627711004248E-006
           9   1.0143580811142840     
Sym=     9a
Ene=   0.20331050431779643     
Spin= Alpha
Occup=     0.00000000
           1  0.29612367004042717     
           2  0.95476664190887384     
           3 -0.10940841034483581     
           4  -3.1247127162027364E-006
           5 -0.59271535843887235     
           6  0.77658266539157117     
           7 -0.42067572911239071     
           8  -1.9647381683452836E-006
           9  0.50167153384795038     
