$hessian                                                                        
        0.4101899042  -0.0536041035  -0.0000013383  -0.3338165555   0.1392979249
        0.0000009221  -0.0763733487  -0.0856938214   0.0000004162
       -0.0536041035   0.3469587827  -0.0000004184   0.1910066979  -0.1419966916
       -0.0000004189  -0.1374025944  -0.2049620911   0.0000008373
       -0.0000013383  -0.0000004184   0.0000000000   0.0000008319  -0.0000002384
       -0.0000000000   0.0000005064   0.0000006569  -0.0000000000
       -0.3338165555   0.1910066979   0.0000008319   0.4405292362  -0.1595056636
       -0.0000012594  -0.1067126807  -0.0315010343   0.0000004275
        0.1392979249  -0.1419966916  -0.0000002384  -0.1595056636   0.0929230712
        0.0000003946   0.0202077387   0.0490736203  -0.0000001562
        0.0000009221  -0.0000004189  -0.0000000000  -0.0000012594   0.0000003946
        0.0000000000   0.0000003372   0.0000000243  -0.0000000000
       -0.0763733487  -0.1374025944   0.0000005064  -0.1067126807   0.0202077387
        0.0000003372   0.1830860294   0.1171948557  -0.0000008436
       -0.0856938214  -0.2049620911   0.0000006569  -0.0315010343   0.0490736203
        0.0000000243   0.1171948557   0.1558884708  -0.0000006812
        0.0000004162   0.0000008373  -0.0000000000   0.0000004275  -0.0000001562
       -0.0000000000  -0.0000008436  -0.0000006812   0.0000000000
