 Entering Gaussian System
 *********************************************
 Gaussian 98:
 frequency output generated by the xtb code
 *********************************************
                         Standard orientation:
 --------------------------------------------------------------------
  Center     Atomic     Atomic              Coordinates (Angstroms)
  Number     Number      Type              X           Y           Z
 --------------------------------------------------------------------
    1          8             0       -0.132734    0.393293   -0.000000
    2          7             0        1.016527   -0.128528   -0.000003
    3          1             0       -0.883793   -0.264765    0.000004
 --------------------------------------------------------------------
     1 basis functions        1 primitive gaussians
     1 alpha electrons        1 beta electrons

 Harmonic frequencies (cm**-1), IR intensities (KM/Mole),
 Raman scattering activities (A**4/amu), Raman depolarization ratios,
 reduced masses (AMU), force constants (mDyne/A) and normal coordinates:
                      1                      2                      3
                        a                      a                      a 
 Frequencies --  1194.6449              1297.1118              2834.4182
 Red. masses --     9.4805                 8.2934                 1.9389
 Frc consts  --     0.0000                 0.0000                 0.0000
 IR Inten    --     0.7493                 0.3819                 0.1728
 Raman Activ --     0.0000                 0.0000                 0.0000
 Depolar     --     0.0000                 0.0000                 0.0000
 Atom AN      X      Y      Z        X      Y      Z        X      Y      Z
   1   8     0.46  -0.39  -0.00     0.43   0.03  -0.00     0.09   0.21  -0.00
   2   7    -0.36   0.31   0.00    -0.58   0.10   0.00     0.10  -0.05  -0.00
   3   1    -0.49   0.40   0.00     0.45  -0.52  -0.00    -0.72  -0.65   0.00
