3
 energy: -7.293551793328 gnorm: 0.086662142223 xtb: 6.2.2 (9d81278992624c895f80dd42a50cac0aa55982e2)
O        -0.18053800000000    0.45302300000000    0.00000000000000
N         1.02165000000000   -0.16831600000000    0.00000000000000
H        -0.84111200000000   -0.28470700000000    0.00000000000000
3
 energy: -7.298142697005 gnorm: 0.047042544246 xtb: 6.2.2 (9d81278992624c895f80dd42a50cac0aa55982e2)
O        -0.16201999110785    0.42912820825130    0.00000000000000
N         1.00894248056126   -0.15330252647541    0.00000000000000
H        -0.84692248945341   -0.27582568177590    0.00000000000000
3
 energy: -7.300080319198 gnorm: 0.016236400318 xtb: 6.2.2 (9d81278992624c895f80dd42a50cac0aa55982e2)
O        -0.13340160962539    0.39351844741001    0.00000000000000
N         1.00546196830881   -0.12955798990688    0.00000000000000
H        -0.87206035868342   -0.26396045750313    0.00000000000000
3
 energy: -7.300246580073 gnorm: 0.003046336744 xtb: 6.2.2 (9d81278992624c895f80dd42a50cac0aa55982e2)
O        -0.13499727290999    0.39452219202572    0.00000000000000
N         1.01402397909423   -0.13001090620720    0.00000000000000
H        -0.87902670618424   -0.26451128581853    0.00000000000000
3
 energy: -7.300258317215 gnorm: 0.001151100550 xtb: 6.2.2 (9d81278992624c895f80dd42a50cac0aa55982e2)
O        -0.13345246021410    0.39314837529333    0.00000000000000
N         1.01637986903315   -0.12876471014447    0.00000000000000
H        -0.88292740881905   -0.26438366514886    0.00000000000000
3
 energy: -7.300259369526 gnorm: 0.000184140539 xtb: 6.2.2 (9d81278992624c895f80dd42a50cac0aa55982e2)
O        -0.13273564251500    0.39329256350199    0.00000000000000
N         1.01652732613301   -0.12852273955525    0.00000000000000
H        -0.88379168361801   -0.26476982394674    0.00000000000000
