      -----------------------------------------------------------      
     |                   =====================                   |     
     |                           x T B                           |     
     |                   =====================                   |     
     |                         S. Grimme                         |     
     |          Mulliken Center for Theoretical Chemistry        |     
     |                    University of Bonn                     |     
      -----------------------------------------------------------      

   * xtb version 6.2.2 (9d81278992624c895f80dd42a50cac0aa55982e2) compiled by '@Darwin' on 04/03/2020

   xtb is free software: you can redistribute it and/or modify it under
   the terms of the GNU Lesser General Public License as published by
   the Free Software Foundation, either version 3 of the License, or
   (at your option) any later version.
   
   xtb is distributed in the hope that it will be useful,
   but WITHOUT ANY WARRANTY; without even the implied warranty of
   MERCHANTABILITY or FITNESS FOR A PARTICULAR PURPOSE.  See the
   GNU Lesser General Public License for more details.
   
   Cite this work as:
   * S. Grimme, C. Bannwarth, P. Shushkov, J. Chem. Theory Comput., 2017,
     13, 1989-2009. DOI: 10.1021/acs.jctc.7b00118
   * C. Bannwarth, S. Ehlert and S. Grimme., J. Chem. Theory Comput., 2019,
     15, 1652-1671. DOI: 10.1021/acs.jctc.8b01176
   * P. Pracht, E. Caldeweyher, S. Ehlert, S. Grimme, ChemRxiv, 2019, preprint.
     DOI: 10.26434/chemrxiv.8326202.v1
   
   for DFT-D4:
   * E. Caldeweyher, C. Bannwarth and S. Grimme, J. Chem. Phys., 2017,
     147, 034112. DOI: 10.1063/1.4993215
   * E. Caldeweyher, S. Ehlert, A. Hansen, H. Neugebauer, S. Spicher,
     C. Bannwarth and S. Grimme, J. Chem. Phys., 2019, 150, 154122.
     DOI: 10.1063/1.5090222
   
   for sTDA-xTB:
   * S. Grimme and C. Bannwarth, J. Chem. Phys., 2016, 145, 054103.
     DOI: 10.1063/1.4959605
   
   in the mass-spec context:
   * V. Asgeirsson, C. Bauer and S. Grimme, Chem. Sci., 2017, 8, 4879.
     DOI: 10.1039/c7sc00601b
   
   for metadynamics refer to:
   * S. Grimme, J. Chem. Theory Comput., 2019, 155, 2847-2862
     DOI: 10.1021/acs.jctc.9b00143
   
   with help from (in alphabetical order)
   C. Bannwarth, F. Bohle, G. Brandenburg, E. Caldeweyher, M. Checinski,
   S. Dohm, S. Ehlert, S. Ehrlich, F. März, H. Neugebauer, J. Pisarek,
   P. Pracht, P. Shushkov, and S. Spicher.
   
 * started run on 2020/05/12 at 11:44:54.437     

           -------------------------------------------------
          |                Calculation Setup                |
           -------------------------------------------------

          program call               : xtb --input H1C3N1_11_S_0.input H1C3N1_11_S_0.xyz --ohess --molden --namespace H1C3N1_11_S_0 output.out
          calculation namespace      : H1C3N1_11_S_0
          coordinate file            : H1C3N1_11_S_0.xyz
          number of atoms            :                     5
          number of electrons        :                    18
          charge                     :                     0
          spin                       :                   0.0
          first test random number   :      0.43490139937196

   ID    Z sym.   atoms
    1    6 C      1, 3, 4
    2    7 N      2
    3    1 H      5

           -------------------------------------------------
          |                 G F N 2 - x T B                 |
           -------------------------------------------------

        Reference                      10.1021/acs.jctc.8b01176
      * Hamiltonian:
        H0-scaling (s, p, d)           1.850000    2.230000    2.230000
        zeta-weighting                 0.500000
      * Dispersion:
        s8                             2.700000
        a1                             0.520000
        a2                             5.000000
        s9                             5.000000
      * Repulsion:
        kExp                           1.500000    1.000000
        rExp                           1.000000
      * Coulomb:
        alpha                          2.000000
        third order                    shell-resolved
        anisotropic                    true
        a3                             3.000000
        a5                             4.000000
        cn-shift                       1.200000
        cn-exp                         4.000000
        max-rad                        5.000000


          ...................................................
          :                      SETUP                      :
          :.................................................:
          :  # basis functions                  17          :
          :  # atomic orbitals                  17          :
          :  # shells                            9          :
          :  # electrons                        18          :
          :  max. iterations                   250          :
          :  Hamiltonian                  GFN2-xTB          :
          :  restarted?                      false          :
          :  GBSA solvation                  false          :
          :  PC potential                    false          :
          :  electronic temp.          300.0000000     K    :
          :  accuracy                    1.0000000          :
          :  -> integral cutoff          0.2500000E+02      :
          :  -> integral neglect         0.1000000E-07      :
          :  -> SCF convergence          0.1000000E-05 Eh   :
          :  -> wf. convergence          0.1000000E-03 e    :
          :  Broyden damping             0.4000000          :
          ...................................................

 iter      E             dE          RMSdq      gap      omega  full diag
   1     -9.4273254 -0.942733E+01  0.116E+01    1.05       0.0  T
   2     -9.3344639  0.928615E-01  0.843E+00    0.60       1.0  T
   3     -8.1754594  0.115900E+01  0.111E+01    0.05       1.0  T
   4     -7.8291550  0.346304E+00  0.128E+01    0.32       1.0  T
   5     -9.4425148 -0.161336E+01  0.424E+00    0.96       1.0  T
   6     -9.4499645 -0.744975E-02  0.261E+00    0.68       1.0  T
   7     -9.4752187 -0.252542E-01  0.134E+00    0.81       1.0  T
   8     -9.4749215  0.297279E-03  0.111E+00    0.82       1.0  T
   9     -9.4757878 -0.866310E-03  0.128E-01    0.77       1.0  T
  10     -9.4757207  0.670869E-04  0.100E-01    0.77       1.0  T
  11     -9.4757930 -0.723396E-04  0.279E-02    0.77       1.6  T
  12     -9.4757935 -0.424354E-06  0.284E-02    0.77       1.6  T
  13     -9.4757949 -0.149040E-05  0.221E-02    0.77       2.0  T
  14     -9.4757952 -0.241591E-06  0.119E-02    0.77       3.7  T
  15     -9.4757954 -0.181287E-06  0.509E-03    0.77       8.8  T
  16     -9.4757954 -0.325605E-07  0.686E-04    0.77      65.2  T
  17     -9.4757954 -0.350882E-09  0.955E-05    0.77     468.1  T

   *** convergence criteria satisfied after 17 iterations ***

         #    Occupation            Energy/Eh            Energy/eV
      -------------------------------------------------------------
         1        2.0000           -0.6966818             -18.9577
       ...           ...                  ...                  ...
         3        2.0000           -0.6254426             -17.0192
         4        2.0000           -0.5752825             -15.6542
         5        2.0000           -0.5427280             -14.7684
         6        2.0000           -0.5107527             -13.8983
         7        2.0000           -0.5019917             -13.6599
         8        2.0000           -0.4593623             -12.4999
         9        2.0000           -0.4279753             -11.6458 (HOMO)
        10        0.0000           -0.3997907             -10.8789 (LUMO)
        11                         -0.3750184             -10.2048
        12                         -0.3477600              -9.4630
        13                         -0.3295760              -8.9682
        14                          0.0153788               0.4185
       ...                                ...                  ...
        17                          0.1307854               3.5589
      -------------------------------------------------------------
                  HL-Gap            0.0281847 Eh            0.7669 eV
             Fermi-level           -0.4138830 Eh          -11.2623 eV

 SCC (total)                   0 d,  0 h,  0 min,  0.004 sec
 SCC setup                      ...        0 min,  0.000 sec (  2.245%)
 Dispersion                     ...        0 min,  0.000 sec (  0.423%)
 integral evaluation            ...        0 min,  0.001 sec ( 26.429%)
 zeroth order Hamiltonian       ...        0 min,  0.000 sec (  0.547%)
 iterations                     ...        0 min,  0.002 sec ( 41.637%)
 molecular gradient             ...        0 min,  0.001 sec ( 26.379%)
 printout                       ...        0 min,  0.000 sec (  2.115%)

         :::::::::::::::::::::::::::::::::::::::::::::::::::::
         ::                     SUMMARY                     ::
         :::::::::::::::::::::::::::::::::::::::::::::::::::::
         :: total energy              -9.424458147506 Eh    ::
         :: gradient norm              0.337408260266 Eh/a0 ::
         :: HOMO-LUMO gap              0.766944304214 eV    ::
         ::.................................................::
         :: SCC energy                -9.475795400859 Eh    ::
         :: -> isotropic ES           -0.031159627006 Eh    ::
         :: -> anisotropic ES         -0.000591353666 Eh    ::
         :: -> anisotropic XC          0.016076718699 Eh    ::
         :: -> dispersion             -0.002237503230 Eh    ::
         :: repulsion energy           0.051337135676 Eh    ::
         :: add. restraining           0.000000000000 Eh    ::
         :::::::::::::::::::::::::::::::::::::::::::::::::::::

      ----------------------------------------------------------- 
     |                   =====================                   |
     |                        A N C O P T                        |
     |                   =====================                   |
     |               Approximate Normal Coordinate               |
     |                Rational Function Optimizer                |
      ----------------------------------------------------------- 

          ...................................................
          :                      SETUP                      :
          :.................................................:
          :   optimization level            normal          :
          :   max. optcycles                   200          :
          :   ANC micro-cycles                  20          :
          :   degrees of freedom                 9          :
          :.................................................:
          :   RF solver                   davidson          :
          :   write xtbopt.log                true          :
          :   linear?                        false          :
          :   energy convergence         0.5000000E-05 Eh   :
          :   grad. convergence          0.1000000E-02 Eh/α :
          :   maximium RF displ.         1.0000000          :
          :   Hlow (freq-cutoff)         0.1000000E-01      :
          :   Hmax (freq-cutoff)         5.0000000          :
          :   S6 in model hess.         20.0000000          :
          ...................................................

generating ANC from model Hessian ...
Using Lindh-Hessian (1995)
 Shifting diagonal of input Hessian by    0.0000000000000000     
 Lowest  eigenvalues of input Hessian
   -0.000000   -0.000000   -0.000000    0.000000    0.000000    0.000000
    0.011991    0.051932    0.082215    0.099154    0.116927    0.621579
    0.950269    0.991343    1.196603
 Highest eigenvalues
    0.099154    0.116927    0.621579    0.950269    0.991343    1.196603


........................................................................
.............................. CYCLE    1 ..............................
........................................................................
   1     -9.4757954 -0.947580E+01  0.351E-05    0.77       0.0  T
   2     -9.4757954  0.422240E-10  0.938E-05    0.77     477.0  T
   3     -9.4757954 -0.446700E-10  0.395E-05    0.77    1131.7  T
     SCC iter.                  ...        0 min,  0.000 sec
     gradient                   ...        0 min,  0.001 sec
 * total energy  :    -9.4244581 Eh     change       -0.2786411E-09 Eh
   gradient norm :     0.3374081 Eh/α   predicted     0.0000000E+00 (-100.00%)
   displ. norm   :     0.3854031 α      lambda       -0.1207454E+00
   maximum displ.:     0.2459618 α      in ANC's #6, #7, #3, ...

........................................................................
.............................. CYCLE    2 ..............................
........................................................................
   1     -9.6059817 -0.960598E+01  0.303E+00    1.22       0.0  T
   2     -9.5671090  0.388726E-01  0.373E+00    1.36       1.0  T
   3     -9.6316240 -0.645150E-01  0.128E+00    1.27       1.0  T
   4     -9.6294644  0.215959E-02  0.649E-01    1.31       1.0  T
   5     -9.6311805 -0.171604E-02  0.350E-01    1.21       1.0  T
   6     -9.6317930 -0.612577E-03  0.105E-01    1.25       1.0  T
   7     -9.6318037 -0.106275E-04  0.435E-02    1.25       1.0  T
   8     -9.6318145 -0.107856E-04  0.990E-03    1.25       4.5  T
   9     -9.6318147 -0.191243E-06  0.175E-03    1.25      25.5  T
  10     -9.6318147 -0.746528E-08  0.415E-04    1.25     107.8  T
  11     -9.6318147 -0.296055E-09  0.108E-04    1.25     412.5  T
     SCC iter.                  ...        0 min,  0.001 sec
     gradient                   ...        0 min,  0.001 sec
 * total energy  :    -9.5271840 Eh     change       -0.1027258E+00 Eh
   gradient norm :     0.2102004 Eh/α   predicted    -0.6934021E-01 ( -32.50%)
   displ. norm   :     0.5906430 α      lambda       -0.1114664E+00
   maximum displ.:     0.3685414 α      in ANC's #6, #7, #5, ...

........................................................................
.............................. CYCLE    3 ..............................
........................................................................
   1     -9.8282984 -0.982830E+01  0.389E+00    1.91       0.0  T
   2     -9.8352237 -0.692534E-02  0.267E+00    1.92       1.0  T
   3     -9.8469551 -0.117314E-01  0.150E+00    1.86       1.0  T
   4     -9.8491263 -0.217119E-02  0.485E-01    1.89       1.0  T
   5     -9.8494388 -0.312481E-03  0.304E-01    1.82       1.0  T
   6     -9.8499631 -0.524346E-03  0.104E-01    1.85       1.0  T
   7     -9.8499758 -0.126542E-04  0.217E-02    1.85       2.1  T
   8     -9.8499776 -0.179193E-05  0.843E-03    1.85       5.3  T
   9     -9.8499778 -0.241836E-06  0.105E-03    1.85      42.7  T
  10     -9.8499778 -0.936899E-09  0.326E-04    1.85     137.0  T
  11     -9.8499778 -0.402071E-09  0.752E-05    1.85     594.9  T
     SCC iter.                  ...        0 min,  0.001 sec
     gradient                   ...        0 min,  0.001 sec
 * total energy  :    -9.5376881 Eh     change       -0.1050413E-01 Eh
   gradient norm :     0.5028715 Eh/α   predicted    -0.7517623E-01 ( 615.68%)
   displ. norm   :     0.3618849 α      lambda       -0.1156921E+00
   maximum displ.:     0.2466214 α      in ANC's #5, #2, #9, ...

........................................................................
.............................. CYCLE    4 ..............................
........................................................................
   1     -9.7335615 -0.973356E+01  0.245E+00    1.94       0.0  T
   2     -9.7264388  0.712261E-02  0.200E+00    1.93       1.0  T
   3     -9.7433586 -0.169197E-01  0.121E+00    1.91       1.0  T
   4     -9.7447893 -0.143077E-02  0.628E-01    1.98       1.0  T
   5     -9.7475042 -0.271482E-02  0.210E-01    1.93       1.0  T
   6     -9.7476799 -0.175709E-03  0.627E-02    1.94       1.0  T
   7     -9.7476821 -0.223905E-05  0.229E-02    1.94       2.0  T
   8     -9.7476844 -0.227637E-05  0.452E-03    1.94       9.9  T
   9     -9.7476845 -0.100040E-06  0.651E-04    1.94      68.7  T
  10     -9.7476845 -0.307708E-09  0.178E-04    1.94     251.4  T
     SCC iter.                  ...        0 min,  0.001 sec
     gradient                   ...        0 min,  0.001 sec
 * total energy  :    -9.5783795 Eh     change       -0.4069138E-01 Eh
   gradient norm :     0.1587932 Eh/α   predicted    -0.6542162E-01 (  60.78%)
   displ. norm   :     0.2781115 α      lambda       -0.2436077E-01
   maximum displ.:     0.1764407 α      in ANC's #3, #2, #8, ...

........................................................................
.............................. CYCLE    5 ..............................
........................................................................
   1     -9.7256063 -0.972561E+01  0.160E+00    1.86       0.0  T
   2     -9.7118190  0.137873E-01  0.169E+00    1.44       1.0  T
   3     -9.7267182 -0.148992E-01  0.994E-01    1.90       1.0  T
   4     -9.7298299 -0.311167E-02  0.354E-01    1.76       1.0  T
   5     -9.7304306 -0.600681E-03  0.122E-01    1.76       1.0  T
   6     -9.7304812 -0.506519E-04  0.540E-02    1.77       1.0  T
   7     -9.7304848 -0.362694E-05  0.132E-02    1.77       3.4  T
   8     -9.7304852 -0.382308E-06  0.248E-03    1.76      18.0  T
   9     -9.7304852  0.843082E-09  0.127E-03    1.77      35.3  T
  10     -9.7304852 -0.652769E-08  0.119E-04    1.76     376.1  T
  11     -9.7304852 -0.390994E-10  0.341E-05    1.76    1309.9  T
     SCC iter.                  ...        0 min,  0.001 sec
     gradient                   ...        0 min,  0.001 sec
 * total energy  :    -9.5789966 Eh     change       -0.6171350E-03 Eh
   gradient norm :     0.1047722 Eh/α   predicted    -0.1312249E-01 (2026.36%)
   displ. norm   :     0.2777098 α      lambda       -0.1695346E-01
   maximum displ.:     0.1851968 α      in ANC's #2, #1, #3, ...

........................................................................
.............................. CYCLE    6 ..............................
........................................................................
   1     -9.7611327 -0.976113E+01  0.110E+00    1.97       0.0  T
   2     -9.7599900  0.114273E-02  0.870E-01    2.09       1.0  T
   3     -9.7604414 -0.451445E-03  0.653E-01    1.91       1.0  T
   4     -9.7617097 -0.126826E-02  0.262E-01    2.01       1.0  T
   5     -9.7621618 -0.452078E-03  0.562E-02    1.98       1.0  T
   6     -9.7621642 -0.246504E-05  0.224E-02    1.98       2.0  T
   7     -9.7621663 -0.203377E-05  0.487E-03    1.98       9.2  T
   8     -9.7621663 -0.530434E-07  0.210E-03    1.98      21.3  T
   9     -9.7621663 -0.107857E-07  0.739E-04    1.98      60.6  T
  10     -9.7621663 -0.794019E-09  0.460E-05    1.98     972.1  T
     SCC iter.                  ...        0 min,  0.001 sec
     gradient                   ...        0 min,  0.001 sec
 * total energy  :    -9.5900092 Eh     change       -0.1101254E-01 Eh
   gradient norm :     0.0550344 Eh/α   predicted    -0.9130481E-02 ( -17.09%)
   displ. norm   :     0.2820595 α      lambda       -0.8204215E-02
   maximum displ.:     0.1609778 α      in ANC's #2, #6, #5, ...

........................................................................
.............................. CYCLE    7 ..............................
........................................................................
   1     -9.7675749 -0.976757E+01  0.129E+00    2.14       0.0  T
   2     -9.7661633  0.141160E-02  0.918E-01    2.21       1.0  T
   3     -9.7653156  0.847729E-03  0.835E-01    2.08       1.0  T
   4     -9.7686014 -0.328578E-02  0.856E-02    2.16       1.0  T
   5     -9.7686328 -0.314135E-04  0.589E-02    2.15       1.0  T
   6     -9.7686371 -0.426680E-05  0.390E-02    2.15       1.1  T
   7     -9.7686429 -0.580535E-05  0.741E-03    2.15       6.0  T
   8     -9.7686430 -0.172931E-06  0.192E-03    2.15      23.3  T
   9     -9.7686430 -0.471534E-09  0.699E-04    2.15      64.0  T
  10     -9.7686430 -0.110787E-08  0.669E-05    2.15     668.2  T
     SCC iter.                  ...        0 min,  0.001 sec
     gradient                   ...        0 min,  0.001 sec
 * total energy  :    -9.5920306 Eh     change       -0.2021476E-02 Eh
   gradient norm :     0.0836175 Eh/α   predicted    -0.4428460E-02 ( 119.07%)
   displ. norm   :     0.1201417 α      lambda       -0.5161215E-02
   maximum displ.:     0.0984515 α      in ANC's #5, #1, #7, ...

........................................................................
.............................. CYCLE    8 ..............................
........................................................................
   1     -9.7805847 -0.978058E+01  0.708E-01    2.23       0.0  T
   2     -9.7800597  0.525034E-03  0.594E-01    2.18       1.0  T
   3     -9.7812706 -0.121091E-02  0.331E-01    2.24       1.0  T
   4     -9.7811327  0.137883E-03  0.227E-01    2.19       1.0  T
   5     -9.7814936 -0.360926E-03  0.265E-02    2.22       1.7  T
   6     -9.7814960 -0.238864E-05  0.139E-02    2.23       3.2  T
   7     -9.7814963 -0.345180E-06  0.177E-03    2.23      25.3  T
   8     -9.7814963 -0.274078E-08  0.628E-04    2.23      71.2  T
   9     -9.7814963 -0.717968E-09  0.182E-04    2.23     246.1  T
     SCC iter.                  ...        0 min,  0.001 sec
     gradient                   ...        0 min,  0.001 sec
 * total energy  :    -9.5951896 Eh     change       -0.3158962E-02 Eh
   gradient norm :     0.0224392 Eh/α   predicted    -0.2617855E-02 ( -17.13%)
   displ. norm   :     0.1575178 α      lambda       -0.1382447E-02
   maximum displ.:     0.1003242 α      in ANC's #2, #1, #7, ...

........................................................................
.............................. CYCLE    9 ..............................
........................................................................
   1     -9.7821479 -0.978215E+01  0.817E-01    2.33       0.0  T
   2     -9.7821154  0.325201E-04  0.510E-01    2.35       1.0  T
   3     -9.7812297  0.885695E-03  0.426E-01    2.32       1.0  T
   4     -9.7822282 -0.998527E-03  0.750E-02    2.35       1.0  T
   5     -9.7822606 -0.324009E-04  0.217E-02    2.34       2.1  T
   6     -9.7822617 -0.107342E-05  0.749E-03    2.35       6.0  T
   7     -9.7822618 -0.153170E-06  0.197E-03    2.35      22.7  T
   8     -9.7822619 -0.575325E-08  0.530E-04    2.35      84.4  T
   9     -9.7822619 -0.393513E-09  0.814E-05    2.35     549.1  T
     SCC iter.                  ...        0 min,  0.001 sec
     gradient                   ...        0 min,  0.001 sec
 * total energy  :    -9.5960744 Eh     change       -0.8848213E-03 Eh
   gradient norm :     0.0240925 Eh/α   predicted    -0.7083741E-03 ( -19.94%)
   displ. norm   :     0.1972645 α      lambda       -0.1409776E-02
   maximum displ.:     0.1362166 α      in ANC's #2, #1, #7, ...

........................................................................
.............................. CYCLE   10 ..............................
........................................................................
   1     -9.7943131 -0.979431E+01  0.830E-01    2.51       0.0  T
   2     -9.7938623  0.450847E-03  0.631E-01    2.58       1.0  T
   3     -9.7941401 -0.277785E-03  0.452E-01    2.49       1.0  T
   4     -9.7947425 -0.602424E-03  0.169E-01    2.55       1.0  T
   5     -9.7949094 -0.166928E-03  0.301E-02    2.53       1.5  T
   6     -9.7949120 -0.254053E-05  0.994E-03    2.53       4.5  T
   7     -9.7949121 -0.144989E-06  0.247E-03    2.53      18.1  T
   8     -9.7949121 -0.111925E-07  0.371E-04    2.53     120.4  T
   9     -9.7949121 -0.759481E-10  0.982E-05    2.53     455.4  T
     SCC iter.                  ...        0 min,  0.001 sec
     gradient                   ...        0 min,  0.001 sec
 * total energy  :    -9.5965452 Eh     change       -0.4707790E-03 Eh
   gradient norm :     0.0252164 Eh/α   predicted    -0.7323177E-03 (  55.55%)
   displ. norm   :     0.1715495 α      lambda       -0.1129205E-02
   maximum displ.:     0.1165697 α      in ANC's #1, #2, #7, ...

........................................................................
.............................. CYCLE   11 ..............................
........................................................................
   1     -9.7840380 -0.978404E+01  0.752E-01    2.65       0.0  T
   2     -9.7837572  0.280762E-03  0.517E-01    2.71       1.0  T
   3     -9.7828311  0.926126E-03  0.516E-01    2.60       1.0  T
   4     -9.7842394 -0.140830E-02  0.337E-02    2.68       1.3  T
   5     -9.7842411 -0.168159E-05  0.166E-02    2.68       2.7  T
   6     -9.7842411 -0.156667E-07  0.117E-02    2.68       3.8  T
   7     -9.7842418 -0.699617E-06  0.172E-03    2.68      26.0  T
   8     -9.7842418 -0.230709E-08  0.473E-04    2.68      94.6  T
   9     -9.7842418 -0.419210E-09  0.147E-04    2.68     304.7  T
     SCC iter.                  ...        0 min,  0.001 sec
     gradient                   ...        0 min,  0.001 sec
 * total energy  :    -9.5970273 Eh     change       -0.4821098E-03 Eh
   gradient norm :     0.0200602 Eh/α   predicted    -0.5812163E-03 (  20.56%)
   displ. norm   :     0.0465534 α      lambda       -0.3199751E-03
   maximum displ.:     0.0298701 α      in ANC's #2, #7, #6, ...

........................................................................
.............................. CYCLE   12 ..............................
........................................................................
   1     -9.7876362 -0.978764E+01  0.214E-01    2.65       0.0  T
   2     -9.7876296  0.651137E-05  0.132E-01    2.64       1.0  T
   3     -9.7875172  0.112477E-03  0.144E-01    2.66       1.0  T
   4     -9.7876431 -0.125897E-03  0.847E-03    2.64       5.3  T
   5     -9.7876429  0.127430E-06  0.622E-03    2.64       7.2  T
   6     -9.7876431 -0.186257E-06  0.169E-03    2.64      26.4  T
   7     -9.7876431 -0.800301E-08  0.444E-04    2.64     100.7  T
   8     -9.7876431 -0.255984E-09  0.164E-04    2.64     272.8  T
     SCC iter.                  ...        0 min,  0.001 sec
     gradient                   ...        0 min,  0.001 sec
 * total energy  :    -9.5972139 Eh     change       -0.1865767E-03 Eh
   gradient norm :     0.0060303 Eh/α   predicted    -0.1603330E-03 ( -14.07%)
   displ. norm   :     0.0411727 α      lambda       -0.1311963E-03
   maximum displ.:     0.0336777 α      in ANC's #2, #5, #9, ...

........................................................................
.............................. CYCLE   13 ..............................
........................................................................
   1     -9.7877257 -0.978773E+01  0.173E-01    2.69       0.0  T
   2     -9.7877046  0.211931E-04  0.131E-01    2.71       1.0  T
   3     -9.7876869  0.176624E-04  0.107E-01    2.68       1.0  T
   4     -9.7877414 -0.544846E-04  0.611E-03    2.70       7.3  T
   5     -9.7877414 -0.506756E-08  0.297E-03    2.70      15.0  T
   6     -9.7877414 -0.352074E-07  0.132E-03    2.70      33.8  T
   7     -9.7877414 -0.438923E-08  0.462E-04    2.70      96.7  T
   8     -9.7877414 -0.615765E-09  0.561E-05    2.70     796.7  T
     SCC iter.                  ...        0 min,  0.001 sec
     gradient                   ...        0 min,  0.001 sec
 * total energy  :    -9.5973010 Eh     change       -0.8712958E-04 Eh
   gradient norm :     0.0031664 Eh/α   predicted    -0.6570891E-04 ( -24.58%)
   displ. norm   :     0.0480509 α      lambda       -0.6030584E-04
   maximum displ.:     0.0332004 α      in ANC's #2, #1, #5, ...

........................................................................
.............................. CYCLE   14 ..............................
........................................................................
   1     -9.7879496 -0.978795E+01  0.222E-01    2.76       0.0  T
   2     -9.7879004  0.492423E-04  0.183E-01    2.78       1.0  T
   3     -9.7879436 -0.432796E-04  0.120E-01    2.76       1.0  T
   4     -9.7879869 -0.432178E-04  0.319E-02    2.77       1.4  T
   5     -9.7879925 -0.560825E-05  0.681E-03    2.77       6.6  T
   6     -9.7879926 -0.110496E-06  0.174E-03    2.77      25.7  T
   7     -9.7879926 -0.336904E-08  0.638E-04    2.77      70.1  T
   8     -9.7879926 -0.939687E-09  0.666E-05    2.77     671.2  T
     SCC iter.                  ...        0 min,  0.001 sec
     gradient                   ...        0 min,  0.001 sec
 * total energy  :    -9.5973363 Eh     change       -0.3528718E-04 Eh
   gradient norm :     0.0029831 Eh/α   predicted    -0.3022115E-04 ( -14.36%)
   displ. norm   :     0.0259869 α      lambda       -0.1903989E-04
   maximum displ.:     0.0180991 α      in ANC's #2, #5, #3, ...

........................................................................
.............................. CYCLE   15 ..............................
........................................................................
   1     -9.7883765 -0.978838E+01  0.122E-01    2.81       0.0  T
   2     -9.7883571  0.193728E-04  0.107E-01    2.83       1.0  T
   3     -9.7883809 -0.237282E-04  0.634E-02    2.81       1.0  T
   4     -9.7883911 -0.102093E-04  0.158E-02    2.82       2.8  T
   5     -9.7883924 -0.129015E-05  0.420E-03    2.82      10.6  T
   6     -9.7883924 -0.576379E-07  0.110E-03    2.82      40.8  T
   7     -9.7883924 -0.200598E-08  0.404E-04    2.82     110.8  T
   8     -9.7883924 -0.346322E-09  0.360E-05    2.82    1240.7  T
     SCC iter.                  ...        0 min,  0.001 sec
     gradient                   ...        0 min,  0.001 sec
 * total energy  :    -9.5973503 Eh     change       -0.1403509E-04 Eh
   gradient norm :     0.0023899 Eh/α   predicted    -0.9526538E-05 ( -32.12%)
   displ. norm   :     0.0316713 α      lambda       -0.2130663E-04
   maximum displ.:     0.0169232 α      in ANC's #1, #5, #2, ...

........................................................................
.............................. CYCLE   16 ..............................
........................................................................
   1     -9.7890476 -0.978905E+01  0.151E-01    2.87       0.0  T
   2     -9.7890168  0.307954E-04  0.134E-01    2.89       1.0  T
   3     -9.7890601 -0.433470E-04  0.756E-02    2.87       1.0  T
   4     -9.7890716 -0.114501E-04  0.233E-02    2.88       1.9  T
   5     -9.7890745 -0.288334E-05  0.542E-03    2.88       8.2  T
   6     -9.7890746 -0.886274E-07  0.146E-03    2.88      30.7  T
   7     -9.7890746 -0.320224E-08  0.521E-04    2.88      85.9  T
   8     -9.7890746 -0.600627E-09  0.485E-05    2.88     921.3  T
     SCC iter.                  ...        0 min,  0.001 sec
     gradient                   ...        0 min,  0.001 sec
 * total energy  :    -9.5973651 Eh     change       -0.1475837E-04 Eh
   gradient norm :     0.0018509 Eh/α   predicted    -0.1066309E-04 ( -27.75%)
   displ. norm   :     0.0325435 α      lambda       -0.1135696E-04
   maximum displ.:     0.0200216 α      in ANC's #1, #3, #5, ...

........................................................................
.............................. CYCLE   17 ..............................
........................................................................
   1     -9.7896348 -0.978963E+01  0.143E-01    2.92       0.0  T
   2     -9.7896116  0.232015E-04  0.122E-01    2.94       1.0  T
   3     -9.7896392 -0.276131E-04  0.744E-02    2.92       1.0  T
   4     -9.7896534 -0.142177E-04  0.204E-02    2.93       2.2  T
   5     -9.7896556 -0.217839E-05  0.514E-03    2.93       8.7  T
   6     -9.7896557 -0.739890E-07  0.145E-03    2.93      30.7  T
   7     -9.7896557 -0.328192E-08  0.462E-04    2.93      96.8  T
   8     -9.7896557 -0.468853E-09  0.499E-05    2.93     896.8  T
     SCC iter.                  ...        0 min,  0.001 sec
     gradient                   ...        0 min,  0.001 sec
 * total energy  :    -9.5973744 Eh     change       -0.9274769E-05 Eh
   gradient norm :     0.0023343 Eh/α   predicted    -0.5681634E-05 ( -38.74%)
   displ. norm   :     0.0057545 α      lambda       -0.3755793E-05
   maximum displ.:     0.0038351 α      in ANC's #2, #7, #4, ...

........................................................................
.............................. CYCLE   18 ..............................
........................................................................
   1     -9.7896689 -0.978967E+01  0.216E-02    2.93       0.0  T
   2     -9.7896689  0.325682E-07  0.129E-02    2.93       3.5  T
   3     -9.7896679  0.933118E-06  0.132E-02    2.93       3.4  T
   4     -9.7896690 -0.102428E-05  0.884E-04    2.93      50.6  T
   5     -9.7896690  0.669267E-09  0.516E-04    2.93      86.6  T
   6     -9.7896690 -0.832005E-09  0.228E-04    2.93     196.4  T
     SCC iter.                  ...        0 min,  0.001 sec
     gradient                   ...        0 min,  0.001 sec
 * total energy  :    -9.5973776 Eh     change       -0.3214854E-05 Eh
   gradient norm :     0.0019168 Eh/α   predicted    -0.1876845E-05 ( -41.62%)
   displ. norm   :     0.0320129 α      lambda       -0.1237893E-04
   maximum displ.:     0.0167608 α      in ANC's #3, #7, #2, ...

........................................................................
.............................. CYCLE   19 ..............................
........................................................................
   1     -9.7888482 -0.978885E+01  0.116E-01    2.95       0.0  T
   2     -9.7888439  0.428596E-05  0.766E-02    2.96       1.0  T
   3     -9.7888176  0.263467E-04  0.792E-02    2.95       1.0  T
   4     -9.7888522 -0.345773E-04  0.531E-03    2.96       8.4  T
   5     -9.7888521  0.159768E-07  0.431E-03    2.96      10.4  T
   6     -9.7888522 -0.644502E-07  0.393E-04    2.96     113.7  T
   7     -9.7888522 -0.467018E-09  0.122E-04    2.96     367.8  T
     SCC iter.                  ...        0 min,  0.001 sec
     gradient                   ...        0 min,  0.001 sec
 * total energy  :    -9.5973811 Eh     change       -0.3556933E-05 Eh
   gradient norm :     0.0011266 Eh/α   predicted    -0.6194082E-05 (  74.14%)
   displ. norm   :     0.0146797 α      lambda       -0.4579249E-05
   maximum displ.:     0.0084581 α      in ANC's #2, #1, #3, ...

........................................................................
.............................. CYCLE   20 ..............................
........................................................................
   1     -9.7893510 -0.978935E+01  0.532E-02    2.96       0.0  T
   2     -9.7893510 -0.710039E-07  0.309E-02    2.96       1.4  T
   3     -9.7893500  0.107493E-05  0.142E-02    2.95       3.2  T
   4     -9.7893511 -0.116923E-05  0.233E-03    2.95      19.2  T
   5     -9.7893511  0.983915E-08  0.211E-03    2.95      21.2  T
   6     -9.7893511 -0.190579E-07  0.187E-04    2.95     238.6  T
   7     -9.7893511 -0.704787E-10  0.685E-05    2.95     653.1  T
     SCC iter.                  ...        0 min,  0.001 sec
     gradient                   ...        0 min,  0.001 sec
 * total energy  :    -9.5973841 Eh     change       -0.2987006E-05 Eh
   gradient norm :     0.0007349 Eh/α   predicted    -0.2289771E-05 ( -23.34%)
   displ. norm   :     0.0053075 α      lambda       -0.6157229E-06
   maximum displ.:     0.0033559 α      in ANC's #1, #2, #7, ...

   *** GEOMETRY OPTIMIZATION CONVERGED AFTER 20 ITERATIONS ***

------------------------------------------------------------------------
 total energy gain   :        -0.1729260 Eh     -108.5127 kcal/mol
 total RMSD          :         0.7829010 a0        0.4143 Å
 total power (kW/mol):       -22.7008551 (step)-7812.1018 (real)
------------------------------------------------------------------------

 ANCopt (total)                0 d,  0 h,  0 min,  0.058 sec
 optimizer setup                ...        0 min,  0.000 sec (  0.108%)
 model hessian                  ...        0 min,  0.000 sec (  0.151%)
 ANC generation                 ...        0 min,  0.000 sec (  0.093%)
 coordinate transformation      ...        0 min,  0.000 sec (  0.079%)
 single point calculation       ...        0 min,  0.056 sec ( 96.738%)
 optimization log               ...        0 min,  0.001 sec (  0.921%)
 hessian update                 ...        0 min,  0.000 sec (  0.084%)
 rational function              ...        0 min,  0.000 sec (  0.756%)

================
 final structure:
================
5
 xtb: 6.2.2 (9d81278992624c895f80dd42a50cac0aa55982e2)
C         1.99914681080823   -0.51494514537474    0.11827015301718
N         0.86593123997221   -0.23789342484088    0.05601419453687
C        -0.39865160789153    0.18088137498905   -0.05162047506010
C        -1.24636053037025    1.09953539229286   -0.34857738279324
H        -1.22006491251864   -0.52757719706629    0.22591351029929

 Bond Distances (Angstroems)
 ---------------------------
C1-N2=1.1683         N2-C1=1.1683         N2-C3=1.3365         C3-N2=1.3365         C3-C4=1.2848         C3-H5=1.1197         
C4-C3=1.2848         H5-C3=1.1197         
 C  H  Rav=1.1197 sigma=0.0000  Rmin=1.1197  Rmax=1.1197     1
 C  C  Rav=1.2848 sigma=0.0000  Rmin=1.2848  Rmax=1.2848     1
 N  C  Rav=1.2524 sigma=0.0841  Rmin=1.1683  Rmax=1.3365     2

 selected bond angles (degree)
 --------------------
C3-N2-C1=175.17                C4-C3-N2=150.11                H5-C3-N2=118.42                H5-C3-C4= 91.47                

 selected dihedral angles (degree)
 ---------------------------------
C4-C3-N2-C1=  0.23            H5-C3-N2-C1=180.33            
           -------------------------------------------------
          |                Final Singlepoint                |
           -------------------------------------------------

          ...................................................
          :                      SETUP                      :
          :.................................................:
          :  # basis functions                  17          :
          :  # atomic orbitals                  17          :
          :  # shells                            9          :
          :  # electrons                        18          :
          :  max. iterations                   250          :
          :  Hamiltonian                  GFN2-xTB          :
          :  restarted?                      false          :
          :  GBSA solvation                  false          :
          :  PC potential                    false          :
          :  electronic temp.          300.0000000     K    :
          :  accuracy                    1.0000000          :
          :  -> integral cutoff          0.2500000E+02      :
          :  -> integral neglect         0.1000000E-07      :
          :  -> SCF convergence          0.1000000E-05 Eh   :
          :  -> wf. convergence          0.1000000E-03 e    :
          :  Broyden damping             0.4000000          :
          ...................................................

 iter      E             dE          RMSdq      gap      omega  full diag
   1     -9.7893511 -0.978935E+01  0.184E-05    2.95       0.0  T
   2     -9.7893511  0.380140E-12  0.132E-05    2.95    3376.1  T
   3     -9.7893511 -0.415668E-12  0.119E-05    2.95    3760.0  T

   *** convergence criteria satisfied after 3 iterations ***

         #    Occupation            Energy/Eh            Energy/eV
      -------------------------------------------------------------
         1        2.0000           -0.6956280             -18.9290
       ...           ...                  ...                  ...
         3        2.0000           -0.6391972             -17.3934
         4        2.0000           -0.5782878             -15.7360
         5        2.0000           -0.5474156             -14.8959
         6        2.0000           -0.5053160             -13.7503
         7        2.0000           -0.4616313             -12.5616
         8        2.0000           -0.4474682             -12.1762
         9        2.0000           -0.4371674             -11.8959 (HOMO)
        10                         -0.3285917              -8.9414 (LUMO)
        11                         -0.2850118              -7.7556
        12                         -0.2436746              -6.6307
        13                         -0.1673759              -4.5545
        14                          0.0687050               1.8696
       ...                                ...                  ...
        17                          1.0791222              29.3644
      -------------------------------------------------------------
                  HL-Gap            0.1085757 Eh            2.9545 eV
             Fermi-level           -0.3828796 Eh          -10.4187 eV

 SCC (total)                   0 d,  0 h,  0 min,  0.002 sec
 SCC setup                      ...        0 min,  0.000 sec (  1.853%)
 Dispersion                     ...        0 min,  0.000 sec (  0.323%)
 integral evaluation            ...        0 min,  0.001 sec ( 40.173%)
 zeroth order Hamiltonian       ...        0 min,  0.000 sec (  0.539%)
 iterations                     ...        0 min,  0.000 sec ( 13.156%)
 molecular gradient             ...        0 min,  0.001 sec ( 41.368%)
 printout                       ...        0 min,  0.000 sec (  2.304%)

         :::::::::::::::::::::::::::::::::::::::::::::::::::::
         ::                     SUMMARY                     ::
         :::::::::::::::::::::::::::::::::::::::::::::::::::::
         :: total energy              -9.597384129428 Eh    ::
         :: gradient norm              0.000743541033 Eh/a0 ::
         :: HOMO-LUMO gap              2.954494238461 eV    ::
         ::.................................................::
         :: SCC energy                -9.789351135140 Eh    ::
         :: -> isotropic ES           -0.017413764350 Eh    ::
         :: -> anisotropic ES          0.001774764150 Eh    ::
         :: -> anisotropic XC          0.018715691624 Eh    ::
         :: -> dispersion             -0.002158531985 Eh    ::
         :: repulsion energy           0.191967020951 Eh    ::
         :: add. restraining           0.000000000000 Eh    ::
         :::::::::::::::::::::::::::::::::::::::::::::::::::::

           ------------------------------------------------- 
          |                Numerical Hessian                |
           ------------------------------------------------- 
step length          :   0.00500
SCC accuracy         :   0.30000
Hessian scale factor :   1.00000
frozen atoms in %    :   0.00000    0
RMS gradient         :   0.00074
estimated CPU  time      0.00 min
estimated wall time      0.00 min

writing file <hessian>.

 projected vibrational frequencies (cm-1)
eigval :       -0.00    -0.00    -0.00     0.00     0.00     0.00
eigval :      158.87   283.13   338.22   574.22   784.05   961.49
eigval :     1805.92  2172.54  2684.08
           -------------------------------------------------
          |                Property Printout                |
           -------------------------------------------------

    * Orbital Energies and Occupations

         #    Occupation            Energy/Eh            Energy/eV
      -------------------------------------------------------------
         1        2.0000           -0.6956280             -18.9290
         2        2.0000           -0.6800064             -18.5039
         3        2.0000           -0.6391972             -17.3934
         4        2.0000           -0.5782878             -15.7360
         5        2.0000           -0.5474156             -14.8959
         6        2.0000           -0.5053160             -13.7503
         7        2.0000           -0.4616313             -12.5616
         8        2.0000           -0.4474682             -12.1762
         9        2.0000           -0.4371674             -11.8959 (HOMO)
        10                         -0.3285917              -8.9414 (LUMO)
        11                         -0.2850118              -7.7556
        12                         -0.2436747              -6.6307
        13                         -0.1673759              -4.5545
        14                          0.0687050               1.8696
        15                          0.1208701               3.2890
        16                          0.6764428              18.4069
        17                          1.0791221              29.3644
      -------------------------------------------------------------
                  HL-Gap            0.1085757 Eh            2.9545 eV
             Fermi-level           -0.3828795 Eh          -10.4187 eV

     #   Z        covCN         q      C6AA      α(0)
     1   6 C      0.914    -0.124    39.421    10.509
     2   7 N      1.821     0.041    21.186     6.820
     3   6 C      2.814     0.058    26.695     8.465
     4   6 C      0.994    -0.153    41.036    10.766
Molecule has the following symmetry elements: (sigma) 
It seems to be the Cs point group
     5   1 H      0.932     0.179     1.212     1.722

 Mol. C6AA /au·bohr⁶  :        553.662236
 Mol. C8AA /au·bohr⁸  :      14720.597969
 Mol. α(0) /au        :         38.282713


Wiberg/Mayer (AO) data.
largest (>0.10) Wiberg bond orders for each atom
          total WBO             WBO to atom ...
     1  C   2.809        N    2 2.520    C    4 0.218
     2  N   3.694        C    1 2.520    C    3 1.113
     3  C   3.956        C    4 2.069    N    2 1.113    H    5 0.728
     4  C   2.561        C    3 2.069    C    1 0.218    H    5 0.214
     5  H   0.968        C    3 0.728    C    4 0.214

MOs/occ written to file <molden.input>


molecular dipole:
                 x           y           z       tot (Debye)
 q only:       -0.496      -0.375       0.148
   full:       -0.580      -0.622       0.238       2.244
molecular quadrupole (traceless):
                xx          xy          yy          xz          yz          zz
 q only:       -1.217       2.360       0.197      -0.761       0.236       1.020
  q+dip:       -3.085       4.478       0.921      -1.414       0.319       2.164
   full:       -4.958       6.327       1.472      -1.964       0.556       3.486

           -------------------------------------------------
          |                Geometry Summary                 |
           -------------------------------------------------

      molecular mass/u    :       51.0468517
   center of mass at/Å    :        0.2968357       0.1044124      -0.0465051
  moments of inertia/u·Å² :        0.3558028E+01   0.9277534E+02   0.9633336E+02
rotational constants/cm⁻¹ :        0.4737914E+01   0.1817038E+00   0.1749927E+00

 * 3 selected distances

     #   Z        #   Z                                     value/Å
     1   6 C      2   7 N                                 1.1682513 (min)
     2   7 N      3   6 C                                 1.3364607 (max)
     3   6 C      4   6 C                                 1.2848031

 * 2 distinct bonds (by element types)

   Z      Z             #   av. dist./Å        max./Å        min./Å
   6 C    6 C           1     1.2848031     1.2848031     1.2848031
   6 C    7 N           2     1.2523560     1.3364607     1.1682513

           -------------------------------------------------
          |               Frequency Printout                |
           -------------------------------------------------
 projected vibrational frequencies (cm-1)
eigval :       -0.00    -0.00    -0.00     0.00     0.00     0.00
eigval :      158.87   283.13   338.22   574.22   784.05   961.49
eigval :     1805.92  2172.54  2684.08
 reduced masses (amu)
   1:  8.09   2: 11.86   3: 11.38   4: 12.25   5: 12.36   6: 11.91   7: 11.81   8:  9.98
   9: 10.89  10:  9.73  11:  5.68  12: 10.47  13: 11.98  14: 13.04  15:  1.72
 IR intensities (amu)
   1:  0.31   2:  0.24   3:  0.11   4:  0.07   5:  0.08   6:  0.21   7:  0.24   8:  0.07
   9:  0.04  10:  0.02  11:  0.30  12:  0.12  13:  0.25  14:  0.09  15:  0.09
 Raman intensities (amu)
   1:  0.00   2:  0.00   3:  0.00   4:  0.00   5:  0.00   6:  0.00   7:  0.00   8:  0.00
   9:  0.00  10:  0.00  11:  0.00  12:  0.00  13:  0.00  14:  0.00  15:  0.00
 output can be read by thermo (or use thermo option).
 writing <g98.out> molden fake output.
 recommended (thermochemical) frequency scaling factor: 1.0
           -------------------------------------------------
          |             Thermodynamic Functions             |
           -------------------------------------------------

cs  symmetry found (for desy threshold:  0.10E+00) used in thermo

          ...................................................
          :                      SETUP                      :
          :.................................................:
          :  # frequencies                           9      :
          :  # imaginary freq.                       0      :
          :  linear?                             false      :
          :  only rotor calc.                    false      :
          :  symmetry                               cs      :
          :  rotational number                       1      :
          :  scaling factor                  1.0000000      :
          :  rotor cutoff                   50.0000000 cm⁻¹ :
          :  imag. cutoff                  -20.0000000 cm⁻¹ :
          :.................................................:

    mode    ω/cm⁻¹     T·S(HO)/kcal·mol⁻¹    T·S(FR)/kcal·mol⁻¹   T·S(vib)
   ------------------------------------------------------------------------
       1    158.87    -0.00000 ( 99.03%)     0.00980 (  0.97%)     0.00010
       2    283.13    -0.00000 ( 99.90%)     0.01553 (  0.10%)     0.00002
   ------------------------------------------------------------------------

   temp. (K)  partition function   enthalpy   heat capacity  entropy
                                   cal/mol     cal/K/mol   cal/K/mol   J/K/mol
 298.15  VIB   3.44                 1095.965      7.414      6.128
         ROT  0.136E+05              888.752      2.981     21.899
         INT  0.468E+05             1984.717     10.395     28.026
         TR   0.353E+27             1481.254      4.968     37.697
         TOT                        3465.9712    15.3634    65.7226   274.9833

   temp. (K)  partition function   enthalpy   heat capacity  entropy
                                   cal/mol     cal/K/mol   cal/K/mol   J/K/mol
 120.00  VIB   1.24                  126.496      3.004      1.485
         ROT  0.348E+04              357.707      2.981     19.186
         INT  0.431E+04              484.203      5.985     20.671
         TR   0.901E+26              596.178      4.968     33.177
         TOT                        1080.3810    10.9535    53.8478   225.2993

   temp. (K)  partition function   enthalpy   heat capacity  entropy
                                   cal/mol     cal/K/mol   cal/K/mol   J/K/mol
 100.00  VIB   1.14                   73.401      2.296      1.004
         ROT  0.265E+04              298.089      2.981     18.642
         INT  0.302E+04              371.490      5.277     19.646
         TR   0.685E+26              496.815      4.968     32.272
         TOT                         868.3045    10.2450    51.9175   217.2230

   temp. (K)  partition function   enthalpy   heat capacity  entropy
                                   cal/mol     cal/K/mol   cal/K/mol   J/K/mol
  80.00  VIB   1.07                   34.950      1.545      0.578
         ROT  0.189E+04              238.471      2.981     17.977
         INT  0.203E+04              273.421      4.526     18.555
         TR   0.490E+26              397.452      4.968     31.164
         TOT                         670.8732     9.4941    49.7186   208.0227

   temp. (K)  partition function   enthalpy   heat capacity  entropy
                                   cal/mol     cal/K/mol   cal/K/mol   J/K/mol
  60.00  VIB   1.02                   11.498      0.811      0.245
         ROT  0.123E+04              178.853      2.981     17.119
         INT  0.126E+04              190.351      3.792     17.364
         TR   0.319E+26              298.089      4.968     29.735
         TOT                         488.4401     8.7604    47.0995   197.0643

   temp. (K)  partition function   enthalpy   heat capacity  entropy
                                   cal/mol     cal/K/mol   cal/K/mol   J/K/mol
  40.00  VIB   1.00                    1.539      0.225      0.048
         ROT   669.                  119.236      2.981     15.911
         INT   672.                  120.774      3.206     15.959
         TR   0.173E+26              198.726      4.968     27.722
         TOT                         319.5004     8.1738    43.6807   182.7601

   temp. (K)  partition function   enthalpy   heat capacity  entropy
                                   cal/mol     cal/K/mol   cal/K/mol   J/K/mol
  20.00  VIB   1.00                    0.005      0.003     -0.004
         ROT   237.                   59.618      2.981     13.845
         INT   237.                   59.623      2.984     13.841
         TR   0.613E+25               99.363      4.968     24.280
         TOT                         158.9857     7.9519    38.1204   159.4956

   temp. (K)  partition function   enthalpy   heat capacity  entropy
                                   cal/mol     cal/K/mol   cal/K/mol   J/K/mol
  10.00  VIB   1.00                    0.000      0.000     -0.012
         ROT   83.7                   29.809      2.981     11.778
         INT   83.7                   29.809      2.981     11.766
         TR   0.217E+25               49.681      4.968     20.838
         TOT                          79.4904     7.9490    32.6042   136.4159

       T/K    H(0)-H(T)+PV         H(T)/Eh          T*S/Eh         G(T)/Eh
   ------------------------------------------------------------------------
    298.15    0.552338E-02    0.277640E-01    0.312269E-01   -0.346292E-02
    120.00    0.172170E-02    0.239623E-01    0.102974E-01    0.136649E-01
    100.00    0.138373E-02    0.236244E-01    0.827359E-02    0.153508E-01
     80.00    0.106910E-02    0.233097E-01    0.633853E-02    0.169712E-01
     60.00    0.778379E-03    0.230190E-01    0.450347E-02    0.185155E-01
     40.00    0.509156E-03    0.227498E-01    0.278439E-02    0.199654E-01
     20.00    0.253360E-03    0.224940E-01    0.121497E-02    0.212790E-01
     10.00    0.126676E-03    0.223673E-01    0.519581E-03    0.218477E-01 (used)
   ------------------------------------------------------------------------

         :::::::::::::::::::::::::::::::::::::::::::::::::::::
         ::                  THERMODYNAMIC                  ::
         :::::::::::::::::::::::::::::::::::::::::::::::::::::
         :: total free energy          -9.575536406478 Eh   ::
         ::.................................................::
         :: total energy               -9.597384129425 Eh   ::
         :: zero point energy           0.022240627595 Eh   ::
         :: G(RRHO) w/o ZPVE           -0.000392904648 Eh   ::
         :: G(RRHO) contrib.            0.021847722947 Eh   ::
         :::::::::::::::::::::::::::::::::::::::::::::::::::::

optimized geometry written to: xtbopt.xyz


           -------------------------------------------------
          | TOTAL ENERGY               -9.597384129425 Eh   |
          | TOTAL ENTHALPY             -9.575016825815 Eh   |
          | TOTAL FREE ENERGY          -9.575536406478 Eh   |
          | GRADIENT NORM               0.000743539959 Eh/α |
          | HOMO-LUMO GAP               2.954495319696 eV   |
           -------------------------------------------------

------------------------------------------------------------------------
 * finished run on 2020/05/12 at 11:44:54.597     
------------------------------------------------------------------------
 total:
 * wall-time:     0 d,  0 h,  0 min,  0.159 sec
 *  cpu-time:     0 d,  0 h,  0 min,  0.159 sec
 * ratio c/w:     0.998 speedup
 SCF:
 * wall-time:     0 d,  0 h,  0 min,  0.004 sec
 *  cpu-time:     0 d,  0 h,  0 min,  0.004 sec
 * ratio c/w:     1.000 speedup
 ANC optimizer:
 * wall-time:     0 d,  0 h,  0 min,  0.061 sec
 *  cpu-time:     0 d,  0 h,  0 min,  0.061 sec
 * ratio c/w:     0.998 speedup
 numerical hessian:
 * wall-time:     0 d,  0 h,  0 min,  0.078 sec
 *  cpu-time:     0 d,  0 h,  0 min,  0.078 sec
 * ratio c/w:     0.998 speedup

