5
 energy: -10.074634915333 gnorm: 0.323814649097 xtb: 6.2.2 (9d81278992624c895f80dd42a50cac0aa55982e2)
C        -1.42204100000000   -0.86024900000000    0.13057800000000
C        -0.33377100000000   -0.00653800000000   -0.48640400000000
C         0.98113500000000   -0.30992000000000    0.20139100000000
C        -1.29307000000000    0.59628900000000    0.51945500000000
C         2.06774700000000    0.58041800000000   -0.36502100000000
5
 energy: -10.180250817360 gnorm: 0.200345738668 xtb: 6.2.2 (9d81278992624c895f80dd42a50cac0aa55982e2)
C        -1.40708259596478   -0.83557555881912    0.14402013018367
C        -0.28618341122677   -0.00630578287205   -0.36203954037995
C         1.03419769111695   -0.28621827437382    0.07225320243060
C        -1.34238871355186    0.59185288680435    0.46193262827861
C         2.00145702962646    0.53624672926065   -0.31616742051292
5
 energy: -10.203410805214 gnorm: 0.395451307142 xtb: 6.2.2 (9d81278992624c895f80dd42a50cac0aa55982e2)
C        -1.45265133199900   -0.80784486941308    0.13235583345657
C        -0.24471754497050   -0.02620559796352   -0.19878730666356
C         1.07673917906107   -0.17516485921463   -0.05524198113020
C        -1.34840658928405    0.54037868907861    0.40124329886145
C         1.96903628719247    0.46883663751262   -0.27957084452426
5
 energy: -10.246623830467 gnorm: 0.088943304611 xtb: 6.2.2 (9d81278992624c895f80dd42a50cac0aa55982e2)
C        -1.49090013664231   -0.81453599664406    0.20063640460803
C        -0.28595569525872   -0.05312800032440   -0.14165340938323
C         1.05653556671587   -0.20784328747206   -0.19137165481823
C        -1.38539382426036    0.54835419976371    0.35081975169232
C         2.10571408944551    0.52715308467680   -0.21843209209889
5
 energy: -10.259577719941 gnorm: 0.063466011437 xtb: 6.2.2 (9d81278992624c895f80dd42a50cac0aa55982e2)
C        -1.57039579107084   -0.83635716016579    0.13277803934055
C        -0.25388508759411   -0.03252413404080   -0.04083101501665
C         1.06626142192461   -0.09439033849656   -0.15103195478561
C        -1.44771267071770    0.49400341945141    0.36383813030436
C         2.20573212745803    0.46926821325175   -0.30475419984264
5
 energy: -10.271995778082 gnorm: 0.092907430689 xtb: 6.2.2 (9d81278992624c895f80dd42a50cac0aa55982e2)
C        -1.75751935813404   -0.83606508566204    0.09611893270816
C        -0.20573978218910   -0.08756320653626    0.08188410180445
C         1.05783969008440    0.04572097258062   -0.18974627167923
C        -1.37295645901657    0.41333946108076    0.33781164894590
C         2.27837590925532    0.46456785853692   -0.32606941177928
5
 energy: -10.281053711643 gnorm: 0.079363746630 xtb: 6.2.2 (9d81278992624c895f80dd42a50cac0aa55982e2)
C        -1.86704982136395   -0.81911171244471    0.05243300986944
C        -0.12612847904757   -0.06772097974290    0.20758672649251
C         1.09998859961639    0.08436376814572   -0.16822360910383
C        -1.40830180295955    0.34734785289532    0.30761834094029
C         2.30149150375469    0.45512107114657   -0.39941546819840
5
 energy: -10.288533281632 gnorm: 0.147622179347 xtb: 6.2.2 (9d81278992624c895f80dd42a50cac0aa55982e2)
C        -1.99530715152037   -0.80979633885362   -0.01450972540817
C        -0.05920286548964   -0.06010219845697    0.26309489572175
C         1.12235269435962    0.13914927972514   -0.06550884470484
C        -1.35498223805353    0.27689942986594    0.30778546111730
C         2.28713956070392    0.45384982771952   -0.49086278672604
5
 energy: -10.298770386322 gnorm: 0.132812902530 xtb: 6.2.2 (9d81278992624c895f80dd42a50cac0aa55982e2)
C        -2.18597835468020   -0.79558854579416   -0.03705792522522
C        -0.02734798088811   -0.04781171235552    0.31287087781348
C         1.20534523007762    0.20961457553628   -0.01330369626977
C        -1.29856059528380    0.17613024202813    0.27918388044562
C         2.30654170077450    0.45765544058528   -0.54169413676411
5
 energy: -10.305113959998 gnorm: 0.169794758455 xtb: 6.2.2 (9d81278992624c895f80dd42a50cac0aa55982e2)
C        -2.18162686951603   -0.81702333657375   -0.00545981863380
C        -0.07263297009346    0.13887135422115    0.27099608114694
C         1.22921909949764    0.30873466396017    0.07876831169395
C        -1.35351710466722    0.03348392308505    0.25468914715458
C         2.37855784477907    0.33593339530738   -0.59899472136166
5
 energy: -10.316112733792 gnorm: 0.125770973695 xtb: 6.2.2 (9d81278992624c895f80dd42a50cac0aa55982e2)
C        -2.24645402160969   -0.78929427211733    0.04050852491621
C        -0.00543670451471    0.15944413916880    0.28872151930202
C         1.25485933532791    0.23942980504142    0.05351358333982
C        -1.29013036039641    0.00283732715625    0.19343979117083
C         2.28716175119291    0.38758300075087   -0.57618441872887
5
 energy: -10.284866646096 gnorm: 0.245242593314 xtb: 6.2.2 (9d81278992624c895f80dd42a50cac0aa55982e2)
C        -2.45388527075622   -0.79033458949655   -0.05289885911100
C         0.07373934082769    0.14328706871206    0.39757222802681
C         1.28346158279309    0.35685081927284    0.14911601142304
C        -1.24696185951370   -0.09021893282422    0.19900792307728
C         2.34364620664915    0.38041563433588   -0.69279830341613
5
 energy: -10.319644128846 gnorm: 0.078580508796 xtb: 6.2.2 (9d81278992624c895f80dd42a50cac0aa55982e2)
C        -2.32173306999240   -0.79069046667800    0.00600490234928
C        -0.00710136747945    0.14773902615049    0.29474956310187
C         1.26457922486828    0.30792567888850    0.10345670152482
C        -1.26970294085631   -0.03957656122779    0.21283930494338
C         2.33395815345990    0.37460232286681   -0.61705147191935
5
 energy: -10.309826308893 gnorm: 0.209379156888 xtb: 6.2.2 (9d81278992624c895f80dd42a50cac0aa55982e2)
C        -2.31022987833349   -0.77528848973784    0.07568455920629
C         0.01068043839072    0.24873187661750    0.31009217688248
C         1.28425019551150    0.28801415638011    0.06513545714968
C        -1.29086653969304   -0.10794998854391    0.14311274457659
C         2.30616578412431    0.34649244528416   -0.59402593781504
5
 energy: -10.323214258982 gnorm: 0.016050314260 xtb: 6.2.2 (9d81278992624c895f80dd42a50cac0aa55982e2)
C        -2.32091840775894   -0.78168964914377    0.05108898166417
C        -0.00667747376198    0.19324331327798    0.27457013854285
C         1.26161023402325    0.31484734766420    0.08430934689302
C        -1.26214231576815   -0.08407538817424    0.18504109574158
C         2.32812796326584    0.35767437637585   -0.59501056284162
5
 energy: -10.323709973908 gnorm: 0.010816477434 xtb: 6.2.2 (9d81278992624c895f80dd42a50cac0aa55982e2)
C        -2.32741677747548   -0.78249172829374    0.06263372103763
C        -0.01127963152812    0.19621616395410    0.26623110546102
C         1.25634143866884    0.33258883510991    0.07261475972035
C        -1.26140800916705   -0.09609160184796    0.18427994690273
C         2.34376297950182    0.34977833107771   -0.58576053312172
5
 energy: -10.324575818585 gnorm: 0.043327240321 xtb: 6.2.2 (9d81278992624c895f80dd42a50cac0aa55982e2)
C        -2.37470688571867   -0.77613793270838    0.12751196066457
C        -0.02181985230279    0.21207656884467    0.22267071135656
C         1.23986690527239    0.40463175898617    0.01624583588176
C        -1.24456579094605   -0.16387163961176    0.17120076997392
C         2.40122562369514    0.32330124448931   -0.53763027787681
5
 energy: -10.325179732519 gnorm: 0.021769448488 xtb: 6.2.2 (9d81278992624c895f80dd42a50cac0aa55982e2)
C        -2.36524689861699   -0.77044685489120    0.13040514560860
C        -0.02151753520783    0.21237267177364    0.21303225825134
C         1.24161128600005    0.38961232470151    0.02107414145827
C        -1.24400567155729   -0.16056920368507    0.17169728835647
C         2.38915881938206    0.32903106210114   -0.53620983367469
5
 energy: -10.325745928027 gnorm: 0.009549168521 xtb: 6.2.2 (9d81278992624c895f80dd42a50cac0aa55982e2)
C        -2.37713064319764   -0.75944719378157    0.16418547548954
C        -0.02288251864162    0.21767051815411    0.18347608278496
C         1.23820918967649    0.40107424087154   -0.00188805306843
C        -1.24015852116487   -0.18573445132346    0.16642852656337
C         2.40196249332764    0.32643688607939   -0.51220303176944
5
 energy: -10.326473834635 gnorm: 0.015126624312 xtb: 6.2.2 (9d81278992624c895f80dd42a50cac0aa55982e2)
C        -2.40405753796446   -0.73629189847876    0.23350882542054
C        -0.02805646323741    0.21138400782378    0.12110883846517
C         1.22716405562257    0.42851929035963   -0.06069156847821
C        -1.23310634626853   -0.22956528717121    0.16181191127329
C         2.43805629184784    0.32595388746658   -0.45573900668079
5
 energy: -10.327075731664 gnorm: 0.013748368826 xtb: 6.2.2 (9d81278992624c895f80dd42a50cac0aa55982e2)
C        -2.41678382902876   -0.71358465386049    0.28084085174304
C        -0.02983177099008    0.18696719792815    0.07354757350347
C         1.22136268909062    0.43044259614999   -0.10909624949012
C        -1.23618593078993   -0.24360610657967    0.16589991452950
C         2.46143884171814    0.33978096636202   -0.41119309028589
5
 energy: -10.327251349428 gnorm: 0.005937471477 xtb: 6.2.2 (9d81278992624c895f80dd42a50cac0aa55982e2)
C        -2.41737073730129   -0.71447571508526    0.28141260519433
C        -0.03050496276388    0.18556440981126    0.05487207360554
C         1.22680875686332    0.41759971055422   -0.09914812292065
C        -1.23908183521329   -0.23796372998188    0.17459701092808
C         2.46014877841514    0.34927532470167   -0.41173456680729
5
 energy: -10.327381828144 gnorm: 0.035436226684 xtb: 6.2.2 (9d81278992624c895f80dd42a50cac0aa55982e2)
C        -2.44314886020433   -0.67102615670841    0.27912979229351
C        -0.00800255978441    0.11566786828692    0.06811372259145
C         1.22663218504919    0.39997201742588   -0.16221127793072
C        -1.24324570785370   -0.24934779250824    0.19237557072251
C         2.46776494279326    0.40473406350387   -0.37740880767675
5
 energy: -10.328128906124 gnorm: 0.014677996593 xtb: 6.2.2 (9d81278992624c895f80dd42a50cac0aa55982e2)
C        -2.45487706239020   -0.64407473860666    0.30689593459644
C        -0.00938793036000    0.09120177385229    0.04350368273380
C         1.23143638188230    0.37556894810033   -0.14106611493532
C        -1.24434545077275   -0.26392596538949    0.16738937197583
C         2.47717406164066    0.44122998204356   -0.37672387437075
5
 energy: -10.328259980636 gnorm: 0.027449462834 xtb: 6.2.2 (9d81278992624c895f80dd42a50cac0aa55982e2)
C        -2.47667626942295   -0.59302738245042    0.33598429853259
C        -0.00607888666314    0.02871503445079    0.00515225502930
C         1.23754047464166    0.32437605483787   -0.13889557512810
C        -1.24849552599029   -0.27888077688126    0.15791987384033
C         2.49371020743473    0.51881707004306   -0.36016185227411
5
 energy: -10.328457687536 gnorm: 0.008459168253 xtb: 6.2.2 (9d81278992624c895f80dd42a50cac0aa55982e2)
C        -2.45757478515198   -0.62382315543138    0.31148686245104
C        -0.01144581122466    0.06271518389562    0.01982776515190
C         1.23178337852244    0.34418869488810   -0.14321240569994
C        -1.24514906546208   -0.26191561070561    0.17887580016911
C         2.48238628331629    0.47883488735329   -0.36697902207211
5
 energy: -10.328535337274 gnorm: 0.004954149629 xtb: 6.2.2 (9d81278992624c895f80dd42a50cac0aa55982e2)
C        -2.46534873547565   -0.60890416774544    0.32298381774876
C        -0.00707377024983    0.04858373119357    0.01971992412665
C         1.23401231379862    0.33929592583453   -0.14471503491942
C        -1.24362098051254   -0.27228355907887    0.16474582610440
C         2.48203117243940    0.49330806979625   -0.36273553306039
5
 energy: -10.328603705042 gnorm: 0.008906327377 xtb: 6.2.2 (9d81278992624c895f80dd42a50cac0aa55982e2)
C        -2.47181802360303   -0.59221113240545    0.32902105898493
C        -0.00401281731164    0.02757415048789    0.01170687616586
C         1.23618762874926    0.32335067592486   -0.15141490489785
C        -1.24436074595454   -0.27669017857796    0.16517393041799
C         2.48400395811996    0.51797648457071   -0.35448796067093
5
 energy: -10.328662826358 gnorm: 0.007876520488 xtb: 6.2.2 (9d81278992624c895f80dd42a50cac0aa55982e2)
C        -2.47397287807232   -0.58011649555296    0.33252705813365
C        -0.00244074507477    0.01335238864852    0.00453109116173
C         1.23828200143557    0.30882105919145   -0.15627818581105
C        -1.24414030973547   -0.27875721851347    0.16700588644245
C         2.48227193144699    0.53670026622650   -0.34778684992678
5
 energy: -10.328715248562 gnorm: 0.002379694648 xtb: 6.2.2 (9d81278992624c895f80dd42a50cac0aa55982e2)
C        -2.47431435421425   -0.56961100172055    0.33516953983583
C        -0.00092273635581    0.00272131570626   -0.00020555746103
C         1.24065027928858    0.29545124012079   -0.16171580131381
C        -1.24323553687451   -0.28092030184661    0.16806483701291
C         2.47782234815599    0.55235874774016   -0.34131401807389
5
 energy: -10.328728032431 gnorm: 0.001520177134 xtb: 6.2.2 (9d81278992624c895f80dd42a50cac0aa55982e2)
C        -2.47629788143430   -0.55986546845711    0.33894597388857
C         0.00102224256801   -0.00671233891249   -0.00270910781260
C         1.24238834089598    0.28567992472210   -0.16621308635120
C        -1.24262072845237   -0.28457480560009    0.16615596413533
C         2.47550802642268    0.56547268824764   -0.33618074386009
5
 energy: -10.328730648490 gnorm: 0.002316472459 xtb: 6.2.2 (9d81278992624c895f80dd42a50cac0aa55982e2)
C        -2.47576780078325   -0.55824159640683    0.33852586411441
C         0.00135268136337   -0.00713326910335   -0.00256594543805
C         1.24306242213325    0.28170242518804   -0.16889579959617
C        -1.24240844662677   -0.28491798877680    0.16728272704161
C         2.47376114391340    0.56859042909898   -0.33434784612179
5
 energy: -10.328732212002 gnorm: 0.001120917863 xtb: 6.2.2 (9d81278992624c895f80dd42a50cac0aa55982e2)
C        -2.47618471048807   -0.55750570153709    0.33910065566012
C         0.00136146801669   -0.00756026648345   -0.00283914265624
C         1.24319627709509    0.28081060385160   -0.16886726444493
C        -1.24237583908863   -0.28541860608527    0.16675975969024
C         2.47400280446492    0.56967397025425   -0.33415500824920
5
 energy: -10.328733898943 gnorm: 0.000644924125 xtb: 6.2.2 (9d81278992624c895f80dd42a50cac0aa55982e2)
C        -2.47627186009086   -0.56016835156041    0.33826129291458
C         0.00064479348985   -0.00395353370247   -0.00163473644259
C         1.24287361028115    0.28261991479367   -0.16798599753464
C        -1.24250589775664   -0.28500968687713    0.16691702357351
C         2.47525935407651    0.56651165734639   -0.33555858251086
