      -----------------------------------------------------------      
     |                   =====================                   |     
     |                           x T B                           |     
     |                   =====================                   |     
     |                         S. Grimme                         |     
     |          Mulliken Center for Theoretical Chemistry        |     
     |                    University of Bonn                     |     
      -----------------------------------------------------------      

   * xtb version 6.2.2 (9d81278992624c895f80dd42a50cac0aa55982e2) compiled by '@Darwin' on 04/03/2020

   xtb is free software: you can redistribute it and/or modify it under
   the terms of the GNU Lesser General Public License as published by
   the Free Software Foundation, either version 3 of the License, or
   (at your option) any later version.
   
   xtb is distributed in the hope that it will be useful,
   but WITHOUT ANY WARRANTY; without even the implied warranty of
   MERCHANTABILITY or FITNESS FOR A PARTICULAR PURPOSE.  See the
   GNU Lesser General Public License for more details.
   
   Cite this work as:
   * S. Grimme, C. Bannwarth, P. Shushkov, J. Chem. Theory Comput., 2017,
     13, 1989-2009. DOI: 10.1021/acs.jctc.7b00118
   * C. Bannwarth, S. Ehlert and S. Grimme., J. Chem. Theory Comput., 2019,
     15, 1652-1671. DOI: 10.1021/acs.jctc.8b01176
   * P. Pracht, E. Caldeweyher, S. Ehlert, S. Grimme, ChemRxiv, 2019, preprint.
     DOI: 10.26434/chemrxiv.8326202.v1
   
   for DFT-D4:
   * E. Caldeweyher, C. Bannwarth and S. Grimme, J. Chem. Phys., 2017,
     147, 034112. DOI: 10.1063/1.4993215
   * E. Caldeweyher, S. Ehlert, A. Hansen, H. Neugebauer, S. Spicher,
     C. Bannwarth and S. Grimme, J. Chem. Phys., 2019, 150, 154122.
     DOI: 10.1063/1.5090222
   
   for sTDA-xTB:
   * S. Grimme and C. Bannwarth, J. Chem. Phys., 2016, 145, 054103.
     DOI: 10.1063/1.4959605
   
   in the mass-spec context:
   * V. Asgeirsson, C. Bauer and S. Grimme, Chem. Sci., 2017, 8, 4879.
     DOI: 10.1039/c7sc00601b
   
   for metadynamics refer to:
   * S. Grimme, J. Chem. Theory Comput., 2019, 155, 2847-2862
     DOI: 10.1021/acs.jctc.9b00143
   
   with help from (in alphabetical order)
   C. Bannwarth, F. Bohle, G. Brandenburg, E. Caldeweyher, M. Checinski,
   S. Dohm, S. Ehlert, S. Ehrlich, F. März, H. Neugebauer, J. Pisarek,
   P. Pracht, P. Shushkov, and S. Spicher.
   
 * started run on 2020/05/12 at 11:44:33.649     

           -------------------------------------------------
          |                Calculation Setup                |
           -------------------------------------------------

          program call               : xtb --input C5_6_S_0.input C5_6_S_0.xyz --ohess --molden --namespace C5_6_S_0 output.out
          calculation namespace      : C5_6_S_0
          coordinate file            : C5_6_S_0.xyz
          number of atoms            :                     5
          number of electrons        :                    20
          charge                     :                     0
          spin                       :                   0.0
          first test random number   :      0.11954321650264

   ID    Z sym.   atoms
    1    6 C      1-5

           -------------------------------------------------
          |                 G F N 2 - x T B                 |
           -------------------------------------------------

        Reference                      10.1021/acs.jctc.8b01176
      * Hamiltonian:
        H0-scaling (s, p, d)           1.850000    2.230000    2.230000
        zeta-weighting                 0.500000
      * Dispersion:
        s8                             2.700000
        a1                             0.520000
        a2                             5.000000
        s9                             5.000000
      * Repulsion:
        kExp                           1.500000    1.000000
        rExp                           1.000000
      * Coulomb:
        alpha                          2.000000
        third order                    shell-resolved
        anisotropic                    true
        a3                             3.000000
        a5                             4.000000
        cn-shift                       1.200000
        cn-exp                         4.000000
        max-rad                        5.000000


          ...................................................
          :                      SETUP                      :
          :.................................................:
          :  # basis functions                  20          :
          :  # atomic orbitals                  20          :
          :  # shells                           10          :
          :  # electrons                        20          :
          :  max. iterations                   250          :
          :  Hamiltonian                  GFN2-xTB          :
          :  restarted?                      false          :
          :  GBSA solvation                  false          :
          :  PC potential                    false          :
          :  electronic temp.          300.0000000     K    :
          :  accuracy                    1.0000000          :
          :  -> integral cutoff          0.2500000E+02      :
          :  -> integral neglect         0.1000000E-07      :
          :  -> SCF convergence          0.1000000E-05 Eh   :
          :  -> wf. convergence          0.1000000E-03 e    :
          :  Broyden damping             0.4000000          :
          ...................................................

 iter      E             dE          RMSdq      gap      omega  full diag
   1     -9.9795847 -0.997958E+01  0.119E+01    0.30       0.0  T
   2     -6.5808053  0.339878E+01  0.169E+01    0.75       1.0  T
   3     -6.7101314 -0.129326E+00  0.155E+01    0.40       1.0  T
   4     -9.9283105 -0.321818E+01  0.831E+00    0.43       1.0  T
   5    -10.0111657 -0.828552E-01  0.628E+00    0.27       1.0  T
   6    -10.0836698 -0.725041E-01  0.436E+00    0.27       1.0  T
   7    -10.1228987 -0.392289E-01  0.351E+00    0.29       1.0  T
   8    -10.1264421 -0.354340E-02  0.337E+00    0.29       1.0  T
   9    -10.1255545  0.887541E-03  0.345E+00    0.29       1.0  T
  10    -10.1318963 -0.634175E-02  0.285E+00    0.28       1.0  T
  11    -10.1477120 -0.158157E-01  0.100E+00    0.23       1.0  T
  12    -10.1485535 -0.841452E-03  0.940E-01    0.21       1.0  T
  13    -10.1488229 -0.269456E-03  0.374E-01    0.18       1.0  T
  14    -10.1486505  0.172433E-03  0.369E-01    0.18       1.0  T
  15    -10.1491010 -0.450481E-03  0.134E-01    0.19       1.0  T
  16    -10.1491508 -0.497982E-04  0.271E-02    0.20       1.7  T
  17    -10.1491500  0.710000E-06  0.169E-02    0.20       2.6  T
  18    -10.1491510 -0.913831E-06  0.675E-03    0.20       6.6  T
  19    -10.1491510 -0.602202E-07  0.423E-03    0.20      10.6  T
  20    -10.1491511 -0.441032E-07  0.802E-04    0.20      55.7  T
  21    -10.1491511 -0.913175E-09  0.548E-04    0.20      81.6  T

   *** convergence criteria satisfied after 21 iterations ***

         #    Occupation            Energy/Eh            Energy/eV
      -------------------------------------------------------------
         1        2.0000           -0.7244345             -19.7129
       ...           ...                  ...                  ...
         4        2.0000           -0.5923453             -16.1185
         5        2.0000           -0.5614474             -15.2778
         6        2.0000           -0.5163993             -14.0519
         7        2.0000           -0.5056056             -13.7582
         8        2.0000           -0.4876455             -13.2695
         9        1.9983           -0.4420092             -12.0277
        10        1.9571           -0.4389202             -11.9436 (HOMO)
        11        0.0446           -0.4316972             -11.7471 (LUMO)
        12                         -0.4041856             -10.9985
        13                         -0.3615511              -9.8383
        14                         -0.3341954              -9.0939
        15                         -0.3163707              -8.6089
       ...                                ...                  ...
        20                          0.1382172               3.7611
      -------------------------------------------------------------
                  HL-Gap            0.0072229 Eh            0.1965 eV
             Fermi-level           -0.4352899 Eh          -11.8448 eV

 SCC (total)                   0 d,  0 h,  0 min,  0.005 sec
 SCC setup                      ...        0 min,  0.000 sec (  1.639%)
 Dispersion                     ...        0 min,  0.000 sec (  0.369%)
 integral evaluation            ...        0 min,  0.001 sec ( 25.073%)
 zeroth order Hamiltonian       ...        0 min,  0.000 sec (  0.501%)
 iterations                     ...        0 min,  0.002 sec ( 45.359%)
 molecular gradient             ...        0 min,  0.001 sec ( 25.270%)
 printout                       ...        0 min,  0.000 sec (  1.604%)

         :::::::::::::::::::::::::::::::::::::::::::::::::::::
         ::                     SUMMARY                     ::
         :::::::::::::::::::::::::::::::::::::::::::::::::::::
         :: total energy             -10.074634914366 Eh    ::
         :: gradient norm              0.323814971878 Eh/a0 ::
         :: HOMO-LUMO gap              0.196545582455 eV    ::
         ::.................................................::
         :: SCC energy               -10.149151068591 Eh    ::
         :: -> isotropic ES           -0.024806103811 Eh    ::
         :: -> anisotropic ES         -0.000156702700 Eh    ::
         :: -> anisotropic XC          0.008853966636 Eh    ::
         :: -> dispersion             -0.002959347937 Eh    ::
         :: repulsion energy           0.074516143341 Eh    ::
         :: add. restraining           0.000000000000 Eh    ::
         :::::::::::::::::::::::::::::::::::::::::::::::::::::

      ----------------------------------------------------------- 
     |                   =====================                   |
     |                        A N C O P T                        |
     |                   =====================                   |
     |               Approximate Normal Coordinate               |
     |                Rational Function Optimizer                |
      ----------------------------------------------------------- 

          ...................................................
          :                      SETUP                      :
          :.................................................:
          :   optimization level            normal          :
          :   max. optcycles                   200          :
          :   ANC micro-cycles                  20          :
          :   degrees of freedom                 9          :
          :.................................................:
          :   RF solver                   davidson          :
          :   write xtbopt.log                true          :
          :   linear?                        false          :
          :   energy convergence         0.5000000E-05 Eh   :
          :   grad. convergence          0.1000000E-02 Eh/α :
          :   maximium RF displ.         1.0000000          :
          :   Hlow (freq-cutoff)         0.1000000E-01      :
          :   Hmax (freq-cutoff)         5.0000000          :
          :   S6 in model hess.         20.0000000          :
          ...................................................

generating ANC from model Hessian ...
Using Lindh-Hessian (1995)
 Shifting diagonal of input Hessian by    1.7807401863633721E-003
 Lowest  eigenvalues of input Hessian
   -0.000000   -0.000000   -0.000000    0.000000    0.000000    0.000000
    0.010000    0.038206    0.068376    0.085375    0.639688    0.698103
    0.765230    0.948235    1.284997
 Highest eigenvalues
    0.085375    0.639688    0.698103    0.765230    0.948235    1.284997


........................................................................
.............................. CYCLE    1 ..............................
........................................................................
   1    -10.1491511 -0.101492E+02  0.165E-04    0.20       0.0  T
   2    -10.1491511  0.223404E-08  0.516E-04    0.20      86.6  T
   3    -10.1491511 -0.199194E-08  0.196E-04    0.20     228.6  T
     SCC iter.                  ...        0 min,  0.001 sec
     gradient                   ...        0 min,  0.001 sec
 * total energy  :   -10.0746349 Eh     change       -0.9675887E-09 Eh
   gradient norm :     0.3238146 Eh/α   predicted     0.0000000E+00 (-100.00%)
   displ. norm   :     0.4362417 α      lambda       -0.1266079E+00
   maximum displ.:     0.2907891 α      in ANC's #7, #5, #4, ...

........................................................................
.............................. CYCLE    2 ..............................
........................................................................
   1    -10.3048618 -0.103049E+02  0.308E+00    0.23       0.0  T
   2    -10.1251661  0.179696E+00  0.414E+00    0.72       1.0  T
   3     -9.6965507  0.428615E+00  0.924E+00    0.27       1.0  T
   4     -9.9494124 -0.252862E+00  0.718E+00    0.13       1.0  T
   5     -9.9291300  0.202823E-01  0.698E+00    0.07       1.0  T
   6    -10.2209637 -0.291834E+00  0.336E+00    0.24       1.0  T
   7    -10.2997180 -0.787543E-01  0.212E+00    0.42       1.0  T
   8    -10.3037903 -0.407225E-02  0.188E+00    0.38       1.0  T
   9    -10.3033925  0.397785E-03  0.182E+00    0.40       1.0  T
  10    -10.3141472 -0.107548E-01  0.108E+00    0.32       1.0  T
  11    -10.3165742 -0.242696E-02  0.801E-01    0.29       1.0  T
  12    -10.3174854 -0.911147E-03  0.473E-01    0.27       1.0  T
  13    -10.3177074 -0.222010E-03  0.397E-01    0.25       1.0  T
  14    -10.3178348 -0.127431E-03  0.278E-01    0.25       1.0  T
  15    -10.3178820 -0.472042E-04  0.180E-01    0.26       1.0  T
  16    -10.3178970 -0.149627E-04  0.152E-01    0.25       1.0  T
  17    -10.3179293 -0.323207E-04  0.114E-01    0.25       1.0  T
  18    -10.3179365 -0.722098E-05  0.773E-02    0.25       1.0  T
  19    -10.3179434 -0.687647E-05  0.900E-03    0.25       5.0  T
  20    -10.3179434 -0.561023E-07  0.478E-03    0.25       9.4  T
  21    -10.3179435 -0.337023E-07  0.209E-04    0.25     213.8  T
  22    -10.3179435  0.243361E-10  0.185E-04    0.25     242.1  T
     SCC iter.                  ...        0 min,  0.002 sec
     gradient                   ...        0 min,  0.001 sec
 * total energy  :   -10.1802508 Eh     change       -0.1056159E+00 Eh
   gradient norm :     0.2002972 Eh/α   predicted    -0.7535114E-01 ( -28.66%)
   displ. norm   :     0.5190712 α      lambda       -0.9848063E-01
   maximum displ.:     0.3575912 α      in ANC's #7, #5, #4, ...

........................................................................
.............................. CYCLE    3 ..............................
........................................................................
   1    -10.3311989 -0.103312E+02  0.650E+00    0.39       0.0  T
   2     -8.9320217  0.139918E+01  0.120E+01    1.45       1.0  T
   3    -10.4615049 -0.152948E+01  0.316E+00    0.31       1.0  T
   4    -10.4824881 -0.209832E-01  0.236E+00    0.36       1.0  T
   5    -10.5123116 -0.298235E-01  0.155E+00    0.38       1.0  T
   6    -10.5199783 -0.766665E-02  0.650E-01    0.37       1.0  T
   7    -10.5072645  0.127137E-01  0.142E+00    0.31       1.0  T
   8    -10.5201013 -0.128368E-01  0.202E-01    0.36       1.0  T
   9    -10.5203180 -0.216660E-03  0.913E-02    0.36       1.0  T
  10    -10.5203604 -0.424422E-04  0.239E-02    0.36       1.9  T
  11    -10.5203440  0.164668E-04  0.516E-02    0.36       1.0  T
  12    -10.5203617 -0.177235E-04  0.702E-03    0.36       6.4  T
  13    -10.5203617  0.123862E-07  0.698E-03    0.36       6.4  T
  14    -10.5203620 -0.284110E-06  0.688E-04    0.36      65.0  T
  15    -10.5203620  0.112203E-07  0.151E-03    0.36      29.6  T
  16    -10.5203620 -0.141592E-07  0.148E-04    0.36     302.0  T
     SCC iter.                  ...        0 min,  0.002 sec
     gradient                   ...        0 min,  0.001 sec
 * total energy  :   -10.2034108 Eh     change       -0.2315999E-01 Eh
   gradient norm :     0.3938609 Eh/α   predicted    -0.6250736E-01 ( 169.89%)
   displ. norm   :     0.4692490 α      lambda       -0.9602875E-01
   maximum displ.:     0.2668960 α      in ANC's #2, #4, #1, ...

........................................................................
.............................. CYCLE    4 ..............................
........................................................................
   1    -10.4258952 -0.104259E+02  0.288E+00    0.44       0.0  T
   2     -9.8519391  0.573956E+00  0.796E+00    1.13       1.0  T
   3    -10.4207120 -0.568773E+00  0.219E+00    0.40       1.0  T
   4    -10.4486719 -0.279599E-01  0.151E+00    0.50       1.0  T
   5    -10.4576119 -0.894001E-02  0.627E-01    0.46       1.0  T
   6    -10.4581288 -0.516945E-03  0.438E-01    0.49       1.0  T
   7    -10.4586006 -0.471781E-03  0.165E-01    0.48       1.0  T
   8    -10.4586177 -0.171415E-04  0.844E-02    0.47       1.0  T
   9    -10.4586627 -0.449167E-04  0.214E-02    0.47       2.1  T
  10    -10.4586645 -0.185449E-05  0.133E-02    0.47       3.4  T
  11    -10.4586648 -0.301321E-06  0.136E-02    0.47       3.3  T
  12    -10.4586655 -0.727088E-06  0.228E-03    0.47      19.6  T
  13    -10.4586656 -0.249035E-07  0.137E-04    0.47     325.7  T
  14    -10.4586656  0.747665E-09  0.438E-04    0.47     102.0  T
     SCC iter.                  ...        0 min,  0.001 sec
     gradient                   ...        0 min,  0.001 sec
 * total energy  :   -10.2466238 Eh     change       -0.4321303E-01 Eh
   gradient norm :     0.0881370 Eh/α   predicted    -0.5858688E-01 (  35.58%)
   displ. norm   :     0.4833601 α      lambda       -0.1724867E-01
   maximum displ.:     0.3941726 α      in ANC's #1, #4, #3, ...

........................................................................
.............................. CYCLE    5 ..............................
........................................................................
   1    -10.4367235 -0.104367E+02  0.307E+00    0.66       0.0  T
   2     -9.6796845  0.757039E+00  0.843E+00    0.78       1.0  T
   3    -10.3624871 -0.682803E+00  0.354E+00    0.72       1.0  T
   4    -10.4564975 -0.940104E-01  0.188E+00    0.67       1.0  T
   5    -10.4670067 -0.105092E-01  0.111E+00    0.66       1.0  T
   6    -10.4674625 -0.455803E-03  0.104E+00    0.67       1.0  T
   7    -10.4688185 -0.135597E-02  0.667E-01    0.65       1.0  T
   8    -10.4702949 -0.147636E-02  0.121E-01    0.67       1.0  T
   9    -10.4703854 -0.905684E-04  0.134E-01    0.67       1.0  T
  10    -10.4703599  0.255689E-04  0.133E-01    0.67       1.0  T
  11    -10.4703946 -0.347342E-04  0.315E-02    0.67       1.4  T
  12    -10.4703963 -0.170747E-05  0.566E-03    0.67       7.9  T
  13    -10.4703963 -0.872856E-08  0.199E-03    0.67      22.5  T
  14    -10.4703963 -0.144475E-07  0.561E-04    0.67      79.7  T
  15    -10.4703963 -0.509523E-09  0.197E-04    0.67     226.7  T
     SCC iter.                  ...        0 min,  0.001 sec
     gradient                   ...        0 min,  0.001 sec
 * total energy  :   -10.2595777 Eh     change       -0.1295389E-01 Eh
   gradient norm :     0.0632655 Eh/α   predicted    -0.1063930E-01 ( -17.87%)
   displ. norm   :     0.5870101 α      lambda       -0.2393134E-01
   maximum displ.:     0.3517701 α      in ANC's #3, #2, #4, ...

........................................................................
.............................. CYCLE    6 ..............................
........................................................................
   1    -10.4860514 -0.104861E+02  0.299E+00    1.63       0.0  T
   2    -10.3074576  0.178594E+00  0.463E+00    0.83       1.0  T
   3    -10.4841346 -0.176677E+00  0.195E+00    1.72       1.0  T
   4    -10.4776615  0.647311E-02  0.207E+00    1.45       1.0  T
   5    -10.5062528 -0.285913E-01  0.388E-01    1.59       1.0  T
   6    -10.5069094 -0.656586E-03  0.235E-01    1.58       1.0  T
   7    -10.5071600 -0.250669E-03  0.110E-01    1.58       1.0  T
   8    -10.5072007 -0.406536E-04  0.425E-02    1.56       1.1  T
   9    -10.5072114 -0.106555E-04  0.745E-03    1.57       6.0  T
  10    -10.5072115 -0.110842E-06  0.437E-03    1.57      10.2  T
  11    -10.5072116 -0.110710E-06  0.499E-04    1.57      89.6  T
  12    -10.5072116 -0.567438E-09  0.119E-04    1.57     376.4  T
     SCC iter.                  ...        0 min,  0.001 sec
     gradient                   ...        0 min,  0.001 sec
 * total energy  :   -10.2719958 Eh     change       -0.1241806E-01 Eh
   gradient norm :     0.0923287 Eh/α   predicted    -0.1608880E-01 (  29.56%)
   displ. norm   :     0.4349560 α      lambda       -0.1615677E-01
   maximum displ.:     0.2583606 α      in ANC's #4, #1, #2, ...

........................................................................
.............................. CYCLE    7 ..............................
........................................................................
   1    -10.5196035 -0.105196E+02  0.216E+00    1.56       0.0  T
   2    -10.4889832  0.306203E-01  0.206E+00    1.52       1.0  T
   3    -10.4829281  0.605512E-02  0.227E+00    1.46       1.0  T
   4    -10.5211841 -0.382560E-01  0.729E-01    1.56       1.0  T
   5    -10.5241693 -0.298524E-02  0.274E-01    1.56       1.0  T
   6    -10.5247144 -0.545055E-03  0.782E-02    1.56       1.0  T
   7    -10.5247262 -0.117773E-04  0.564E-02    1.56       1.0  T
   8    -10.5247245  0.164717E-05  0.426E-02    1.56       1.0  T
   9    -10.5247307 -0.623934E-05  0.193E-03    1.56      23.2  T
  10    -10.5247307  0.316430E-08  0.171E-03    1.56      26.1  T
  11    -10.5247308 -0.904567E-08  0.151E-04    1.56     297.0  T
  12    -10.5247308 -0.418581E-10  0.297E-05    1.56    1505.2  T
     SCC iter.                  ...        0 min,  0.001 sec
     gradient                   ...        0 min,  0.001 sec
 * total energy  :   -10.2810537 Eh     change       -0.9057934E-02 Eh
   gradient norm :     0.0744031 Eh/α   predicted    -0.9606703E-02 (   6.06%)
   displ. norm   :     0.4592633 α      lambda       -0.1249270E-01
   maximum displ.:     0.3601463 α      in ANC's #2, #1, #6, ...

........................................................................
.............................. CYCLE    8 ..............................
........................................................................
   1    -10.5376660 -0.105377E+02  0.218E+00    1.57       0.0  T
   2    -10.4686168  0.690492E-01  0.287E+00    1.42       1.0  T
   3    -10.5133065 -0.446897E-01  0.207E+00    1.54       1.0  T
   4    -10.5356169 -0.223104E-01  0.139E+00    1.54       1.0  T
   5    -10.5466697 -0.110528E-01  0.369E-01    1.56       1.0  T
   6    -10.5478861 -0.121643E-02  0.122E-01    1.54       1.0  T
   7    -10.5479705 -0.844187E-04  0.656E-02    1.54       1.0  T
   8    -10.5479676  0.296962E-05  0.460E-02    1.54       1.0  T
   9    -10.5479754 -0.778970E-05  0.444E-03    1.54      10.1  T
  10    -10.5479754 -0.677806E-07  0.105E-03    1.54      42.6  T
  11    -10.5479754 -0.334766E-08  0.135E-04    1.54     330.6  T
  12    -10.5479754 -0.415152E-10  0.397E-05    1.54    1126.0  T
     SCC iter.                  ...        0 min,  0.001 sec
     gradient                   ...        0 min,  0.001 sec
 * total energy  :   -10.2885333 Eh     change       -0.7479570E-02 Eh
   gradient norm :     0.1401015 Eh/α   predicted    -0.7563856E-02 (   1.13%)
   displ. norm   :     0.5085377 α      lambda       -0.2305682E-01
   maximum displ.:     0.2873029 α      in ANC's #2, #6, #3, ...

........................................................................
.............................. CYCLE    9 ..............................
........................................................................
   1    -10.5367518 -0.105368E+02  0.213E+00    1.51       0.0  T
   2    -10.3603338  0.176418E+00  0.436E+00    0.95       1.0  T
   3    -10.5260601 -0.165726E+00  0.169E+00    1.59       1.0  T
   4    -10.5375227 -0.114626E-01  0.111E+00    1.29       1.0  T
   5    -10.5470649 -0.954222E-02  0.279E-01    1.42       1.0  T
   6    -10.5473285 -0.263589E-03  0.166E-01    1.41       1.0  T
   7    -10.5475118 -0.183320E-03  0.948E-02    1.40       1.0  T
   8    -10.5475174 -0.559467E-05  0.498E-02    1.39       1.0  T
   9    -10.5475346 -0.172060E-04  0.528E-03    1.40       8.5  T
  10    -10.5475347 -0.110757E-06  0.264E-03    1.40      16.9  T
  11    -10.5475347 -0.416442E-07  0.358E-04    1.40     125.0  T
  12    -10.5475347 -0.782400E-09  0.182E-05    1.40    2455.9  T
     SCC iter.                  ...        0 min,  0.001 sec
     gradient                   ...        0 min,  0.001 sec
 * total energy  :   -10.2987704 Eh     change       -0.1023710E-01 Eh
   gradient norm :     0.1316851 Eh/α   predicted    -0.1450979E-01 (  41.74%)
   displ. norm   :     0.6159978 α      lambda       -0.3953400E-01
   maximum displ.:     0.4472381 α      in ANC's #1, #6, #5, ...

........................................................................
.............................. CYCLE   10 ..............................
........................................................................
   1    -10.5061632 -0.105062E+02  0.342E+00    1.53       0.0  T
   2     -9.5714366  0.934727E+00  0.977E+00    0.75       1.0  T
   3    -10.5500579 -0.978621E+00  0.224E+00    1.63       1.0  T
   4    -10.5257583  0.242996E-01  0.224E+00    1.53       1.0  T
   5    -10.5675946 -0.418362E-01  0.824E-01    1.49       1.0  T
   6    -10.5697531 -0.215858E-02  0.598E-01    1.47       1.0  T
   7    -10.5698105 -0.573172E-04  0.561E-01    1.47       1.0  T
   8    -10.5703271 -0.516682E-03  0.156E-01    1.44       1.0  T
   9    -10.5704576 -0.130498E-03  0.208E-02    1.45       2.2  T
  10    -10.5704594 -0.175857E-05  0.262E-02    1.45       1.7  T
  11    -10.5704606 -0.118810E-05  0.266E-03    1.45      16.8  T
  12    -10.5704606 -0.274988E-07  0.666E-04    1.45      67.1  T
  13    -10.5704606 -0.693248E-09  0.929E-05    1.45     481.3  T
     SCC iter.                  ...        0 min,  0.001 sec
     gradient                   ...        0 min,  0.001 sec
 * total energy  :   -10.3051140 Eh     change       -0.6343574E-02 Eh
   gradient norm :     0.1622289 Eh/α   predicted    -0.2726762E-01 ( 329.85%)
   displ. norm   :     0.3716833 α      lambda       -0.3302817E-01
   maximum displ.:     0.2282130 α      in ANC's #1, #6, #2, ...

........................................................................
.............................. CYCLE   11 ..............................
........................................................................
   1    -10.6156907 -0.106157E+02  0.171E+00    1.60       0.0  T
   2    -10.5457891  0.699016E-01  0.285E+00    1.29       1.0  T
   3    -10.6074618 -0.616727E-01  0.139E+00    1.54       1.0  T
   4    -10.6130322 -0.557044E-02  0.115E+00    1.59       1.0  T
   5    -10.6226778 -0.964553E-02  0.325E-01    1.53       1.0  T
   6    -10.6231843 -0.506503E-03  0.130E-01    1.55       1.0  T
   7    -10.6232711 -0.867954E-04  0.727E-02    1.55       1.0  T
   8    -10.6232888 -0.177813E-04  0.148E-02    1.54       3.0  T
   9    -10.6232901 -0.129149E-05  0.363E-03    1.54      12.3  T
  10    -10.6232901 -0.242586E-08  0.206E-03    1.54      21.7  T
  11    -10.6232902 -0.326570E-07  0.177E-04    1.54     253.3  T
  12    -10.6232902 -0.691287E-10  0.384E-05    1.54    1165.2  T
     SCC iter.                  ...        0 min,  0.001 sec
     gradient                   ...        0 min,  0.001 sec
 * total energy  :   -10.3161127 Eh     change       -0.1099877E-01 Eh
   gradient norm :     0.1221735 Eh/α   predicted    -0.1879548E-01 (  70.89%)
   displ. norm   :     0.6580816 α      lambda       -0.2838558E-01
   maximum displ.:     0.4151594 α      in ANC's #2, #1, #3, ...

........................................................................
.............................. CYCLE   12 ..............................
........................................................................
   1    -10.4448365 -0.104448E+02  0.301E+00    1.74       0.0  T
   2    -10.1569871  0.287849E+00  0.567E+00    1.58       1.0  T
   3    -10.3459539 -0.188967E+00  0.369E+00    1.73       1.0  T
   4    -10.4467199 -0.100766E+00  0.208E+00    1.80       1.0  T
   5    -10.4681649 -0.214451E-01  0.969E-01    1.76       1.0  T
   6    -10.4766847 -0.851978E-02  0.316E-01    1.76       1.0  T
   7    -10.4772312 -0.546464E-03  0.180E-01    1.76       1.0  T
   8    -10.4772650 -0.338508E-04  0.730E-02    1.74       1.0  T
   9    -10.4773076 -0.425575E-04  0.145E-02    1.75       3.1  T
  10    -10.4773080 -0.402287E-06  0.430E-03    1.75      10.4  T
  11    -10.4773081 -0.831094E-07  0.103E-03    1.75      43.5  T
  12    -10.4773081 -0.122349E-07  0.106E-04    1.75     423.5  T
  13    -10.4773081 -0.433467E-10  0.127E-05    1.75    3519.5  T
     SCC iter.                  ...        0 min,  0.001 sec
     gradient                   ...        0 min,  0.001 sec
 * total energy  :   -10.2848666 Eh     change        0.3124609E-01 Eh
   gradient norm :     0.2372453 Eh/α   predicted    -0.2033929E-01 (-165.09%)
   displ. norm   :     0.4310682 α      lambda       -0.5846438E-01
   maximum displ.:     0.2841448 α      in ANC's #2, #4, #1, ...

........................................................................
.............................. CYCLE   13 ..............................
........................................................................
   1    -10.5573352 -0.105573E+02  0.193E+00    1.79       0.0  T
   2    -10.4600061  0.973291E-01  0.310E+00    1.43       1.0  T
   3    -10.5258564 -0.658504E-01  0.220E+00    1.71       1.0  T
   4    -10.5583274 -0.324710E-01  0.123E+00    1.77       1.0  T
   5    -10.5682429 -0.991550E-02  0.226E-01    1.70       1.0  T
   6    -10.5685760 -0.333090E-03  0.127E-01    1.70       1.0  T
   7    -10.5686226 -0.465901E-04  0.753E-02    1.70       1.0  T
   8    -10.5686422 -0.195704E-04  0.174E-02    1.70       2.6  T
   9    -10.5686434 -0.121977E-05  0.275E-03    1.70      16.2  T
  10    -10.5686434 -0.833101E-08  0.156E-03    1.70      28.7  T
  11    -10.5686434 -0.123176E-07  0.142E-04    1.70     314.2  T
  12    -10.5686434 -0.379892E-10  0.790E-05    1.70     566.4  T
     SCC iter.                  ...        0 min,  0.001 sec
     gradient                   ...        0 min,  0.001 sec
 * total energy  :   -10.3196441 Eh     change       -0.3477748E-01 Eh
   gradient norm :     0.0745821 Eh/α   predicted    -0.3466410E-01 (  -0.33%)
   displ. norm   :     0.3289711 α      lambda       -0.1554969E-01
   maximum displ.:     0.2110974 α      in ANC's #6, #2, #3, ...

........................................................................
.............................. CYCLE   14 ..............................
........................................................................
   1    -10.5912312 -0.105912E+02  0.185E+00    1.53       0.0  T
   2    -10.3689866  0.222245E+00  0.475E+00    0.85       1.0  T
   3    -10.5973926 -0.228406E+00  0.123E+00    1.42       1.0  T
   4    -10.6017634 -0.437077E-02  0.113E+00    1.45       1.0  T
   5    -10.6077905 -0.602713E-02  0.535E-01    1.40       1.0  T
   6    -10.6095780 -0.178743E-02  0.179E-01    1.38       1.0  T
   7    -10.6097105 -0.132567E-03  0.837E-02    1.37       1.0  T
   8    -10.6097279 -0.173691E-04  0.319E-02    1.37       1.4  T
   9    -10.6097320 -0.414847E-05  0.807E-03    1.36       5.5  T
  10    -10.6097321 -0.869038E-07  0.300E-03    1.36      14.9  T
  11    -10.6097322 -0.502527E-07  0.233E-04    1.36     191.7  T
  12    -10.6097322 -0.399893E-10  0.150E-04    1.36     298.4  T
     SCC iter.                  ...        0 min,  0.001 sec
     gradient                   ...        0 min,  0.001 sec
 * total energy  :   -10.3098263 Eh     change        0.9817820E-02 Eh
   gradient norm :     0.1972823 Eh/α   predicted    -0.8616253E-02 (-187.76%)
   displ. norm   :     0.1960575 α      lambda       -0.2615871E-01
   maximum displ.:     0.1287246 α      in ANC's #3, #6, #2, ...

........................................................................
.............................. CYCLE   15 ..............................
........................................................................
   1    -10.5870797 -0.105871E+02  0.122E+00    1.56       0.0  T
   2    -10.4988719  0.882078E-01  0.301E+00    1.46       1.0  T
   3    -10.5897253 -0.908534E-01  0.857E-01    1.64       1.0  T
   4    -10.5937601 -0.403477E-02  0.615E-01    1.60       1.0  T
   5    -10.5952473 -0.148729E-02  0.244E-01    1.63       1.0  T
   6    -10.5958793 -0.631963E-03  0.471E-02    1.64       1.0  T
   7    -10.5958803 -0.978425E-06  0.267E-02    1.64       1.7  T
   8    -10.5958824 -0.212419E-05  0.139E-02    1.64       3.2  T
   9    -10.5958829 -0.486103E-06  0.123E-03    1.64      36.3  T
  10    -10.5958829 -0.327538E-08  0.561E-04    1.64      79.8  T
  11    -10.5958829 -0.199052E-08  0.626E-05    1.64     714.9  T
     SCC iter.                  ...        0 min,  0.001 sec
     gradient                   ...        0 min,  0.001 sec
 * total energy  :   -10.3232143 Eh     change       -0.1338795E-01 Eh
   gradient norm :     0.0155306 Eh/α   predicted    -0.1358211E-01 (   1.45%)
   displ. norm   :     0.0679478 α      lambda       -0.5794832E-03
   maximum displ.:     0.0486704 α      in ANC's #3, #2, #7, ...

........................................................................
.............................. CYCLE   16 ..............................
........................................................................
   1    -10.5945718 -0.105946E+02  0.238E-01    1.63       0.0  T
   2    -10.5942855  0.286333E-03  0.221E-01    1.63       1.0  T
   3    -10.5935538  0.731697E-03  0.321E-01    1.62       1.0  T
   4    -10.5945204 -0.966581E-03  0.902E-02    1.63       1.0  T
   5    -10.5945925 -0.721441E-04  0.213E-02    1.63       2.1  T
   6    -10.5945960 -0.346328E-05  0.533E-03    1.63       8.4  T
   7    -10.5945960 -0.599764E-07  0.249E-03    1.63      18.0  T
   8    -10.5945961 -0.449995E-07  0.613E-04    1.63      73.0  T
   9    -10.5945961 -0.100817E-08  0.272E-04    1.63     164.6  T
     SCC iter.                  ...        0 min,  0.001 sec
     gradient                   ...        0 min,  0.001 sec
 * total energy  :   -10.3237100 Eh     change       -0.4957149E-03 Eh
   gradient norm :     0.0089076 Eh/α   predicted    -0.2910805E-03 ( -41.28%)
   displ. norm   :     0.3204381 α      lambda       -0.2143723E-02
   maximum displ.:     0.2189542 α      in ANC's #3, #2, #6, ...

........................................................................
.............................. CYCLE   17 ..............................
........................................................................
   1    -10.5836450 -0.105836E+02  0.107E+00    1.63       0.0  T
   2    -10.5832136  0.431470E-03  0.691E-01    1.66       1.0  T
   3    -10.5766431  0.657050E-02  0.917E-01    1.59       1.0  T
   4    -10.5833408 -0.669773E-02  0.205E-01    1.64       1.0  T
   5    -10.5837800 -0.439194E-03  0.701E-02    1.65       1.0  T
   6    -10.5838224 -0.424703E-04  0.206E-02    1.65       2.2  T
   7    -10.5838234 -0.964212E-06  0.651E-03    1.65       6.9  T
   8    -10.5838238 -0.337655E-06  0.881E-04    1.65      50.8  T
   9    -10.5838238 -0.278953E-08  0.212E-04    1.65     210.8  T
     SCC iter.                  ...        0 min,  0.001 sec
     gradient                   ...        0 min,  0.001 sec
 * total energy  :   -10.3245758 Eh     change       -0.8658447E-03 Eh
   gradient norm :     0.0397550 Eh/α   predicted    -0.1181926E-02 (  36.51%)
   displ. norm   :     0.0488117 α      lambda       -0.9533507E-03
   maximum displ.:     0.0299135 α      in ANC's #3, #1, #5, ...

........................................................................
.............................. CYCLE   18 ..............................
........................................................................
   1    -10.5950145 -0.105950E+02  0.186E-01    1.63       0.0  T
   2    -10.5946934  0.321077E-03  0.226E-01    1.61       1.0  T
   3    -10.5950458 -0.352372E-03  0.118E-01    1.62       1.0  T
   4    -10.5946045  0.441340E-03  0.215E-01    1.62       1.0  T
   5    -10.5951244 -0.519980E-03  0.118E-02    1.62       3.8  T
   6    -10.5951247 -0.245742E-06  0.726E-03    1.62       6.2  T
   7    -10.5951249 -0.174763E-06  0.164E-03    1.62      27.3  T
   8    -10.5951249 -0.687060E-08  0.287E-04    1.62     155.8  T
   9    -10.5951249 -0.535765E-09  0.160E-04    1.62     278.9  T
     SCC iter.                  ...        0 min,  0.001 sec
     gradient                   ...        0 min,  0.001 sec
 * total energy  :   -10.3251797 Eh     change       -0.6039139E-03 Eh
   gradient norm :     0.0197597 Eh/α   predicted    -0.4778116E-03 ( -20.88%)
   displ. norm   :     0.1253485 α      lambda       -0.7283636E-03
   maximum displ.:     0.0601131 α      in ANC's #3, #2, #5, ...

........................................................................
.............................. CYCLE   19 ..............................
........................................................................
   1    -10.5982900 -0.105983E+02  0.418E-01    1.60       0.0  T
   2    -10.5976337  0.656264E-03  0.361E-01    1.59       1.0  T
   3    -10.5947999  0.283380E-02  0.575E-01    1.59       1.0  T
   4    -10.5978054 -0.300549E-02  0.243E-01    1.61       1.0  T
   5    -10.5983566 -0.551217E-03  0.174E-02    1.60       2.6  T
   6    -10.5983586 -0.202171E-05  0.708E-03    1.60       6.3  T
   7    -10.5983587 -0.126273E-07  0.357E-03    1.60      12.5  T
   8    -10.5983587 -0.274173E-07  0.949E-04    1.60      47.1  T
   9    -10.5983587 -0.582809E-08  0.195E-04    1.60     229.8  T
     SCC iter.                  ...        0 min,  0.001 sec
     gradient                   ...        0 min,  0.001 sec
 * total energy  :   -10.3257459 Eh     change       -0.5661955E-03 Eh
   gradient norm :     0.0087904 Eh/α   predicted    -0.3699022E-03 ( -34.67%)
   displ. norm   :     0.2727979 α      lambda       -0.1057068E-02
   maximum displ.:     0.1546935 α      in ANC's #3, #2, #7, ...

........................................................................
.............................. CYCLE   20 ..............................
........................................................................
   1    -10.5948372 -0.105948E+02  0.892E-01    1.60       0.0  T
   2    -10.5947048  0.132376E-03  0.557E-01    1.61       1.0  T
   3    -10.5835582  0.111466E-01  0.993E-01    1.56       1.0  T
   4    -10.5942894 -0.107311E-01  0.234E-01    1.59       1.0  T
   5    -10.5948638 -0.574413E-03  0.277E-02    1.61       1.6  T
   6    -10.5948666 -0.282064E-05  0.135E-02    1.61       3.3  T
   7    -10.5948669 -0.268931E-06  0.418E-03    1.61      10.7  T
   8    -10.5948669 -0.427177E-07  0.357E-04    1.61     125.3  T
   9    -10.5948669  0.230523E-09  0.222E-04    1.61     201.6  T
     SCC iter.                  ...        0 min,  0.001 sec
     gradient                   ...        0 min,  0.001 sec
 * total energy  :   -10.3264738 Eh     change       -0.7279066E-03 Eh
   gradient norm :     0.0140542 Eh/α   predicted    -0.5678693E-03 ( -21.99%)
   displ. norm   :     0.1991424 α      lambda       -0.8121622E-03
   maximum displ.:     0.1153274 α      in ANC's #1, #3, #2, ...
 * RMSD in coord.:     1.5183598 α      energy gain  -0.2518389E+00 Eh

generating ANC from model Hessian ...
Using Lindh-Hessian (1995)
 Shifting diagonal of input Hessian by    9.5332640388004642E-003
 Lowest  eigenvalues of input Hessian
   -0.000000   -0.000000   -0.000000   -0.000000    0.000000    0.000000
    0.010000    0.011092    0.134491    0.335867    0.465802    0.888188
    1.135956    2.053363    2.788784
 Highest eigenvalues
    0.335867    0.465802    0.888188    1.135956    2.053363    2.788784


........................................................................
.............................. CYCLE   21 ..............................
........................................................................
   1    -10.5950572 -0.105951E+02  0.638E-01    1.60       0.0  T
   2    -10.5949752  0.819334E-04  0.399E-01    1.60       1.0  T
   3    -10.5868350  0.814024E-02  0.847E-01    1.58       1.0  T
   4    -10.5950435 -0.820849E-02  0.509E-02    1.60       1.0  T
   5    -10.5950666 -0.231566E-04  0.157E-02    1.60       2.8  T
   6    -10.5950671 -0.408584E-06  0.125E-02    1.60       3.6  T
   7    -10.5950680 -0.909935E-06  0.281E-03    1.60      15.9  T
   8    -10.5950680 -0.255380E-07  0.372E-04    1.60     120.2  T
   9    -10.5950680 -0.106770E-08  0.176E-04    1.60     253.6  T
     SCC iter.                  ...        0 min,  0.001 sec
     gradient                   ...        0 min,  0.001 sec
 * total energy  :   -10.3270757 Eh     change       -0.6018970E-03 Eh
   gradient norm :     0.0137484 Eh/α   predicted     0.0000000E+00 (-100.00%)
   displ. norm   :     0.0552301 α      lambda       -0.3366497E-03
   maximum displ.:     0.0380636 α      in ANC's #3, #1, #2, ...

........................................................................
.............................. CYCLE   22 ..............................
........................................................................
   1    -10.5968582 -0.105969E+02  0.180E-01    1.59       0.0  T
   2    -10.5964749  0.383284E-03  0.213E-01    1.58       1.0  T
   3    -10.5965113 -0.363699E-04  0.203E-01    1.58       1.0  T
   4    -10.5967506 -0.239271E-03  0.122E-01    1.59       1.0  T
   5    -10.5968931 -0.142560E-03  0.657E-03    1.58       6.8  T
   6    -10.5968932 -0.101336E-07  0.506E-03    1.58       8.8  T
   7    -10.5968933 -0.141423E-06  0.107E-03    1.58      41.9  T
   8    -10.5968933 -0.281967E-08  0.242E-04    1.58     184.9  T
   9    -10.5968933 -0.195945E-09  0.120E-04    1.58     372.3  T
     SCC iter.                  ...        0 min,  0.001 sec
     gradient                   ...        0 min,  0.001 sec
 * total energy  :   -10.3272513 Eh     change       -0.1756178E-03 Eh
   gradient norm :     0.0059375 Eh/α   predicted    -0.1688363E-03 (  -3.86%)
   displ. norm   :     0.2477451 α      lambda       -0.1202452E-02
   maximum displ.:     0.1569812 α      in ANC's #3, #1, #2, ...

........................................................................
.............................. CYCLE   23 ..............................
........................................................................
   1    -10.6006672 -0.106007E+02  0.857E-01    1.55       0.0  T
   2    -10.5983204  0.234676E-02  0.684E-01    1.51       1.0  T
   3    -10.5843692  0.139513E-01  0.126E+00    1.51       1.0  T
   4    -10.5991942 -0.148251E-01  0.424E-01    1.56       1.0  T
   5    -10.6009044 -0.171012E-02  0.441E-02    1.54       1.0  T
   6    -10.6009105 -0.618384E-05  0.194E-02    1.54       2.3  T
   7    -10.6009110 -0.422911E-06  0.106E-02    1.53       4.2  T
   8    -10.6009111 -0.137911E-06  0.100E-03    1.53      44.6  T
   9    -10.6009111 -0.759421E-09  0.695E-04    1.53      64.3  T
  10    -10.6009111 -0.262979E-08  0.932E-05    1.53     479.7  T
     SCC iter.                  ...        0 min,  0.001 sec
     gradient                   ...        0 min,  0.001 sec
 * total energy  :   -10.3273818 Eh     change       -0.1304787E-03 Eh
   gradient norm :     0.0354178 Eh/α   predicted    -0.6381297E-03 ( 389.07%)
   displ. norm   :     0.1483857 α      lambda       -0.9672397E-03
   maximum displ.:     0.1037596 α      in ANC's #2, #1, #3, ...

........................................................................
.............................. CYCLE   24 ..............................
........................................................................
   1    -10.5980239 -0.105980E+02  0.492E-01    1.56       0.0  T
   2    -10.5973839  0.639981E-03  0.393E-01    1.57       1.0  T
   3    -10.5929532  0.443068E-02  0.695E-01    1.53       1.0  T
   4    -10.5972330 -0.427983E-02  0.291E-01    1.55       1.0  T
   5    -10.5980985 -0.865453E-03  0.279E-02    1.57       1.6  T
   6    -10.5981023 -0.379241E-05  0.104E-02    1.57       4.3  T
   7    -10.5981024 -0.100487E-06  0.446E-03    1.57      10.0  T
   8    -10.5981025 -0.846377E-07  0.811E-04    1.57      55.1  T
   9    -10.5981025 -0.248686E-08  0.396E-04    1.57     113.0  T
     SCC iter.                  ...        0 min,  0.001 sec
     gradient                   ...        0 min,  0.001 sec
 * total energy  :   -10.3281289 Eh     change       -0.7470780E-03 Eh
   gradient norm :     0.0146679 Eh/α   predicted    -0.4942697E-03 ( -33.84%)
   displ. norm   :     0.2596175 α      lambda       -0.8741200E-03
   maximum displ.:     0.1874883 α      in ANC's #3, #2, #1, ...

........................................................................
.............................. CYCLE   25 ..............................
........................................................................
   1    -10.5881131 -0.105881E+02  0.857E-01    1.60       0.0  T
   2    -10.5834697  0.464337E-02  0.842E-01    1.59       1.0  T
   3    -10.5772486  0.622107E-02  0.106E+00    1.58       1.0  T
   4    -10.5853180 -0.806933E-02  0.576E-01    1.57       1.0  T
   5    -10.5885520 -0.323400E-02  0.615E-02    1.62       1.0  T
   6    -10.5885652 -0.132393E-04  0.301E-02    1.61       1.5  T
   7    -10.5885678 -0.256621E-05  0.129E-02    1.61       3.5  T
   8    -10.5885680 -0.222381E-06  0.123E-03    1.61      36.4  T
   9    -10.5885680  0.387033E-09  0.867E-04    1.61      51.6  T
  10    -10.5885680 -0.456454E-08  0.247E-04    1.61     180.9  T
     SCC iter.                  ...        0 min,  0.001 sec
     gradient                   ...        0 min,  0.001 sec
 * total energy  :   -10.3282600 Eh     change       -0.1310745E-03 Eh
   gradient norm :     0.0274273 Eh/α   predicted    -0.4665182E-03 ( 255.92%)
   displ. norm   :     0.1496267 α      lambda       -0.6449621E-03
   maximum displ.:     0.1208182 α      in ANC's #2, #3, #1, ...

........................................................................
.............................. CYCLE   26 ..............................
........................................................................
   1    -10.5992612 -0.105993E+02  0.494E-01    1.59       0.0  T
   2    -10.5982013  0.105982E-02  0.447E-01    1.57       1.0  T
   3    -10.5961295  0.207185E-02  0.579E-01    1.57       1.0  T
   4    -10.5976143 -0.148483E-02  0.422E-01    1.60       1.0  T
   5    -10.5994235 -0.180917E-02  0.132E-02    1.57       3.4  T
   6    -10.5994236 -0.772433E-07  0.983E-03    1.57       4.5  T
   7    -10.5994238 -0.260525E-06  0.554E-03    1.57       8.1  T
   8    -10.5994239 -0.994516E-07  0.550E-04    1.57      81.4  T
   9    -10.5994239 -0.244972E-09  0.390E-04    1.57     114.6  T
     SCC iter.                  ...        0 min,  0.001 sec
     gradient                   ...        0 min,  0.001 sec
 * total energy  :   -10.3284577 Eh     change       -0.1977069E-03 Eh
   gradient norm :     0.0084526 Eh/α   predicted    -0.3297019E-03 (  66.76%)
   displ. norm   :     0.0655240 α      lambda       -0.1371494E-03
   maximum displ.:     0.0620431 α      in ANC's #2, #3, #7, ...

........................................................................
.............................. CYCLE   27 ..............................
........................................................................
   1    -10.5977436 -0.105977E+02  0.228E-01    1.58       0.0  T
   2    -10.5967646  0.978940E-03  0.322E-01    1.58       1.0  T
   3    -10.5973931 -0.628425E-03  0.225E-01    1.58       1.0  T
   4    -10.5977466 -0.353523E-03  0.859E-02    1.58       1.0  T
   5    -10.5978151 -0.685671E-04  0.843E-03    1.58       5.3  T
   6    -10.5978155 -0.375958E-06  0.443E-03    1.58      10.1  T
   7    -10.5978156 -0.728505E-07  0.162E-03    1.58      27.5  T
   8    -10.5978156 -0.590158E-08  0.413E-04    1.58     108.4  T
   9    -10.5978156 -0.341858E-09  0.239E-04    1.58     186.8  T
     SCC iter.                  ...        0 min,  0.001 sec
     gradient                   ...        0 min,  0.001 sec
 * total energy  :   -10.3285353 Eh     change       -0.7764974E-04 Eh
   gradient norm :     0.0049537 Eh/α   predicted    -0.6886795E-04 ( -11.31%)
   displ. norm   :     0.0818582 α      lambda       -0.1022367E-03
   maximum displ.:     0.0613064 α      in ANC's #3, #2, #4, ...

........................................................................
.............................. CYCLE   28 ..............................
........................................................................
   1    -10.5959769 -0.105960E+02  0.266E-01    1.59       0.0  T
   2    -10.5958908  0.861501E-04  0.187E-01    1.59       1.0  T
   3    -10.5937883  0.210246E-02  0.442E-01    1.58       1.0  T
   4    -10.5958994 -0.211110E-02  0.931E-02    1.58       1.0  T
   5    -10.5959859 -0.864814E-04  0.822E-03    1.59       5.4  T
   6    -10.5959861 -0.237085E-06  0.414E-03    1.59      10.8  T
   7    -10.5959862 -0.266862E-07  0.134E-03    1.59      33.3  T
   8    -10.5959862 -0.542670E-08  0.261E-04    1.59     171.6  T
   9    -10.5959862 -0.471537E-09  0.104E-04    1.59     431.4  T
     SCC iter.                  ...        0 min,  0.001 sec
     gradient                   ...        0 min,  0.001 sec
 * total energy  :   -10.3286037 Eh     change       -0.6836777E-04 Eh
   gradient norm :     0.0089037 Eh/α   predicted    -0.5146065E-04 ( -24.73%)
   displ. norm   :     0.0616626 α      lambda       -0.8011695E-04
   maximum displ.:     0.0465472 α      in ANC's #3, #2, #4, ...

........................................................................
.............................. CYCLE   29 ..............................
........................................................................
   1    -10.5965583 -0.105966E+02  0.200E-01    1.59       0.0  T
   2    -10.5965576  0.676463E-06  0.123E-01    1.59       1.0  T
   3    -10.5965062  0.514432E-04  0.753E-02    1.59       1.0  T
   4    -10.5965545 -0.483521E-04  0.196E-02    1.59       2.3  T
   5    -10.5965590 -0.440602E-05  0.584E-03    1.59       7.7  T
   6    -10.5965591 -0.176713E-06  0.276E-03    1.59      16.2  T
   7    -10.5965591 -0.192791E-07  0.169E-04    1.59     265.4  T
   8    -10.5965591 -0.704272E-10  0.733E-05    1.59     609.8  T
     SCC iter.                  ...        0 min,  0.001 sec
     gradient                   ...        0 min,  0.001 sec
 * total energy  :   -10.3286628 Eh     change       -0.5912132E-04 Eh
   gradient norm :     0.0078699 Eh/α   predicted    -0.4020882E-04 ( -31.99%)
   displ. norm   :     0.0528670 α      lambda       -0.8166957E-04
   maximum displ.:     0.0360489 α      in ANC's #3, #2, #4, ...

........................................................................
.............................. CYCLE   30 ..............................
........................................................................
   1    -10.5985996 -0.105986E+02  0.176E-01    1.58       0.0  T
   2    -10.5984651  0.134455E-03  0.154E-01    1.58       1.0  T
   3    -10.5980256  0.439536E-03  0.240E-01    1.58       1.0  T
   4    -10.5985037 -0.478101E-03  0.107E-01    1.59       1.0  T
   5    -10.5986140 -0.110299E-03  0.358E-03    1.58      12.5  T
   6    -10.5986140 -0.234589E-08  0.201E-03    1.58      22.2  T
   7    -10.5986140 -0.645083E-08  0.104E-03    1.58      42.9  T
   8    -10.5986140 -0.545800E-08  0.119E-04    1.58     374.8  T
   9    -10.5986140 -0.699885E-10  0.475E-05    1.58     942.0  T
     SCC iter.                  ...        0 min,  0.001 sec
     gradient                   ...        0 min,  0.002 sec
 * total energy  :   -10.3287152 Eh     change       -0.5242220E-04 Eh
   gradient norm :     0.0023757 Eh/α   predicted    -0.4094861E-04 ( -21.89%)
   displ. norm   :     0.0443985 α      lambda       -0.2096273E-04
   maximum displ.:     0.0290835 α      in ANC's #2, #3, #4, ...

........................................................................
.............................. CYCLE   31 ..............................
........................................................................
   1    -10.5986473 -0.105986E+02  0.144E-01    1.58       0.0  T
   2    -10.5986350  0.122638E-04  0.935E-02    1.58       1.0  T
   3    -10.5979454  0.689539E-03  0.248E-01    1.58       1.0  T
   4    -10.5986481 -0.702675E-03  0.571E-03    1.58       7.8  T
   5    -10.5986483 -0.164478E-06  0.346E-03    1.58      12.9  T
   6    -10.5986483 -0.261018E-07  0.227E-03    1.58      19.7  T
   7    -10.5986484 -0.354514E-07  0.318E-04    1.58     140.8  T
   8    -10.5986484 -0.130628E-09  0.498E-05    1.58     898.1  T
     SCC iter.                  ...        0 min,  0.001 sec
     gradient                   ...        0 min,  0.001 sec
 * total energy  :   -10.3287280 Eh     change       -0.1278387E-04 Eh
   gradient norm :     0.0015190 Eh/α   predicted    -0.1050171E-04 ( -17.85%)
   displ. norm   :     0.0125971 α      lambda       -0.5588854E-05
   maximum displ.:     0.0068192 α      in ANC's #3, #4, #6, ...

........................................................................
.............................. CYCLE   32 ..............................
........................................................................
   1    -10.5996065 -0.105996E+02  0.432E-02    1.58       0.0  T
   2    -10.5996024  0.405969E-05  0.346E-02    1.57       1.3  T
   3    -10.5995996  0.285058E-05  0.349E-02    1.58       1.3  T
   4    -10.5995867  0.128191E-04  0.428E-02    1.57       1.0  T
   5    -10.5996080 -0.212912E-04  0.151E-03    1.57      29.7  T
   6    -10.5996080 -0.556031E-08  0.903E-04    1.57      49.5  T
   7    -10.5996080 -0.247704E-08  0.192E-04    1.57     233.2  T
     SCC iter.                  ...        0 min,  0.001 sec
     gradient                   ...        0 min,  0.001 sec
 * total energy  :   -10.3287306 Eh     change       -0.2616059E-05 Eh
   gradient norm :     0.0023147 Eh/α   predicted    -0.2794486E-05 (   6.82%)
   displ. norm   :     0.0037375 α      lambda       -0.2171869E-05
   maximum displ.:     0.0027568 α      in ANC's #2, #3, #1, ...

........................................................................
.............................. CYCLE   33 ..............................
........................................................................
   1    -10.5992631 -0.105993E+02  0.131E-02    1.58       0.0  T
   2    -10.5992617  0.142459E-05  0.145E-02    1.58       3.1  T
   3    -10.5992620 -0.303919E-06  0.126E-02    1.58       3.6  T
   4    -10.5992618  0.183134E-06  0.126E-02    1.58       3.6  T
   5    -10.5992634 -0.157725E-05  0.575E-04    1.58      77.8  T
   6    -10.5992634 -0.843773E-09  0.333E-04    1.58     134.3  T
   7    -10.5992634 -0.295017E-09  0.438E-05    1.58    1021.6  T
     SCC iter.                  ...        0 min,  0.001 sec
     gradient                   ...        0 min,  0.001 sec
 * total energy  :   -10.3287322 Eh     change       -0.1563512E-05 Eh
   gradient norm :     0.0011201 Eh/α   predicted    -0.1084697E-05 ( -30.62%)
   displ. norm   :     0.0120539 α      lambda       -0.2118881E-05
   maximum displ.:     0.0073346 α      in ANC's #3, #2, #4, ...

........................................................................
.............................. CYCLE   34 ..............................
........................................................................
   1    -10.5987395 -0.105987E+02  0.409E-02    1.58       0.0  T
   2    -10.5987376  0.187861E-05  0.284E-02    1.58       1.6  T
   3    -10.5987157  0.219112E-04  0.493E-02    1.58       1.0  T
   4    -10.5987285 -0.128469E-04  0.320E-02    1.58       1.4  T
   5    -10.5987400 -0.114196E-04  0.959E-04    1.58      46.7  T
   6    -10.5987400 -0.836698E-09  0.635E-04    1.58      70.5  T
   7    -10.5987400 -0.120789E-08  0.105E-04    1.58     424.7  T
     SCC iter.                  ...        0 min,  0.001 sec
     gradient                   ...        0 min,  0.001 sec
 * total energy  :   -10.3287339 Eh     change       -0.1686941E-05 Eh
   gradient norm :     0.0006443 Eh/α   predicted    -0.1058229E-05 ( -37.27%)
   displ. norm   :     0.0081167 α      lambda       -0.6803755E-06
   maximum displ.:     0.0065317 α      in ANC's #2, #3, #1, ...

   *** GEOMETRY OPTIMIZATION CONVERGED AFTER 34 ITERATIONS ***

------------------------------------------------------------------------
 total energy gain   :        -0.2540990 Eh     -159.4495 kcal/mol
 total RMSD          :         1.5115224 a0        0.7999 Å
 total power (kW/mol):       -19.6216704 (step)-5036.7917 (real)
------------------------------------------------------------------------

 ANCopt (total)                0 d,  0 h,  0 min,  0.132 sec
 optimizer setup                ...        0 min,  0.000 sec (  0.050%)
 model hessian                  ...        0 min,  0.000 sec (  0.091%)
 ANC generation                 ...        0 min,  0.000 sec (  0.070%)
 coordinate transformation      ...        0 min,  0.000 sec (  0.057%)
 single point calculation       ...        0 min,  0.130 sec ( 97.774%)
 optimization log               ...        0 min,  0.001 sec (  0.632%)
 hessian update                 ...        0 min,  0.000 sec (  0.056%)
 rational function              ...        0 min,  0.001 sec (  0.570%)

================
 final structure:
================
5
 xtb: 6.2.2 (9d81278992624c895f80dd42a50cac0aa55982e2)
C        -2.47627186009086   -0.56016835156041    0.33826129291458
C         0.00064479348985   -0.00395353370247   -0.00163473644259
C         1.24287361028115    0.28261991479367   -0.16798599753464
C        -1.24250589775664   -0.28500968687713    0.16691702357351
C         2.47525935407651    0.56651165734639   -0.33555858251086

 Bond Distances (Angstroems)
 ---------------------------
C1-C4=1.2756         C2-C3=1.2857         C2-C4=1.2856         C3-C2=1.2857         C3-C5=1.2757         C4-C1=1.2756         
C4-C2=1.2856         C5-C3=1.2757         
 C  C  Rav=1.2807 sigma=0.0050  Rmin=1.2756  Rmax=1.2857     4

 selected bond angles (degree)
 --------------------
C4-C2-C3=179.73                C5-C3-C2=179.88                C2-C4-C1=179.75                

 selected dihedral angles (degree)
 ---------------------------------
C5-C3-C2-C4=239.27            C1-C4-C2-C3=333.37            
           -------------------------------------------------
          |                Final Singlepoint                |
           -------------------------------------------------

          ...................................................
          :                      SETUP                      :
          :.................................................:
          :  # basis functions                  20          :
          :  # atomic orbitals                  20          :
          :  # shells                           10          :
          :  # electrons                        20          :
          :  max. iterations                   250          :
          :  Hamiltonian                  GFN2-xTB          :
          :  restarted?                      false          :
          :  GBSA solvation                  false          :
          :  PC potential                    false          :
          :  electronic temp.          300.0000000     K    :
          :  accuracy                    1.0000000          :
          :  -> integral cutoff          0.2500000E+02      :
          :  -> integral neglect         0.1000000E-07      :
          :  -> SCF convergence          0.1000000E-05 Eh   :
          :  -> wf. convergence          0.1000000E-03 e    :
          :  Broyden damping             0.4000000          :
          ...................................................

 iter      E             dE          RMSdq      gap      omega  full diag
   1    -10.5987400 -0.105987E+02  0.384E-05    1.58       0.0  T
   2    -10.5987400  0.643059E-10  0.751E-05    1.58     595.1  T
   3    -10.5987400 -0.572751E-10  0.420E-05    1.58    1065.1  T

   *** convergence criteria satisfied after 3 iterations ***

         #    Occupation            Energy/Eh            Energy/eV
      -------------------------------------------------------------
         1        2.0000           -0.6928740             -18.8541
       ...           ...                  ...                  ...
         4        2.0000           -0.6136654             -16.6987
         5        2.0000           -0.5388606             -14.6631
         6        2.0000           -0.5388602             -14.6631
         7        2.0000           -0.4708855             -12.8134
         8        2.0000           -0.4708844             -12.8134
         9        2.0000           -0.4636966             -12.6178
        10        2.0000           -0.4471508             -12.1676 (HOMO)
        11                         -0.3891394             -10.5890 (LUMO)
        12                         -0.3891391             -10.5890
        13                         -0.2442632              -6.6467
        14                         -0.2442622              -6.6467
        15                         -0.1168190              -3.1788
       ...                                ...                  ...
        20                          1.4162601              38.5384
      -------------------------------------------------------------
                  HL-Gap            0.0580114 Eh            1.5786 eV
             Fermi-level           -0.4184620 Eh          -11.3869 eV

 SCC (total)                   0 d,  0 h,  0 min,  0.003 sec
 SCC setup                      ...        0 min,  0.000 sec (  1.449%)
 Dispersion                     ...        0 min,  0.000 sec (  0.291%)
 integral evaluation            ...        0 min,  0.001 sec ( 42.618%)
 zeroth order Hamiltonian       ...        0 min,  0.000 sec (  0.514%)
 iterations                     ...        0 min,  0.000 sec ( 11.933%)
 molecular gradient             ...        0 min,  0.001 sec ( 40.563%)
 printout                       ...        0 min,  0.000 sec (  2.347%)

         :::::::::::::::::::::::::::::::::::::::::::::::::::::
         ::                     SUMMARY                     ::
         :::::::::::::::::::::::::::::::::::::::::::::::::::::
         :: total energy             -10.328733899475 Eh    ::
         :: gradient norm              0.000645119692 Eh/a0 ::
         :: HOMO-LUMO gap              1.578570800855 eV    ::
         ::.................................................::
         :: SCC energy               -10.598739953916 Eh    ::
         :: -> isotropic ES           -0.017430146615 Eh    ::
         :: -> anisotropic ES         -0.000331204751 Eh    ::
         :: -> anisotropic XC          0.021786941058 Eh    ::
         :: -> dispersion             -0.002738248374 Eh    ::
         :: repulsion energy           0.270007409162 Eh    ::
         :: add. restraining           0.000000000000 Eh    ::
         :::::::::::::::::::::::::::::::::::::::::::::::::::::

           ------------------------------------------------- 
          |                Numerical Hessian                |
           ------------------------------------------------- 
step length          :   0.00500
SCC accuracy         :   0.30000
Hessian scale factor :   1.00000
frozen atoms in %    :   0.00000    0
RMS gradient         :   0.00064
estimated CPU  time      0.00 min
estimated wall time      0.00 min

writing file <hessian>.

 projected vibrational frequencies (cm-1)
eigval :       -0.00    -0.00    -0.00    -0.00     0.00     0.00
eigval :      102.63   202.63   212.50   486.97   491.91   821.86
eigval :     1551.18  1993.87  2155.59
           -------------------------------------------------
          |                Property Printout                |
           -------------------------------------------------

    * Orbital Energies and Occupations

         #    Occupation            Energy/Eh            Energy/eV
      -------------------------------------------------------------
         1        2.0000           -0.6928742             -18.8541
         2        2.0000           -0.6801815             -18.5087
         3        2.0000           -0.6590120             -17.9326
         4        2.0000           -0.6136655             -16.6987
         5        2.0000           -0.5388608             -14.6631
         6        2.0000           -0.5388604             -14.6631
         7        2.0000           -0.4708854             -12.8134
         8        2.0000           -0.4708843             -12.8134
         9        2.0000           -0.4636965             -12.6178
        10        2.0000           -0.4471507             -12.1676 (HOMO)
        11                         -0.3891394             -10.5890 (LUMO)
        12                         -0.3891391             -10.5890
        13                         -0.2442631              -6.6467
        14                         -0.2442621              -6.6467
        15                         -0.1168191              -3.1788
        16                         -0.1168120              -3.1786
        17                          0.0893076               2.4302
        18                          0.4580923              12.4653
        19                          0.9474830              25.7823
        20                          1.4162599              38.5384
      -------------------------------------------------------------
                  HL-Gap            0.0580113 Eh            1.5786 eV
             Fermi-level           -0.4184620 Eh          -11.3869 eV

     #   Z        covCN         q      C6AA      α(0)
     1   6 C      0.982    -0.103    39.219    10.519
     2   6 C      1.964     0.112    28.309     8.592
     3   6 C      1.963     0.048    29.858     8.824
     4   6 C      1.963     0.048    29.858     8.824
     5   6 C      0.982    -0.103    39.219    10.519

 Mol. C6AA /au·bohr⁶  :        827.819784
 Mol. C8AA /au·bohr⁸  :      23941.986723
 Mol. α(0) /au        :         47.279559


Wiberg/Mayer (AO) data.
largest (>0.10) Wiberg bond orders for each atom
          total WBO             WBO to atom ...
     1  C   2.681        C    4 2.037    C    5 0.274    C    2 0.207    C    3 0.164
     2  C   3.934        C    4 1.760    C    3 1.760    C    1 0.207    C    5 0.207
     3  C   3.976        C    5 2.037    C    2 1.760    C    1 0.164
     4  C   3.976        C    1 2.037    C    2 1.760    C    5 0.164
     5  C   2.681        C    3 2.037    C    1 0.274    C    2 0.207    C    4 0.164

MOs/occ written to file <molden.input>


molecular dipole:
                 x           y           z       tot (Debye)
 q only:        0.000      -0.002      -0.001
   full:        0.001      -0.006      -0.003       0.017
molecular quadrupole (traceless):
                xx          xy          yy          xz          yz          zz
 q only:       -3.863      -1.366       1.832       0.818       0.186       2.031
  q+dip:       -6.791      -2.396       3.223       1.446       0.328       3.568
   full:      -12.031      -4.248       5.708       2.558       0.581       6.323

           -------------------------------------------------
          |                Geometry Summary                 |
           -------------------------------------------------

      molecular mass/u    :       60.0536795
   center of mass at/Å    :       -0.0000000      -0.0000000      -0.0000002
  moments of inertia/u·Å² :        0.6323291E-03   0.1972918E+03   0.1972923E+03
rotational constants/cm⁻¹ :        0.2665959E+05   0.8544519E-01   0.8544494E-01

 * 2 selected distances

     #   Z        #   Z                                     value/Å
     2   6 C      3   6 C                                 1.2856631 (max)
     2   6 C      4   6 C                                 1.2856228 (min)

 * 1 distinct bonds (by element types)

   Z      Z             #   av. dist./Å        max./Å        min./Å
   6 C    6 C           2     1.2856429     1.2856631     1.2856228

           -------------------------------------------------
          |               Frequency Printout                |
           -------------------------------------------------
 projected vibrational frequencies (cm-1)
eigval :       -0.00    -0.00    -0.00    -0.00     0.00     0.00
eigval :      102.63   202.63   212.50   486.97   491.91   821.86
eigval :     1551.18  1993.87  2155.59
 reduced masses (amu)
   1: 12.01   2: 12.01   3: 12.01   4: 12.01   5: 12.01   6: 12.01   7: 12.01   8: 12.01
   9: 12.01  10: 12.01  11: 12.01  12: 12.01  13: 12.01  14: 12.01  15: 12.01
 IR intensities (amu)
   1:  0.26   2:  0.23   3:  0.12   4:  0.21   5:  0.06   6:  0.28   7:  0.51   8:  0.18
   9:  0.00  10:  0.13  11:  0.19  12:  0.00  13:  0.12  14:  0.00  15:  2.78
Molecule has the following symmetry elements: (i) (Cinf) (C2) 2*(sigma) 
It seems to be the Dinfh point group
 Raman intensities (amu)
   1:  0.00   2:  0.00   3:  0.00   4:  0.00   5:  0.00   6:  0.00   7:  0.00   8:  0.00
   9:  0.00  10:  0.00  11:  0.00  12:  0.00  13:  0.00  14:  0.00  15:  0.00
 output can be read by thermo (or use thermo option).
 writing <g98.out> molden fake output.
 recommended (thermochemical) frequency scaling factor: 1.0
           -------------------------------------------------
          |             Thermodynamic Functions             |
           -------------------------------------------------

din symmetry found (for desy threshold:  0.10E+00) used in thermo

          ...................................................
          :                      SETUP                      :
          :.................................................:
          :  # frequencies                           9      :
          :  # imaginary freq.                       0      :
          :  linear?                             false      :
          :  only rotor calc.                    false      :
          :  symmetry                              din      :
          :  rotational number                       1      :
          :  scaling factor                  1.0000000      :
          :  rotor cutoff                   50.0000000 cm⁻¹ :
          :  imag. cutoff                  -20.0000000 cm⁻¹ :
          :.................................................:

    mode    ω/cm⁻¹     T·S(HO)/kcal·mol⁻¹    T·S(FR)/kcal·mol⁻¹   T·S(vib)
   ------------------------------------------------------------------------
       1    102.63    -0.00000 ( 94.67%)     0.00545 (  5.33%)     0.00029
       2    202.63    -0.00000 ( 99.63%)     0.01221 (  0.37%)     0.00005
       3    212.50    -0.00000 ( 99.69%)     0.01268 (  0.31%)     0.00004
   ------------------------------------------------------------------------

   temp. (K)  partition function   enthalpy   heat capacity  entropy
                                   cal/mol     cal/K/mol   cal/K/mol   J/K/mol
 298.15  VIB   7.96                 1486.548      8.849      9.077
         ROT   379.                  888.752      2.981     14.780
         INT  0.302E+04             2375.300     11.830     23.857
         TR   0.450E+27             1481.254      4.968     38.181
         TOT                        3856.5544    16.7979    62.0380   259.5670

   temp. (K)  partition function   enthalpy   heat capacity  entropy
                                   cal/mol     cal/K/mol   cal/K/mol   J/K/mol
 120.00  VIB   1.69                  236.716      4.584      3.032
         ROT   96.8                  357.707      2.981     12.067
         INT   164.                  594.423      7.565     15.099
         TR   0.115E+27              596.178      4.968     33.661
         TOT                        1190.6010    12.5334    48.7608   204.0152

   temp. (K)  partition function   enthalpy   heat capacity  entropy
                                   cal/mol     cal/K/mol   cal/K/mol   J/K/mol
 100.00  VIB   1.44                  152.500      3.822      2.274
         ROT   73.6                  298.089      2.981     11.524
         INT   106.                  450.589      6.803     13.797
         TR   0.875E+26              496.815      4.968     32.756
         TOT                         947.4037    11.7708    46.5534   194.7795

   temp. (K)  partition function   enthalpy   heat capacity  entropy
                                   cal/mol     cal/K/mol   cal/K/mol   J/K/mol
  80.00  VIB   1.25                   84.599      2.946      1.526
         ROT   52.7                  238.471      2.981     10.859
         INT   65.7                  323.070      5.927     12.385
         TR   0.626E+26              397.452      4.968     31.648
         TOT                         720.5223    10.8947    44.0331   184.2344

   temp. (K)  partition function   enthalpy   heat capacity  entropy
                                   cal/mol     cal/K/mol   cal/K/mol   J/K/mol
  60.00  VIB   1.11                   35.680      1.922      0.835
         ROT   34.2                  178.853      2.981     10.001
         INT   37.9                  214.533      4.903     10.836
         TR   0.406E+26              298.089      4.968     30.219
         TOT                         512.6219     9.8710    41.0552   171.7751

   temp. (K)  partition function   enthalpy   heat capacity  entropy
                                   cal/mol     cal/K/mol   cal/K/mol   J/K/mol
  40.00  VIB   1.03                    8.192      0.838      0.290
         ROT   18.6                  119.236      2.981      8.792
         INT   19.1                  127.428      3.819      9.082
         TR   0.221E+26              198.726      4.968     28.206
         TOT                         326.1537     8.7873    37.2881   156.0134

   temp. (K)  partition function   enthalpy   heat capacity  entropy
                                   cal/mol     cal/K/mol   cal/K/mol   J/K/mol
  20.00  VIB   1.00                    0.183      0.068      0.013
         ROT   6.58                   59.618      2.981      6.726
         INT   6.59                   59.801      3.049      6.740
         TR   0.782E+25               99.363      4.968     24.764
         TOT                         159.1638     8.0168    31.5037   131.8113

   temp. (K)  partition function   enthalpy   heat capacity  entropy
                                   cal/mol     cal/K/mol   cal/K/mol   J/K/mol
  10.00  VIB   1.00                    0.000      0.000     -0.038
         ROT   2.33                   29.809      2.981      4.660
         INT   2.33                   29.809      2.981      4.622
         TR   0.277E+25               49.681      4.968     21.322
         TOT                          79.4905     7.9492    25.9441   108.5502

       T/K    H(0)-H(T)+PV         H(T)/Eh          T*S/Eh         G(T)/Eh
   ------------------------------------------------------------------------
    298.15    0.614581E-02    0.244148E-01    0.294763E-01   -0.506150E-02
    120.00    0.189734E-02    0.201663E-01    0.932463E-02    0.108417E-01
    100.00    0.150978E-02    0.197787E-01    0.741876E-02    0.123600E-01
     80.00    0.114823E-02    0.194172E-01    0.561369E-02    0.138035E-01
     60.00    0.816915E-03    0.190859E-01    0.392554E-02    0.151603E-01
     40.00    0.519759E-03    0.187887E-01    0.237689E-02    0.164118E-01
     20.00    0.253644E-03    0.185226E-01    0.100409E-02    0.175185E-01
     10.00    0.126676E-03    0.183956E-01    0.413446E-03    0.179822E-01 (used)
   ------------------------------------------------------------------------

         :::::::::::::::::::::::::::::::::::::::::::::::::::::
         ::                  THERMODYNAMIC                  ::
         :::::::::::::::::::::::::::::::::::::::::::::::::::::
         :: total free energy         -10.310751718728 Eh   ::
         ::.................................................::
         :: total energy              -10.328733898268 Eh   ::
         :: zero point energy           0.018268949189 Eh   ::
         :: G(RRHO) w/o ZPVE           -0.000286769650 Eh   ::
         :: G(RRHO) contrib.            0.017982179539 Eh   ::
         :::::::::::::::::::::::::::::::::::::::::::::::::::::

optimized geometry written to: xtbopt.xyz


           -------------------------------------------------
          | TOTAL ENERGY              -10.328733898268 Eh   |
          | TOTAL ENTHALPY            -10.310338272882 Eh   |
          | TOTAL FREE ENERGY         -10.310751718728 Eh   |
          | GRADIENT NORM               0.000644939256 Eh/α |
          | HOMO-LUMO GAP               1.578567967854 eV   |
           -------------------------------------------------

------------------------------------------------------------------------
 * finished run on 2020/05/12 at 11:44:33.912     
------------------------------------------------------------------------
 total:
 * wall-time:     0 d,  0 h,  0 min,  0.263 sec
 *  cpu-time:     0 d,  0 h,  0 min,  0.262 sec
 * ratio c/w:     0.998 speedup
 SCF:
 * wall-time:     0 d,  0 h,  0 min,  0.006 sec
 *  cpu-time:     0 d,  0 h,  0 min,  0.006 sec
 * ratio c/w:     0.999 speedup
 ANC optimizer:
 * wall-time:     0 d,  0 h,  0 min,  0.136 sec
 *  cpu-time:     0 d,  0 h,  0 min,  0.136 sec
 * ratio c/w:     0.999 speedup
 numerical hessian:
 * wall-time:     0 d,  0 h,  0 min,  0.105 sec
 *  cpu-time:     0 d,  0 h,  0 min,  0.104 sec
 * ratio c/w:     0.997 speedup

