$hessian                                                                        
        0.6952729372   0.1540457481  -0.0958675871  -0.0835866027  -0.0210981855
        0.0140825417   0.0150472571   0.0046984709  -0.0037212986  -0.6238461715
       -0.1365410883   0.0846728647  -0.0028874200  -0.0011049452   0.0008334793
        0.1540457481   0.0387112521  -0.0210626349  -0.0211134181   0.0043028761
       -0.0004113427   0.0045213371  -0.0031711523   0.0015874525  -0.1365478017
       -0.0408565405   0.0200277681  -0.0009058654   0.0010135645  -0.0001412430
       -0.0958675871  -0.0210626349   0.0187978908   0.0138249336   0.0013023106
        0.0108933797  -0.0037436732   0.0018383623  -0.0064990500   0.0847936448
        0.0187801226  -0.0252904138   0.0009926818  -0.0008581606   0.0020981932
       -0.0835866027  -0.0211134181   0.0138249336   1.1913335715   0.2595584673
       -0.1549498091  -0.5114826978  -0.1102719669   0.0638774896  -0.5127017926
       -0.1071097918   0.0640446590  -0.0835624784  -0.0210632904   0.0132027270
       -0.0210981855   0.0043028761   0.0013023106   0.2595584673   0.1161431231
       -0.0307509025  -0.1099363412  -0.0608799633   0.0129338676  -0.1073321785
       -0.0624017895   0.0144189861  -0.0211917620   0.0028357535   0.0020957383
        0.0140825417  -0.0004113427   0.0108933797  -0.1549498091  -0.0307509025
        0.0675651403   0.0647355336   0.0106921008  -0.0413663313   0.0633948815
        0.0174270362  -0.0458897348   0.0127368524   0.0030431083   0.0087975460
        0.0150472571   0.0045213371  -0.0037436732  -0.5114826978  -0.1099363412
        0.0647355336   1.1981252617   0.2686167949  -0.1568755292  -0.0795403845
       -0.0225401592   0.0138588391  -0.6221494364  -0.1406616316   0.0820248296
        0.0046984709  -0.0031711523   0.0018383623  -0.1102719669  -0.0608799633
        0.0106921008   0.2686167949   0.0942258328  -0.0354687629  -0.0225440959
        0.0133635683   0.0021844398  -0.1404992030  -0.0435382854   0.0207538600
       -0.0037212986   0.0015874525  -0.0064990500   0.0638774896   0.0129338676
       -0.0413663313  -0.1568755292  -0.0354687629   0.0555349316   0.0143635314
        0.0010185958   0.0178476840   0.0823558068   0.0199288471  -0.0255172343
       -0.6238461715  -0.1365478017   0.0847936448  -0.5127017926  -0.1073321785
        0.0633948815  -0.0795403845  -0.0225440959   0.0143635314   1.2009077900
        0.2620320539  -0.1594970263   0.0151805586   0.0043920222  -0.0030550314
       -0.1365410883  -0.0408565405   0.0187801226  -0.1071097918  -0.0624017895
        0.0174270362  -0.0225401592   0.0133635683   0.0010185958   0.2620320539
        0.0920015352  -0.0369813221   0.0041589854  -0.0021067735  -0.0002444325
        0.0846728647   0.0200277681  -0.0252904138   0.0640446590   0.0144189861
       -0.0458897348   0.0138588391   0.0021844398   0.0178476840  -0.1594970263
       -0.0369813221   0.0581454536  -0.0030793365   0.0003501280  -0.0048129890
       -0.0028874200  -0.0009058654   0.0009926818  -0.0835624784  -0.0211917620
        0.0127368524  -0.6221494364  -0.1404992030   0.0823558068   0.0151805586
        0.0041589854  -0.0030793365   0.6934187763   0.1584378450  -0.0930060044
       -0.0011049452   0.0010135645  -0.0008581606  -0.0210632904   0.0028357535
        0.0030431083  -0.1406616316  -0.0435382854   0.0199288471   0.0043920222
       -0.0021067735   0.0003501280   0.1584378450   0.0417957408  -0.0224639229
        0.0008334793  -0.0001412430   0.0020981932   0.0132027270   0.0020957383
        0.0087975460   0.0820248296   0.0207538600  -0.0255172343  -0.0030550314
       -0.0002444325  -0.0048129890  -0.0930060044  -0.0224639229   0.0194344841
