[Molden Format]
[Title]
[Atoms] AU
C      1     6 -0.46794785027522E+01 -0.10585390525882E+01  0.63923932485239E+00
C      2     6  0.12184330877786E-02 -0.74711070004454E-02 -0.30891950895812E-02
C      3     6  0.23486922012974E+01  0.53406133500626E+00 -0.31745662926919E+00
C      4     6 -0.23479973560952E+01 -0.53857735648922E+00  0.31543656689209E+00
C      5     6  0.46775652244555E+01  0.10705261810684E+01 -0.63413195711166E+00
[GTO]
           1 0
 s           4   1.0000000000000000     
   51.049363095579913      -0.16312063210127389     
   8.7911227406887544      -0.19911024581000730     
  0.70640422258929825       0.31882047753655751     
  0.26922813413411617       0.12706504184240380     
 p           4   1.0000000000000000     
   5.8263656140800002       0.73716451545209605     
   1.5106896018720002       0.68216371614850257     
  0.53256483288000001       0.35783053929253711     
  0.21202323690600003        5.3983030275847881E-002

           2 0
 s           4   1.0000000000000000     
   51.049363095579913      -0.16312063210127389     
   8.7911227406887544      -0.19911024581000730     
  0.70640422258929825       0.31882047753655751     
  0.26922813413411617       0.12706504184240380     
 p           4   1.0000000000000000     
   5.8263656140800002       0.73716451545209605     
   1.5106896018720002       0.68216371614850257     
  0.53256483288000001       0.35783053929253711     
  0.21202323690600003        5.3983030275847881E-002

           3 0
 s           4   1.0000000000000000     
   51.049363095579913      -0.16312063210127389     
   8.7911227406887544      -0.19911024581000730     
  0.70640422258929825       0.31882047753655751     
  0.26922813413411617       0.12706504184240380     
 p           4   1.0000000000000000     
   5.8263656140800002       0.73716451545209605     
   1.5106896018720002       0.68216371614850257     
  0.53256483288000001       0.35783053929253711     
  0.21202323690600003        5.3983030275847881E-002

           4 0
 s           4   1.0000000000000000     
   51.049363095579913      -0.16312063210127389     
   8.7911227406887544      -0.19911024581000730     
  0.70640422258929825       0.31882047753655751     
  0.26922813413411617       0.12706504184240380     
 p           4   1.0000000000000000     
   5.8263656140800002       0.73716451545209605     
   1.5106896018720002       0.68216371614850257     
  0.53256483288000001       0.35783053929253711     
  0.21202323690600003        5.3983030275847881E-002

           5 0
 s           4   1.0000000000000000     
   51.049363095579913      -0.16312063210127389     
   8.7911227406887544      -0.19911024581000730     
  0.70640422258929825       0.31882047753655751     
  0.26922813413411617       0.12706504184240380     
 p           4   1.0000000000000000     
   5.8263656140800002       0.73716451545209605     
   1.5106896018720002       0.68216371614850257     
  0.53256483288000001       0.35783053929253711     
  0.21202323690600003        5.3983030275847881E-002

[MO]
Sym=     1a
Ene=  -0.69287417578502963     
Spin= Alpha
Occup=     2.00000000
           1 -0.12862882761935246     
           2  -7.0662037387723323E-002
           3  -1.5854642856857545E-002
           4   9.7228497173686822E-003
           5 -0.54631148133424445     
           6   1.8411457757135105E-004
           7  -7.0823252412557155E-004
           8  -2.9921346404221594E-004
           9 -0.34239152999043326     
          10  0.11242802971283596     
          11   2.5830403840062188E-002
          12  -1.4979452224745341E-002
          13 -0.34255862094787759     
          14 -0.11243323397905060     
          15  -2.5724910187610629E-002
          16   1.5004222158589802E-002
          17 -0.12850690673381832     
          18   7.0543631268228421E-002
          19   1.6241735527591093E-002
          20  -9.5452450180295301E-003
Sym=     2a
Ene=  -0.68018145472373626     
Spin= Alpha
Occup=     2.00000000
           1 -0.32249784772887602     
           2 -0.11320998181764655     
           3  -2.5280853221802669E-002
           4   1.5671782218648116E-002
           5   1.3298861763611194E-004
           6  0.24331547021594691     
           7   5.5456607154453448E-002
           8  -3.2964666449084960E-002
           9  0.37611094854543486     
          10   6.9538688475790839E-002
          11   1.5874971259404205E-002
          12  -9.6461447064921067E-003
          13 -0.37596835832130476     
          14   6.9684752304874836E-002
          15   1.5446093223096143E-002
          16  -9.8637156634958194E-003
          17  0.32253935571578468     
          18 -0.11309934787800910     
          19  -2.6081685269955000E-002
          20   1.5332542407921116E-002
Sym=     3a
Ene=  -0.65901204160214610     
Spin= Alpha
Occup=     2.00000000
           1  0.41476890675218864     
           2   9.2728462930574018E-002
           3   2.0634544014845553E-002
           4  -1.2918657556482291E-002
           5 -0.26279326655637769     
           6  -1.8978432239851198E-005
           7   1.2583516351949734E-004
           8   6.1737186413934387E-005
           9  0.15394076155133735     
          10  0.26226857970606199     
          11   6.0440735271863825E-002
          12  -3.5467517146722458E-002
          13  0.15391860571956814     
          14 -0.26253036084685022     
          15  -5.8844245523147279E-002
          16   3.6149002588341597E-002
          17  0.41482693880920612     
          18  -9.2621495180709251E-002
          19  -2.1344474788557787E-002
          20   1.2612350433679422E-002
Sym=     4a
Ene=  -0.61366554050551880     
Spin= Alpha
Occup=     2.00000000
           1  0.34676459372952306     
           2  -1.4067292126424685E-003
           3  -3.5228353775385089E-004
           4   1.2106845664405035E-004
           5   1.7864044113564300E-006
           6  0.40798422481921864     
           7   9.3397732238141920E-002
           8  -5.4627808009369956E-002
           9  0.16182585487971857     
          10 -0.29672543765194453     
          11  -6.8619317179003603E-002
          12   4.0069479929786107E-002
          13 -0.16178530821378262     
          14 -0.29712840433614018     
          15  -6.6323901188651849E-002
          16   4.1029906886174243E-002
          17 -0.34676509841992775     
          18  -1.4087939673357191E-003
          19  -3.7746352776048080E-004
          20   1.2161926226364116E-004
Sym=     5a
Ene=  -0.53886077618453232     
Spin= Alpha
Occup=     2.00000000
           1   2.9168806337148790E-005
           2  -4.3318713431919446E-002
           3  0.10172125262231493     
           4 -0.14880693143019877     
           5  -3.4834251568370003E-004
           6 -0.13309630420332358     
           7  0.31310088919331752     
           8 -0.45799044417000967     
           9  -2.4958907669481178E-004
          10  -9.3062861872847874E-002
          11  0.21717037500962386     
          12 -0.31780448772180253     
          13   1.5176898987582417E-004
          14  -9.2518595122125555E-002
          15  0.21732791239609028     
          16 -0.31792089572814769     
          17  -2.5206335429432241E-004
          18  -4.3620889751477696E-002
          19  0.10162702115236237     
          20 -0.14873288496073478     
Sym=     6a
Ene=  -0.53886039380201178     
Spin= Alpha
Occup=     2.00000000
           1   7.8118079760884510E-004
           2   1.8480786847278420E-002
           3 -0.14973069363260927     
           4 -0.10773255826063266     
           5   1.3510334741650976E-003
           6   6.0603284790865998E-002
           7 -0.45996093043849356     
           8 -0.33206022720513034     
           9  -1.6772407766464220E-004
          10   4.2291837389395036E-002
          11 -0.31921416068670722     
          12 -0.23051854926801241     
          13   7.9703966285672582E-004
          14   3.9914731093067389E-002
          15 -0.31979224095127423     
          16 -0.23022226943364044     
          17   1.0501619031302510E-004
          18   1.9807220052966357E-002
          19 -0.14939874928356781     
          20 -0.10789145003367966     
Sym=     7a
Ene=  -0.47088544130313065     
Spin= Alpha
Occup=     2.00000000
           1   5.8192914277605812E-003
           2   3.4217894061465035E-004
           3  0.20974763370494046     
           4  0.38133136412409030     
           5   2.3874576216810204E-003
           6  -8.0631455030058373E-005
           7  -3.9349204737267266E-005
           8  -1.8770338396847102E-005
           9  -3.4165592100459572E-003
          10  -4.3726093037404967E-003
          11 -0.22526646587692831     
          12 -0.40738283248099100     
          13  -3.3337002075968384E-003
          14   6.8473219284122238E-003
          15  0.22580907240575082     
          16  0.40700249164899671     
          17   6.2621238143869074E-003
          18   2.5316231028447312E-003
          19 -0.20906146116407770     
          20 -0.38173328429539050     
Sym=     8a
Ene=  -0.47088433662040829     
Spin= Alpha
Occup=     2.00000000
           1   1.1598336936970857E-004
           2 -0.11054367966563589     
           3  0.36886727951835746     
           4 -0.20278992122127554     
           5   1.4472551888461950E-004
           6  -2.9562202896284418E-005
           7  -3.5094417039973877E-005
           8   1.9970656208982972E-005
           9  -2.8611541420571306E-004
          10  0.12013946649979207     
          11 -0.39417983104252874     
          12  0.21668922934502469     
          13  -1.2269386530045846E-004
          14 -0.11815877005177856     
          15  0.39458283738010713     
          16 -0.21692875693697186     
          17   6.1603216554150268E-004
          18  0.11299944665237509     
          19 -0.36833758850714315     
          20  0.20247672547657999     
Sym=     9a
Ene=  -0.46369648739292635     
Spin= Alpha
Occup=     2.00000000
           1  0.45916814213343038     
           2 -0.44776079323276718     
           3 -0.10252454618849736     
           4   5.7307004910581730E-002
           5  0.19197508129498250     
           6   1.8929080512207266E-004
           7  -5.3807890176226988E-004
           8  -2.7843325168175868E-004
           9 -0.19513750884219871     
          10 -0.11469662253498859     
          11  -2.2679752602020490E-002
          12   2.0754252764401099E-002
          13 -0.19502422537977868     
          14  0.11439623833613254     
          15   2.3003979114400830E-002
          16  -2.0581036077448770E-002
          17  0.45954059568979061     
          18  0.44743282068700246     
          19  0.10686065851367957     
          20  -5.5538546179132051E-002
Sym=    10a
Ene=  -0.44715068261738855     
Spin= Alpha
Occup=     2.00000000
           1 -0.41239949776965779     
           2  0.47585935198469936     
           3  0.10542051215755216     
           4  -6.6747904241453715E-002
           5  -9.7804920569917388E-005
           6  0.19649976738930866     
           7   4.5476062191403856E-002
           8  -2.5534660309603191E-002
           9 -0.10373394366365268     
          10 -0.19541573894179201     
          11  -4.5026956777721422E-002
          12   2.6154655577878688E-002
          13  0.10390638991882378     
          14 -0.19563279763526481     
          15  -4.4219741456549243E-002
          16   2.6637934563521357E-002
          17  0.41197238924560287     
          18  0.47475491832518713     
          19  0.10929874325254907     
          20  -6.5106966353320431E-002
Sym=    11a
Ene=  -0.38913937724087172     
Spin= Alpha
Occup=     0.00000000
           1   2.6733676950934108E-004
           2  0.14668102236549663     
           3 -0.50446491672772642     
           4  0.25173483894780824     
           5  -7.0913385378473727E-004
           6 -0.14536090720371925     
           7  0.49149843043887897     
           8 -0.24520602754697948     
           9   1.0133408060306433E-004
          10   2.1299491024888779E-002
          11  -7.2547687925189688E-002
          12   3.6197041597534042E-002
          13   1.0790243433084272E-004
          14   2.1623926775435863E-002
          15  -7.2516168310216678E-002
          16   3.6171964849695253E-002
          17   1.9662194739838252E-004
          18  0.15073985285541638     
          19 -0.50357651093417344     
          20  0.25119786136849093     
Sym=    12a
Ene=  -0.38913908752969972     
Spin= Alpha
Occup=     0.00000000
           1   6.1869907560537960E-004
           2  -1.5154644572768524E-002
           3 -0.26354780629148750     
           4 -0.51931047238933215     
           5  -7.3917593748266692E-004
           6   9.2363306382402047E-003
           7  0.25579888400676698     
           8  0.50725521370271021     
           9   7.5884861042251124E-005
          10  -1.4306184217576417E-003
          11  -3.7754685503677166E-002
          12  -7.4828161921409231E-002
          13   1.4292744702549493E-004
          14  -1.0965511431181175E-003
          15  -3.7701587764082105E-002
          16  -7.4916087090352218E-002
          17  -9.2649796562600128E-005
          18  -1.0483553013561278E-002
          19 -0.26252116231628403     
          20 -0.51998613885849154     
Sym=    13a
Ene=  -0.24426312085361165     
Spin= Alpha
Occup=     0.00000000
           1  -1.6061601760888731E-004
           2  -1.9844732374512532E-002
           3 -0.23873994609019575     
           4 -0.53270616820900962     
           5   1.2827628434745289E-003
           6  -2.0207449303044547E-004
           7  -2.6568956141523011E-006
           8   1.3309218589639083E-004
           9  -1.5458977188008722E-003
          10  -1.5833261205536880E-002
          11 -0.23081435338041156     
          12 -0.51724595485159519     
          13  -1.5886711624567861E-003
          14   1.8764779936193261E-002
          15  0.23142102059787681     
          16  0.51668118805292329     
          17  -1.0375929641146229E-004
          18   1.6721223738232111E-002
          19  0.23804087220423673     
          20  0.53318034653235236     
Sym=    14a
Ene=  -0.24426213370291372     
Spin= Alpha
Occup=     0.00000000
           1   4.1635407758061267E-005
           2 -0.14705585335664254     
           3  0.51786631151871554     
           4 -0.22660363977972595     
           5  -1.9055789286460861E-004
           6   1.9818426879113682E-004
           7  -6.4889293026780705E-005
           8   2.2533507252251575E-005
           9   2.5921567856693314E-004
          10 -0.14562836350862171     
          11  0.50171679442107420     
          12 -0.21943473891923296     
          13   2.0674084623818425E-004
          14  0.14270576662786283     
          15 -0.50220575583839255     
          16  0.21974733801484395     
          17  -2.3292596864582749E-006
          18  0.15008987203475893     
          19 -0.51723106757314263     
          20  0.22622159362532043     
Sym=    15a
Ene=  -0.11681913304109905     
Spin= Alpha
Occup=     0.00000000
           1  -7.2005975446099097E-004
           2  -5.4256749591529436E-002
           3  0.34605798658310843     
           4  0.18916667724894515     
           5  -5.2308435401109687E-003
           6  -9.2359245975057042E-002
           7  0.60149277315143546     
           8  0.32831893058127554     
           9   2.4485708311654765E-003
          10   8.7109942079766425E-002
          11 -0.56708228007172290     
          12 -0.30955195795717699     
          13   4.9936024499146600E-003
          14   8.6437275645446288E-002
          15 -0.56738243899683483     
          16 -0.30951564855682473     
          17  -3.3561452749712191E-004
          18  -5.2535371681811875E-002
          19  0.34628970708892665     
          20  0.18886206122692151     
Sym=    16a
Ene=  -0.11681196113892828     
Spin= Alpha
Occup=     0.00000000
           1   6.1514282421774288E-005
           2  -8.7018355005760009E-002
           3  0.17574358444237609     
           4 -0.34645145889330425     
           5  -5.4713030529962450E-004
           6 -0.15124119360004401     
           7  0.30523492122998758     
           8 -0.60175723421831617     
           9   1.0769614256230364E-003
          10  0.14279480060171379     
          11 -0.28771752517413168     
          12  0.56728527803521944     
          13  -3.8737011023463219E-004
          14  0.14277799070797562     
          15 -0.28781756925962537     
          16  0.56746091932169729     
          17  -1.5980707337275702E-004
          18  -8.6817185713397887E-002
          19  0.17569621906142469     
          20 -0.34630665497940999     
Sym=    17a
Ene=    8.9307577817861722E-002
Spin= Alpha
Occup=     0.00000000
           1 -0.19372021129625658     
           2 -0.40804344634288425     
           3  -9.3302095533424265E-002
           4   5.5078283371790458E-002
           5 -0.89671597008294779     
           6   8.4420193972017585E-004
           7  -5.7353579173575189E-003
           8  -2.3537967503871049E-003
           9  0.75571610851460791     
          10 -0.21516004129681193     
          11  -4.6794430784811165E-002
          12   2.8769504460023004E-002
          13  0.75540230126177677     
          14  0.21416288563681088     
          15   5.3216794012379255E-002
          16  -2.5989759554495187E-002
          17 -0.19385166457903302     
          18  0.40832092622344651     
          19   9.2903541596249278E-002
          20  -5.5304816798039003E-002
Sym=    18a
Ene=   0.45809232453562976     
Spin= Alpha
Occup=     0.00000000
           1  0.43964826550549990     
           2  0.58861258369403580     
           3  0.13154945943676069     
           4  -8.1287307377145124E-002
           5   3.4348092329387469E-004
           6 -0.63738915273738417     
           7 -0.14478834288154208     
           8   8.7118521574103047E-002
           9  0.87388294012885848     
          10  0.22233096561823845     
          11   5.0288792587303011E-002
          12  -3.1670613143286203E-002
          13 -0.87416587268584223     
          14  0.22217800512901373     
          15   4.8575705736312688E-002
          16  -3.2412997113960673E-002
          17 -0.43971241421741908     
          18  0.58794126626570831     
          19  0.13572484057719611     
          20  -7.9511580489945458E-002
Sym=    19a
Ene=   0.94748295580902187     
Spin= Alpha
Occup=     0.00000000
           1  0.58421778079198039     
           2  0.59951053623876072     
           3  0.13328785027730225     
           4  -8.3632405039097926E-002
           5 -0.83047609497847807     
           6  -2.3572841324019384E-004
           7  -1.5890520204768961E-003
           8  -4.8539844760674654E-004
           9 -0.26038946781071504     
          10 -0.93855420890937813     
          11 -0.21594759489263607     
          12  0.12695887846784479     
          13 -0.26096055137263363     
          14  0.93888690413413867     
          15  0.21094146080626452     
          16 -0.12900599161254908     
          17  0.58424117095917394     
          18 -0.59872400063557529     
          19 -0.13798455002048002     
          20   8.1590821852907475E-002
Sym=    20a
Ene=    1.4162599354586205     
Spin= Alpha
Occup=     0.00000000
           1 -0.45561534952266969     
           2 -0.40417292304823371     
           3  -8.9856081436767404E-002
           4   5.6546147997094620E-002
           5   3.2389577164103963E-004
           6  -1.2908248575582204     
           7 -0.29510615436932069     
           8  0.17346058161689967     
           9  0.32250654121700073     
          10  -1.0472885563597853     
          11 -0.24210142846119675     
          12  0.14084880604985933     
          13 -0.32235325910930718     
          14  -1.0491313394341100     
          15 -0.23532042586747301     
          16  0.14379654539370507     
          17  0.45518619625148854     
          18 -0.40330387239218002     
          19  -9.2702780064306461E-002
          20   5.5186181844408239E-002
