 Entering Gaussian System
 *********************************************
 Gaussian 98:
 frequency output generated by the xtb code
 *********************************************
                         Standard orientation:
 --------------------------------------------------------------------
  Center     Atomic     Atomic              Coordinates (Angstroms)
  Number     Number      Type              X           Y           Z
 --------------------------------------------------------------------
    1          6             0       -2.476274   -0.560155    0.338271
    2          6             0        0.000645   -0.003954   -0.001635
    3          6             0        1.242875    0.282613   -0.167991
    4          6             0       -1.242507   -0.285003    0.166922
    5          6             0        2.475261    0.566498   -0.335568
 --------------------------------------------------------------------
     1 basis functions        1 primitive gaussians
     1 alpha electrons        1 beta electrons

 Harmonic frequencies (cm**-1), IR intensities (KM/Mole),
 Raman scattering activities (A**4/amu), Raman depolarization ratios,
 reduced masses (AMU), force constants (mDyne/A) and normal coordinates:
                      1                      2                      3
                        a                      a                      a 
 Frequencies --   102.6253               202.6280               212.4974
 Red. masses --    12.0107                12.0107                12.0107
 Frc consts  --     0.0000                 0.0000                 0.0000
 IR Inten    --     0.5065                 0.1793                 0.0046
 Raman Activ --     0.0000                 0.0000                 0.0000
 Depolar     --     0.0000                 0.0000                 0.0000
 Atom AN      X      Y      Z        X      Y      Z        X      Y      Z
   1   6    -0.08   0.49   0.21     0.04  -0.18  -0.02    -0.00  -0.17  -0.27
   2   6     0.08  -0.48  -0.21     0.04  -0.06   0.16     0.00  -0.00  -0.00
   3   6     0.04  -0.24  -0.10     0.17  -0.52   0.40     0.01  -0.34  -0.53
   4   6     0.04  -0.25  -0.11    -0.13   0.45  -0.22    -0.00   0.34   0.53
   5   6    -0.09   0.49   0.21    -0.12   0.31  -0.32    -0.00   0.17   0.27
                      4                      5                      6
                        a                      a                      a 
 Frequencies --   486.9725               491.9144               821.8641
 Red. masses --    12.0107                12.0107                12.0107
 Frc consts  --     0.0000                 0.0000                 0.0000
 IR Inten    --     0.1337                 0.1872                 0.0016
 Raman Activ --     0.0000                 0.0000                 0.0000
 Depolar     --     0.0000                 0.0000                 0.0000
 Atom AN      X      Y      Z        X      Y      Z        X      Y      Z
   1   6     0.04  -0.08   0.18    -0.02   0.11   0.04    -0.58  -0.13   0.08
   2   6     0.12  -0.19   0.60    -0.12   0.67   0.24     0.00  -0.00  -0.00
   3   6    -0.09   0.13  -0.45     0.08  -0.44  -0.16     0.37   0.09  -0.05
   4   6    -0.11   0.19  -0.49     0.08  -0.44  -0.16    -0.37  -0.09   0.05
   5   6     0.03  -0.05   0.16    -0.02   0.11   0.04     0.57   0.13  -0.08
                      7                      8                      9
                        a                      a                      a 
 Frequencies --  1551.1845              1993.8652              2155.5904
 Red. masses --    12.0107                12.0107                12.0107
 Frc consts  --     0.0000                 0.0000                 0.0000
 IR Inten    --     0.1221                 0.0049                 2.7783
 Raman Activ --     0.0000                 0.0000                 0.0000
 Depolar     --     0.0000                 0.0000                 0.0000
 Atom AN      X      Y      Z        X      Y      Z        X      Y      Z
   1   6    -0.49  -0.11   0.07     0.37   0.08  -0.05    -0.20  -0.04   0.03
   2   6     0.62   0.14  -0.08    -0.00  -0.00  -0.00    -0.60  -0.14   0.08
   3   6     0.18   0.04  -0.03     0.58   0.13  -0.08     0.50   0.11  -0.07
   4   6     0.18   0.04  -0.03    -0.57  -0.13   0.08     0.50   0.11  -0.07
   5   6    -0.49  -0.11   0.07    -0.37  -0.09   0.05    -0.19  -0.04   0.03
