4
 energy: -9.042349664712 gnorm: 0.000618722247 xtb: 6.2.2 (9d81278992624c895f80dd42a50cac0aa55982e2)
N         1.57135905999257   -0.03512632827293    0.04147213284258
C         0.41883970998248   -0.00937843612266    0.01160568852376
C        -0.98142386045688    0.65321008207594   -0.01040161997811
C        -1.00877490952166   -0.60870531768210   -0.04267720138822
