 Entering Gaussian System
 *********************************************
 Gaussian 98:
 frequency output generated by the xtb code
 *********************************************
                         Standard orientation:
 --------------------------------------------------------------------
  Center     Atomic     Atomic              Coordinates (Angstroms)
  Number     Number      Type              X           Y           Z
 --------------------------------------------------------------------
    1          6             0       -1.164176    1.121287    0.369884
    2          6             0       -0.562694    0.020287    0.042428
    3          6             0        0.848246   -0.064025   -0.075296
    4          7             0        1.984604   -0.164375   -0.178319
    5          1             0       -1.105979   -0.913174   -0.158698
 --------------------------------------------------------------------
     1 basis functions        1 primitive gaussians
     1 alpha electrons        1 beta electrons

 Harmonic frequencies (cm**-1), IR intensities (KM/Mole),
 Raman scattering activities (A**4/amu), Raman depolarization ratios,
 reduced masses (AMU), force constants (mDyne/A) and normal coordinates:
                      1                      2                      3
                        a                      a                      a 
 Frequencies --   195.2550               338.3390               555.9618
 Red. masses --    12.1549                10.4750                12.0399
 Frc consts  --     0.0000                 0.0000                 0.0000
 IR Inten    --     0.2880                 0.2676                 0.1770
 Raman Activ --     0.0000                 0.0000                 0.0000
 Depolar     --     0.0000                 0.0000                 0.0000
 Atom AN      X      Y      Z        X      Y      Z        X      Y      Z
   1   6     0.59   0.13  -0.01     0.01  -0.03   0.12    -0.42   0.10   0.05
   2   6    -0.20  -0.29  -0.06     0.00  -0.01   0.04     0.05   0.35   0.10
   3   6    -0.21  -0.38  -0.08    -0.05   0.20  -0.75     0.11  -0.71  -0.20
   4   7    -0.12   0.49   0.14     0.03  -0.11   0.43     0.24   0.21   0.04
   5   1    -0.19  -0.00   0.01     0.03  -0.10   0.41    -0.04   0.12   0.02
                      4                      5                      6
                        a                      a                      a 
 Frequencies --   575.2544               952.3246              1143.1678
 Red. masses --     6.6905                11.0075                 3.2451
 Frc consts  --     0.0000                 0.0000                 0.0000
 IR Inten    --     0.1330                 0.1027                 0.0403
 Raman Activ --     0.0000                 0.0000                 0.0000
 Depolar     --     0.0000                 0.0000                 0.0000
 Atom AN      X      Y      Z        X      Y      Z        X      Y      Z
   1   6     0.01  -0.04   0.17    -0.09   0.15   0.05     0.05   0.20   0.05
   2   6    -0.04   0.16  -0.59    -0.65  -0.22  -0.01    -0.37   0.02   0.03
   3   6     0.02  -0.09   0.31     0.34   0.14   0.01     0.03  -0.10  -0.03
   4   7    -0.00   0.02  -0.08     0.47  -0.08  -0.05     0.07   0.01  -0.00
   5   1     0.05  -0.17   0.67    -0.36   0.05   0.04     0.75  -0.46  -0.17
                      7                      8                      9
                        a                      a                      a 
 Frequencies --  1647.1216              2343.7864              2780.7346
 Red. masses --    11.9380                12.8123                 1.7242
 Frc consts  --     0.0000                 0.0000                 0.0000
 IR Inten    --     0.1875                 1.1740                 0.0494
 Raman Activ --     0.0000                 0.0000                 0.0000
 Depolar     --     0.0000                 0.0000                 0.0000
 Atom AN      X      Y      Z        X      Y      Z        X      Y      Z
   1   6     0.33  -0.60  -0.18    -0.02   0.03   0.01     0.00  -0.02  -0.00
   2   6    -0.36   0.57   0.17    -0.06  -0.04  -0.01    -0.13  -0.21  -0.04
   3   6     0.04   0.00  -0.00     0.76  -0.06  -0.07    -0.02  -0.01  -0.00
   4   7    -0.00   0.00  -0.00    -0.63   0.05   0.06     0.01  -0.00  -0.00
   5   1     0.00   0.08   0.02    -0.01   0.02   0.00     0.49   0.82   0.18
