      -----------------------------------------------------------      
     |                   =====================                   |     
     |                           x T B                           |     
     |                   =====================                   |     
     |                         S. Grimme                         |     
     |          Mulliken Center for Theoretical Chemistry        |     
     |                    University of Bonn                     |     
      -----------------------------------------------------------      

   * xtb version 6.2.2 (9d81278992624c895f80dd42a50cac0aa55982e2) compiled by '@Darwin' on 04/03/2020

   xtb is free software: you can redistribute it and/or modify it under
   the terms of the GNU Lesser General Public License as published by
   the Free Software Foundation, either version 3 of the License, or
   (at your option) any later version.
   
   xtb is distributed in the hope that it will be useful,
   but WITHOUT ANY WARRANTY; without even the implied warranty of
   MERCHANTABILITY or FITNESS FOR A PARTICULAR PURPOSE.  See the
   GNU Lesser General Public License for more details.
   
   Cite this work as:
   * S. Grimme, C. Bannwarth, P. Shushkov, J. Chem. Theory Comput., 2017,
     13, 1989-2009. DOI: 10.1021/acs.jctc.7b00118
   * C. Bannwarth, S. Ehlert and S. Grimme., J. Chem. Theory Comput., 2019,
     15, 1652-1671. DOI: 10.1021/acs.jctc.8b01176
   * P. Pracht, E. Caldeweyher, S. Ehlert, S. Grimme, ChemRxiv, 2019, preprint.
     DOI: 10.26434/chemrxiv.8326202.v1
   
   for DFT-D4:
   * E. Caldeweyher, C. Bannwarth and S. Grimme, J. Chem. Phys., 2017,
     147, 034112. DOI: 10.1063/1.4993215
   * E. Caldeweyher, S. Ehlert, A. Hansen, H. Neugebauer, S. Spicher,
     C. Bannwarth and S. Grimme, J. Chem. Phys., 2019, 150, 154122.
     DOI: 10.1063/1.5090222
   
   for sTDA-xTB:
   * S. Grimme and C. Bannwarth, J. Chem. Phys., 2016, 145, 054103.
     DOI: 10.1063/1.4959605
   
   in the mass-spec context:
   * V. Asgeirsson, C. Bauer and S. Grimme, Chem. Sci., 2017, 8, 4879.
     DOI: 10.1039/c7sc00601b
   
   for metadynamics refer to:
   * S. Grimme, J. Chem. Theory Comput., 2019, 155, 2847-2862
     DOI: 10.1021/acs.jctc.9b00143
   
   with help from (in alphabetical order)
   C. Bannwarth, F. Bohle, G. Brandenburg, E. Caldeweyher, M. Checinski,
   S. Dohm, S. Ehlert, S. Ehrlich, F. März, H. Neugebauer, J. Pisarek,
   P. Pracht, P. Shushkov, and S. Spicher.
   
 * started run on 2020/05/12 at 11:44:52.595     

           -------------------------------------------------
          |                Calculation Setup                |
           -------------------------------------------------

          program call               : xtb --input H1C3N1_6_S_2.input H1C3N1_6_S_2.xyz --ohess --molden --namespace H1C3N1_6_S_2 output.out
          calculation namespace      : H1C3N1_6_S_2
          coordinate file            : H1C3N1_6_S_2.xyz
          number of atoms            :                     5
          number of electrons        :                    18
          charge                     :                     0
          spin                       :                   1.0
          first test random number   :      0.14154953214296

   ID    Z sym.   atoms
    1    6 C      1-3
    2    7 N      4
    3    1 H      5

           -------------------------------------------------
          |                 G F N 2 - x T B                 |
           -------------------------------------------------

        Reference                      10.1021/acs.jctc.8b01176
      * Hamiltonian:
        H0-scaling (s, p, d)           1.850000    2.230000    2.230000
        zeta-weighting                 0.500000
      * Dispersion:
        s8                             2.700000
        a1                             0.520000
        a2                             5.000000
        s9                             5.000000
      * Repulsion:
        kExp                           1.500000    1.000000
        rExp                           1.000000
      * Coulomb:
        alpha                          2.000000
        third order                    shell-resolved
        anisotropic                    true
        a3                             3.000000
        a5                             4.000000
        cn-shift                       1.200000
        cn-exp                         4.000000
        max-rad                        5.000000


          ...................................................
          :                      SETUP                      :
          :.................................................:
          :  # basis functions                  17          :
          :  # atomic orbitals                  17          :
          :  # shells                            9          :
          :  # electrons                        18          :
          :  max. iterations                   250          :
          :  Hamiltonian                  GFN2-xTB          :
          :  restarted?                      false          :
          :  GBSA solvation                  false          :
          :  PC potential                    false          :
          :  electronic temp.          300.0000000     K    :
          :  accuracy                    1.0000000          :
          :  -> integral cutoff          0.2500000E+02      :
          :  -> integral neglect         0.1000000E-07      :
          :  -> SCF convergence          0.1000000E-05 Eh   :
          :  -> wf. convergence          0.1000000E-03 e    :
          :  Broyden damping             0.4000000          :
          ...................................................

 iter      E             dE          RMSdq      gap      omega  full diag
   1     -9.2706734 -0.927067E+01  0.103E+01    0.77       0.0  T
   2     -8.7333494  0.537324E+00  0.123E+01    0.90       1.0  T
   3     -9.4045400 -0.671191E+00  0.495E+00    0.85       1.0  T
   4     -8.7920371  0.612503E+00  0.774E+00    1.29       1.0  T
   5     -9.4074277 -0.615391E+00  0.176E+00    0.85       1.0  T
   6     -9.4033087  0.411895E-02  0.221E+00    0.84       1.0  T
   7     -9.4248273 -0.215186E-01  0.139E+00    0.81       1.0  T
   8     -9.4347484 -0.992107E-02  0.668E-01    0.79       1.0  T
   9     -9.4375757 -0.282731E-02  0.309E-01    0.79       1.0  T
  10     -9.4379924 -0.416697E-03  0.187E-01    0.79       1.0  T
  11     -9.4382084 -0.215956E-03  0.299E-02    0.79       1.5  T
  12     -9.4382115 -0.314134E-05  0.915E-03    0.79       4.9  T
  13     -9.4382120 -0.447914E-06  0.240E-03    0.79      18.7  T
  14     -9.4382120 -0.192412E-07  0.938E-04    0.79      47.7  T
  15     -9.4382120 -0.449870E-08  0.213E-04    0.79     209.5  T

   *** convergence criteria satisfied after 15 iterations ***

         #    Occupation            Energy/Eh            Energy/eV
      -------------------------------------------------------------
         1        2.0000           -0.6862297             -18.6733
       ...           ...                  ...                  ...
         4        2.0000           -0.5736220             -15.6091
         5        2.0000           -0.5089087             -13.8481
         6        2.0000           -0.4997259             -13.5982
         7        2.0000           -0.4889816             -13.3059
         8        2.0000           -0.4578772             -12.4595
         9        1.0000           -0.4362505             -11.8710
        10        1.0000           -0.4021825             -10.9439 (HOMO)
        11        0.0000           -0.3732247             -10.1560 (LUMO)
        12                         -0.3407713              -9.2729
        13                         -0.3328643              -9.0577
        14                          0.0423455               1.1523
        15                          0.0709158               1.9297
       ...                                ...                  ...
        17                          0.1306764               3.5559
      -------------------------------------------------------------
                  HL-Gap            0.0289578 Eh            0.7880 eV
             Fermi-level           -0.4173837 Eh          -11.3576 eV

 transition dipole moment (au) for excitation:           9          10
     X       Y       Z   
  -0.4731   0.0407   0.4389  total (au/Debye):    0.647   1.644
 dE (eV)             :    0.927
 oscillator strength :  0.13431E-01

 SCC (total)                   0 d,  0 h,  0 min,  0.004 sec
 SCC setup                      ...        0 min,  0.000 sec (  1.684%)
 Dispersion                     ...        0 min,  0.000 sec (  0.342%)
 integral evaluation            ...        0 min,  0.001 sec ( 23.623%)
 zeroth order Hamiltonian       ...        0 min,  0.000 sec (  0.478%)
 iterations                     ...        0 min,  0.001 sec ( 32.303%)
 molecular gradient             ...        0 min,  0.001 sec ( 23.123%)
 printout                       ...        0 min,  0.001 sec ( 18.246%)

         :::::::::::::::::::::::::::::::::::::::::::::::::::::
         ::                     SUMMARY                     ::
         :::::::::::::::::::::::::::::::::::::::::::::::::::::
         :: total energy              -9.384006530214 Eh    ::
         :: gradient norm              0.325965171636 Eh/a0 ::
         :: HOMO-LUMO gap              0.787983127149 eV    ::
         ::.................................................::
         :: SCC energy                -9.438211989073 Eh    ::
         :: -> isotropic ES           -0.011030502601 Eh    ::
         :: -> anisotropic ES         -0.000636506833 Eh    ::
         :: -> anisotropic XC          0.016074300605 Eh    ::
         :: -> dispersion             -0.002169720749 Eh    ::
         :: repulsion energy           0.054205341202 Eh    ::
         :: add. restraining           0.000000000000 Eh    ::
         :::::::::::::::::::::::::::::::::::::::::::::::::::::

      ----------------------------------------------------------- 
     |                   =====================                   |
     |                        A N C O P T                        |
     |                   =====================                   |
     |               Approximate Normal Coordinate               |
     |                Rational Function Optimizer                |
      ----------------------------------------------------------- 

          ...................................................
          :                      SETUP                      :
          :.................................................:
          :   optimization level            normal          :
          :   max. optcycles                   200          :
          :   ANC micro-cycles                  20          :
          :   degrees of freedom                 9          :
          :.................................................:
          :   RF solver                   davidson          :
          :   write xtbopt.log                true          :
          :   linear?                        false          :
          :   energy convergence         0.5000000E-05 Eh   :
          :   grad. convergence          0.1000000E-02 Eh/α :
          :   maximium RF displ.         1.0000000          :
          :   Hlow (freq-cutoff)         0.1000000E-01      :
          :   Hmax (freq-cutoff)         5.0000000          :
          :   S6 in model hess.         20.0000000          :
          ...................................................

generating ANC from model Hessian ...
Using Lindh-Hessian (1995)
 Shifting diagonal of input Hessian by    1.0358181734795840E-003
 Lowest  eigenvalues of input Hessian
   -0.000000   -0.000000   -0.000000   -0.000000    0.000000    0.000000
    0.010000    0.028012    0.071245    0.090050    0.126944    0.524240
    0.890861    0.978515    1.116568
 Highest eigenvalues
    0.090050    0.126944    0.524240    0.890861    0.978515    1.116568


........................................................................
.............................. CYCLE    1 ..............................
........................................................................
   1     -9.4382120 -0.943821E+01  0.104E-04    0.79       0.0  T
   2     -9.4382120  0.169139E-08  0.433E-04    0.79     103.4  T
   3     -9.4382120 -0.159487E-08  0.136E-04    0.79     329.7  T
     SCC iter.                  ...        0 min,  0.000 sec
     gradient                   ...        0 min,  0.001 sec
 * total energy  :    -9.3840065 Eh     change       -0.3277734E-10 Eh
   gradient norm :     0.3259650 Eh/α   predicted     0.0000000E+00 (-100.00%)
   displ. norm   :     0.3983859 α      lambda       -0.1176578E+00
   maximum displ.:     0.2710397 α      in ANC's #6, #9, #7, ...

........................................................................
.............................. CYCLE    2 ..............................
........................................................................
   1     -9.5367242 -0.953672E+01  0.317E+00    1.48       0.0  T
   2     -8.9504764  0.586248E+00  0.810E+00    1.51       1.0  T
   3     -9.5903050 -0.639829E+00  0.146E+00    1.12       1.0  T
   4     -9.5812306  0.907437E-02  0.135E+00    1.16       1.0  T
   5     -9.5908803 -0.964963E-02  0.665E-01    1.09       1.0  T
   6     -9.5921428 -0.126256E-02  0.370E-01    1.07       1.0  T
   7     -9.5927901 -0.647250E-03  0.114E-01    1.08       1.0  T
   8     -9.5928034 -0.133795E-04  0.284E-02    1.08       1.6  T
   9     -9.5928049 -0.150546E-05  0.132E-02    1.08       3.4  T
  10     -9.5928052 -0.278383E-06  0.369E-03    1.08      12.1  T
  11     -9.5928052 -0.120449E-07  0.915E-04    1.08      48.9  T
  12     -9.5928052 -0.191673E-08  0.311E-04    1.08     143.7  T
     SCC iter.                  ...        0 min,  0.001 sec
     gradient                   ...        0 min,  0.001 sec
 * total energy  :    -9.4800349 Eh     change       -0.9602842E-01 Eh
   gradient norm :     0.1836970 Eh/α   predicted    -0.6816574E-01 ( -29.02%)
   displ. norm   :     0.4282664 α      lambda       -0.7000577E-01
   maximum displ.:     0.2295584 α      in ANC's #6, #9, #7, ...

........................................................................
.............................. CYCLE    3 ..............................
........................................................................
   1     -9.7568797 -0.975688E+01  0.386E+00    2.21       0.0  T
   2     -9.7517344  0.514529E-02  0.284E+00    2.04       1.0  T
   3     -9.4775721  0.274162E+00  0.586E+00    2.62       1.0  T
   4     -9.7539332 -0.276361E+00  0.135E+00    2.13       1.0  T
   5     -9.7590983 -0.516503E-02  0.631E-01    2.15       1.0  T
   6     -9.7602209 -0.112264E-02  0.307E-01    2.19       1.0  T
   7     -9.7602006  0.202746E-04  0.211E-01    2.21       1.0  T
   8     -9.7602332 -0.325974E-04  0.124E-01    2.20       1.0  T
   9     -9.7602988 -0.655711E-04  0.227E-02    2.20       2.0  T
  10     -9.7602955  0.328841E-05  0.282E-02    2.20       1.6  T
  11     -9.7602993 -0.373470E-05  0.310E-03    2.20      14.4  T
  12     -9.7602993 -0.458454E-08  0.150E-03    2.20      29.8  T
  13     -9.7602993 -0.660137E-08  0.106E-03    2.20      42.3  T
  14     -9.7602993 -0.391815E-08  0.124E-04    2.20     361.4  T
  15     -9.7602993  0.321965E-10  0.129E-04    2.20     345.6  T
     SCC iter.                  ...        0 min,  0.001 sec
     gradient                   ...        0 min,  0.001 sec
 * total energy  :    -9.4851042 Eh     change       -0.5069274E-02 Eh
   gradient norm :     0.4168097 Eh/α   predicted    -0.4142283E-01 ( 717.14%)
   displ. norm   :     0.4889535 α      lambda       -0.9440890E-01
   maximum displ.:     0.3925700 α      in ANC's #2, #5, #6, ...

........................................................................
.............................. CYCLE    4 ..............................
........................................................................
   1     -9.6985827 -0.969858E+01  0.200E+00    1.55       0.0  T
   2     -9.4669418  0.231641E+00  0.584E+00    2.03       1.0  T
   3     -9.7048145 -0.237873E+00  0.112E+00    1.82       1.0  T
   4     -9.7015920  0.322252E-02  0.970E-01    1.70       1.0  T
   5     -9.7057506 -0.415862E-02  0.296E-01    1.77       1.0  T
   6     -9.7062693 -0.518769E-03  0.153E-01    1.79       1.0  T
   7     -9.7062934 -0.240846E-04  0.866E-02    1.79       1.0  T
   8     -9.7062890  0.439311E-05  0.650E-02    1.79       1.0  T
   9     -9.7062912 -0.220858E-05  0.591E-02    1.79       1.0  T
  10     -9.7062964 -0.511796E-05  0.451E-02    1.79       1.0  T
  11     -9.7063006 -0.425989E-05  0.338E-02    1.79       1.3  T
  12     -9.7063027 -0.212319E-05  0.262E-02    1.79       1.7  T
  13     -9.7063056 -0.281814E-05  0.937E-03    1.79       4.8  T
  14     -9.7063059 -0.363158E-06  0.336E-03    1.79      13.3  T
  15     -9.7063060 -0.517196E-07  0.624E-04    1.79      71.6  T
  16     -9.7063060 -0.182434E-08  0.324E-05    1.79    1378.5  T
     SCC iter.                  ...        0 min,  0.001 sec
     gradient                   ...        0 min,  0.001 sec
 * total energy  :    -9.5227182 Eh     change       -0.3761393E-01 Eh
   gradient norm :     0.1537380 Eh/α   predicted    -0.5848985E-01 (  55.50%)
   displ. norm   :     0.5878988 α      lambda       -0.2259049E-01
   maximum displ.:     0.4406770 α      in ANC's #1, #2, #3, ...

........................................................................
.............................. CYCLE    5 ..............................
........................................................................
   1     -9.6608134 -0.966081E+01  0.235E+00    1.46       0.0  T
   2     -9.6377188  0.230946E-01  0.215E+00    0.97       1.0  T
   3     -9.6471552 -0.943635E-02  0.180E+00    1.54       1.0  T
   4     -9.6686893 -0.215341E-01  0.638E-01    1.30       1.0  T
   5     -9.6701500 -0.146077E-02  0.353E-01    1.34       1.0  T
   6     -9.6701462  0.383765E-05  0.268E-01    1.33       1.0  T
   7     -9.6702650 -0.118840E-03  0.186E-01    1.37       1.0  T
   8     -9.6704000 -0.134949E-03  0.833E-02    1.35       1.0  T
   9     -9.6704185 -0.185135E-04  0.114E-02    1.35       3.9  T
  10     -9.6704191 -0.638101E-06  0.184E-03    1.35      24.3  T
  11     -9.6704191 -0.559945E-09  0.171E-03    1.35      26.2  T
  12     -9.6704192 -0.122008E-07  0.254E-04    1.35     176.3  T
  13     -9.6704192 -0.185324E-09  0.271E-05    1.35    1647.7  T
     SCC iter.                  ...        0 min,  0.001 sec
     gradient                   ...        0 min,  0.001 sec
 * total energy  :    -9.5265224 Eh     change       -0.3804263E-02 Eh
   gradient norm :     0.1916979 Eh/α   predicted    -0.1519918E-01 ( 299.53%)
   displ. norm   :     0.3583524 α      lambda       -0.2854580E-01
   maximum displ.:     0.3082538 α      in ANC's #1, #2, #9, ...

........................................................................
.............................. CYCLE    6 ..............................
........................................................................
   1     -9.7301790 -0.973018E+01  0.127E+00    1.82       0.0  T
   2     -9.7287973  0.138171E-02  0.935E-01    1.64       1.0  T
   3     -9.7260860  0.271127E-02  0.906E-01    1.86       1.0  T
   4     -9.7314935 -0.540753E-02  0.123E-01    1.72       1.0  T
   5     -9.7315575 -0.640107E-04  0.627E-02    1.73       1.0  T
   6     -9.7315656 -0.805554E-05  0.340E-02    1.73       1.3  T
   7     -9.7315615  0.410689E-05  0.257E-02    1.74       1.7  T
   8     -9.7315659 -0.440005E-05  0.709E-03    1.73       6.3  T
   9     -9.7315660 -0.133418E-06  0.200E-03    1.73      22.4  T
  10     -9.7315660 -0.175759E-07  0.244E-04    1.73     183.0  T
  11     -9.7315660 -0.159737E-09  0.735E-05    1.73     608.4  T
     SCC iter.                  ...        0 min,  0.001 sec
     gradient                   ...        0 min,  0.001 sec
 * total energy  :    -9.5376482 Eh     change       -0.1112583E-01 Eh
   gradient norm :     0.0787225 Eh/α   predicted    -0.1610578E-01 (  44.76%)
   displ. norm   :     0.3357330 α      lambda       -0.1765923E-01
   maximum displ.:     0.2455234 α      in ANC's #5, #6, #9, ...

........................................................................
.............................. CYCLE    7 ..............................
........................................................................
   1     -9.7477382 -0.974774E+01  0.135E+00    1.67       0.0  T
   2     -9.7480751 -0.336911E-03  0.828E-01    1.75       1.0  T
   3     -9.7473947  0.680413E-03  0.309E-01    1.67       1.0  T
   4     -9.7480077 -0.612956E-03  0.201E-01    1.77       1.0  T
   5     -9.7481986 -0.190966E-03  0.464E-02    1.75       1.0  T
   6     -9.7481981  0.516939E-06  0.207E-02    1.75       2.2  T
   7     -9.7482001 -0.196421E-05  0.816E-03    1.74       5.5  T
   8     -9.7482003 -0.239545E-06  0.364E-03    1.75      12.3  T
   9     -9.7482003 -0.287444E-07  0.794E-04    1.75      56.3  T
  10     -9.7482004 -0.181580E-08  0.910E-05    1.75     491.5  T
     SCC iter.                  ...        0 min,  0.001 sec
     gradient                   ...        0 min,  0.001 sec
 * total energy  :    -9.5352084 Eh     change        0.2439873E-02 Eh
   gradient norm :     0.1766764 Eh/α   predicted    -0.9824853E-02 (-502.68%)
   displ. norm   :     0.1805341 α      lambda       -0.2006650E-01
   maximum displ.:     0.1214272 α      in ANC's #4, #5, #8, ...

........................................................................
.............................. CYCLE    8 ..............................
........................................................................
   1     -9.7376615 -0.973766E+01  0.647E-01    1.65       0.0  T
   2     -9.7376405  0.209739E-04  0.407E-01    1.67       1.0  T
   3     -9.7370346  0.605875E-03  0.415E-01    1.60       1.0  T
   4     -9.7377512 -0.716593E-03  0.108E-01    1.67       1.0  T
   5     -9.7378621 -0.110858E-03  0.330E-02    1.64       1.4  T
   6     -9.7378632 -0.106243E-05  0.246E-02    1.64       1.8  T
   7     -9.7378653 -0.215502E-05  0.598E-03    1.64       7.5  T
   8     -9.7378654 -0.750648E-07  0.215E-03    1.64      20.8  T
   9     -9.7378654 -0.112680E-07  0.654E-04    1.64      68.4  T
  10     -9.7378654 -0.122934E-08  0.422E-05    1.64    1059.4  T
     SCC iter.                  ...        0 min,  0.001 sec
     gradient                   ...        0 min,  0.001 sec
 * total energy  :    -9.5451157 Eh     change       -0.9907374E-02 Eh
   gradient norm :     0.0396973 Eh/α   predicted    -0.1036025E-01 (   4.57%)
   displ. norm   :     0.1102748 α      lambda       -0.2461512E-02
   maximum displ.:     0.0817866 α      in ANC's #1, #6, #9, ...

........................................................................
.............................. CYCLE    9 ..............................
........................................................................
   1     -9.7541335 -0.975413E+01  0.398E-01    1.66       0.0  T
   2     -9.7540892  0.443047E-04  0.261E-01    1.62       1.0  T
   3     -9.7535734  0.515741E-03  0.286E-01    1.69       1.0  T
   4     -9.7542156 -0.642146E-03  0.488E-02    1.64       1.0  T
   5     -9.7542223 -0.676513E-05  0.181E-02    1.64       2.5  T
   6     -9.7542232 -0.896250E-06  0.807E-03    1.64       5.5  T
   7     -9.7542233 -0.116987E-06  0.157E-03    1.64      28.4  T
   8     -9.7542233 -0.886537E-08  0.361E-04    1.64     123.8  T
   9     -9.7542233 -0.414749E-09  0.129E-04    1.64     345.6  T
     SCC iter.                  ...        0 min,  0.001 sec
     gradient                   ...        0 min,  0.001 sec
 * total energy  :    -9.5463815 Eh     change       -0.1265727E-02 Eh
   gradient norm :     0.0218302 Eh/α   predicted    -0.1245722E-02 (  -1.58%)
   displ. norm   :     0.4652062 α      lambda       -0.6757939E-02
   maximum displ.:     0.3417526 α      in ANC's #2, #6, #9, ...

........................................................................
.............................. CYCLE   10 ..............................
........................................................................
   1     -9.7204293 -0.972043E+01  0.161E+00    1.33       0.0  T
   2     -9.7205326 -0.103303E-03  0.924E-01    1.31       1.0  T
   3     -9.7192206  0.131200E-02  0.393E-01    1.39       1.0  T
   4     -9.7205855 -0.136484E-02  0.106E-01    1.31       1.0  T
   5     -9.7206208 -0.353010E-04  0.595E-02    1.32       1.0  T
   6     -9.7206247 -0.392088E-05  0.269E-02    1.32       1.7  T
   7     -9.7206291 -0.441394E-05  0.628E-03    1.32       7.1  T
   8     -9.7206291 -0.260158E-07  0.217E-03    1.32      20.6  T
   9     -9.7206291 -0.571655E-08  0.102E-03    1.32      44.0  T
  10     -9.7206291 -0.332638E-08  0.178E-04    1.32     251.6  T
  11     -9.7206291 -0.753282E-10  0.150E-05    1.32    2979.8  T
     SCC iter.                  ...        0 min,  0.001 sec
     gradient                   ...        0 min,  0.001 sec
 * total energy  :    -9.5450850 Eh     change        0.1296454E-02 Eh
   gradient norm :     0.1056879 Eh/α   predicted    -0.4110226E-02 (-417.04%)
   displ. norm   :     0.2455156 α      lambda       -0.9194016E-02
   maximum displ.:     0.1900800 α      in ANC's #2, #6, #3, ...

........................................................................
.............................. CYCLE   11 ..............................
........................................................................
   1     -9.7539507 -0.975395E+01  0.864E-01    1.57       0.0  T
   2     -9.7539632 -0.124419E-04  0.508E-01    1.55       1.0  T
   3     -9.7529439  0.101929E-02  0.399E-01    1.61       1.0  T
   4     -9.7540118 -0.106795E-02  0.590E-02    1.55       1.0  T
   5     -9.7540264 -0.145339E-04  0.460E-02    1.57       1.0  T
   6     -9.7540332 -0.680393E-05  0.108E-02    1.56       4.1  T
   7     -9.7540332 -0.289915E-07  0.490E-03    1.56       9.1  T
   8     -9.7540333 -0.102721E-06  0.149E-03    1.56      30.0  T
   9     -9.7540333 -0.377543E-08  0.516E-04    1.56      86.6  T
  10     -9.7540333 -0.989296E-09  0.994E-05    1.56     449.8  T
     SCC iter.                  ...        0 min,  0.001 sec
     gradient                   ...        0 min,  0.001 sec
 * total energy  :    -9.5487868 Eh     change       -0.3701762E-02 Eh
   gradient norm :     0.0095792 Eh/α   predicted    -0.4874104E-02 (  31.67%)
   displ. norm   :     0.0680466 α      lambda       -0.4988869E-03
   maximum displ.:     0.0374940 α      in ANC's #6, #9, #2, ...

........................................................................
.............................. CYCLE   12 ..............................
........................................................................
   1     -9.7531338 -0.975313E+01  0.253E-01    1.55       0.0  T
   2     -9.7531350 -0.120666E-05  0.144E-01    1.55       1.0  T
   3     -9.7530682  0.668727E-04  0.933E-02    1.53       1.0  T
   4     -9.7531394 -0.712655E-04  0.119E-02    1.55       3.8  T
   5     -9.7531398 -0.393754E-06  0.590E-03    1.55       7.6  T
   6     -9.7531398  0.165584E-07  0.306E-03    1.55      14.6  T
   7     -9.7531399 -0.604207E-07  0.487E-04    1.55      91.8  T
   8     -9.7531399 -0.279238E-09  0.188E-04    1.55     237.4  T
     SCC iter.                  ...        0 min,  0.001 sec
     gradient                   ...        0 min,  0.001 sec
 * total energy  :    -9.5491647 Eh     change       -0.3779125E-03 Eh
   gradient norm :     0.0104847 Eh/α   predicted    -0.2505994E-03 ( -33.69%)
   displ. norm   :     0.1223711 α      lambda       -0.5649043E-03
   maximum displ.:     0.0667788 α      in ANC's #6, #2, #9, ...

........................................................................
.............................. CYCLE   13 ..............................
........................................................................
   1     -9.7518972 -0.975190E+01  0.448E-01    1.55       0.0  T
   2     -9.7519039 -0.674440E-05  0.255E-01    1.54       1.0  T
   3     -9.7518156  0.883555E-04  0.111E-01    1.57       1.0  T
   4     -9.7519114 -0.958310E-04  0.149E-02    1.55       3.0  T
   5     -9.7519111  0.290556E-06  0.936E-03    1.55       4.8  T
   6     -9.7519115 -0.392880E-06  0.181E-03    1.55      24.7  T
   7     -9.7519115 -0.126962E-07  0.490E-04    1.55      91.2  T
   8     -9.7519115 -0.257039E-09  0.195E-04    1.55     229.4  T
     SCC iter.                  ...        0 min,  0.001 sec
     gradient                   ...        0 min,  0.001 sec
 * total energy  :    -9.5494190 Eh     change       -0.2542900E-03 Eh
   gradient norm :     0.0143877 Eh/α   predicted    -0.2866815E-03 (  12.74%)
   displ. norm   :     0.0225843 α      lambda       -0.1095102E-03
   maximum displ.:     0.0162728 α      in ANC's #1, #3, #2, ...

........................................................................
.............................. CYCLE   14 ..............................
........................................................................
   1     -9.7548962 -0.975490E+01  0.527E-02    1.56       0.0  T
   2     -9.7548951  0.104186E-05  0.392E-02    1.55       1.1  T
   3     -9.7548917  0.342230E-05  0.331E-02    1.56       1.4  T
   4     -9.7548984 -0.670250E-05  0.883E-03    1.55       5.1  T
   5     -9.7548986 -0.238487E-06  0.340E-03    1.55      13.2  T
   6     -9.7548987 -0.590696E-07  0.117E-03    1.55      38.4  T
   7     -9.7548987 -0.198133E-08  0.249E-04    1.55     179.6  T
   8     -9.7548987 -0.678586E-10  0.632E-05    1.55     707.6  T
     SCC iter.                  ...        0 min,  0.001 sec
     gradient                   ...        0 min,  0.001 sec
 * total energy  :    -9.5494813 Eh     change       -0.6230783E-04 Eh
   gradient norm :     0.0036538 Eh/α   predicted    -0.5478225E-04 ( -12.08%)
   displ. norm   :     0.0108621 α      lambda       -0.1233957E-04
   maximum displ.:     0.0063221 α      in ANC's #3, #6, #9, ...

........................................................................
.............................. CYCLE   15 ..............................
........................................................................
   1     -9.7558680 -0.975587E+01  0.387E-02    1.56       0.0  T
   2     -9.7558680  0.538726E-07  0.228E-02    1.56       2.0  T
   3     -9.7558646  0.336696E-05  0.213E-02    1.56       2.1  T
   4     -9.7558682 -0.357619E-05  0.244E-03    1.56      18.3  T
   5     -9.7558682 -0.168536E-07  0.115E-03    1.56      38.9  T
   6     -9.7558682 -0.743178E-09  0.456E-04    1.56      98.0  T
   7     -9.7558682 -0.119636E-08  0.761E-05    1.56     587.8  T
     SCC iter.                  ...        0 min,  0.001 sec
     gradient                   ...        0 min,  0.001 sec
 * total energy  :    -9.5494877 Eh     change       -0.6449617E-05 Eh
   gradient norm :     0.0005356 Eh/α   predicted    -0.6171569E-05 (  -4.31%)
   displ. norm   :     0.0076338 α      lambda       -0.1055787E-05
   maximum displ.:     0.0041710 α      in ANC's #6, #9, #2, ...

........................................................................
.............................. CYCLE   16 ..............................
........................................................................
   1     -9.7557089 -0.975571E+01  0.282E-02    1.56       0.0  T
   2     -9.7557090 -0.344961E-07  0.160E-02    1.56       2.8  T
   3     -9.7557086  0.377213E-06  0.816E-03    1.56       5.5  T
   4     -9.7557090 -0.408943E-06  0.145E-03    1.56      30.9  T
   5     -9.7557090 -0.895941E-08  0.653E-04    1.56      68.5  T
   6     -9.7557090 -0.513136E-09  0.385E-04    1.56     116.1  T
     SCC iter.                  ...        0 min,  0.001 sec
     gradient                   ...        0 min,  0.001 sec
 * total energy  :    -9.5494880 Eh     change       -0.3060175E-06 Eh
   gradient norm :     0.0004674 Eh/α   predicted    -0.5262397E-06 (  71.96%)
   displ. norm   :     0.0033895 α      lambda       -0.4124353E-06
   maximum displ.:     0.0022271 α      in ANC's #1, #6, #9, ...

   *** GEOMETRY OPTIMIZATION CONVERGED AFTER 16 ITERATIONS ***

------------------------------------------------------------------------
 total energy gain   :        -0.1654815 Eh     -103.8412 kcal/mol
 total RMSD          :         0.9515637 a0        0.5035 Å
 total power (kW/mol):       -27.1544783 (step)-9271.0863 (real)
------------------------------------------------------------------------

 ANCopt (total)                0 d,  0 h,  0 min,  0.047 sec
 optimizer setup                ...        0 min,  0.000 sec (  0.128%)
 model hessian                  ...        0 min,  0.000 sec (  0.187%)
 ANC generation                 ...        0 min,  0.000 sec (  0.109%)
 coordinate transformation      ...        0 min,  0.000 sec (  0.069%)
 single point calculation       ...        0 min,  0.045 sec ( 96.900%)
 optimization log               ...        0 min,  0.000 sec (  0.834%)
 hessian update                 ...        0 min,  0.000 sec (  0.075%)
 rational function              ...        0 min,  0.000 sec (  0.729%)

================
 final structure:
================
5
 xtb: 6.2.2 (9d81278992624c895f80dd42a50cac0aa55982e2)
C        -1.16418308023422    1.12128047338576    0.36988186414017
C        -0.56269404483662    0.02028372431188    0.04242629425124
C         0.84824625069406   -0.06402091393460   -0.07529271870103
N         1.98460575650844   -0.16436473330343   -0.17831186115019
H        -1.10597388213167   -0.91317955045962   -0.15870357854019

 Bond Distances (Angstroems)
 ---------------------------
C1-C2=1.2966         C2-C1=1.2966         C2-C3=1.4184         C2-H5=1.0986         C3-C2=1.4184         C3-N4=1.1454         
N4-C3=1.1454         H5-C2=1.0986         
 C  H  Rav=1.0986 sigma=0.0000  Rmin=1.0986  Rmax=1.0986     1
 C  C  Rav=1.3575 sigma=0.0609  Rmin=1.2966  Rmax=1.4184     2
 N  C  Rav=1.1454 sigma=0.0000  Rmin=1.1454  Rmax=1.1454     1

 selected bond angles (degree)
 --------------------
C3-C2-C1=122.20                H5-C2-C1=122.57                H5-C2-C3=115.23                N4-C3-C2=178.33                

 selected dihedral angles (degree)
 ---------------------------------
N4-C3-C2-C1=179.61            N4-C3-C2-H5=359.88            
           -------------------------------------------------
          |                Final Singlepoint                |
           -------------------------------------------------

          ...................................................
          :                      SETUP                      :
          :.................................................:
          :  # basis functions                  17          :
          :  # atomic orbitals                  17          :
          :  # shells                            9          :
          :  # electrons                        18          :
          :  max. iterations                   250          :
          :  Hamiltonian                  GFN2-xTB          :
          :  restarted?                      false          :
          :  GBSA solvation                  false          :
          :  PC potential                    false          :
          :  electronic temp.          300.0000000     K    :
          :  accuracy                    1.0000000          :
          :  -> integral cutoff          0.2500000E+02      :
          :  -> integral neglect         0.1000000E-07      :
          :  -> SCF convergence          0.1000000E-05 Eh   :
          :  -> wf. convergence          0.1000000E-03 e    :
          :  Broyden damping             0.4000000          :
          ...................................................

 iter      E             dE          RMSdq      gap      omega  full diag
   1     -9.7557090 -0.975571E+01  0.141E-04    1.56       0.0  T
   2     -9.7557090  0.140865E-11  0.705E-05    1.56     634.6  T
   3     -9.7557090  0.532179E-10  0.967E-05    1.56     462.4  T

   *** convergence criteria satisfied after 3 iterations ***

         #    Occupation            Energy/Eh            Energy/eV
      -------------------------------------------------------------
         1        2.0000           -0.6767621             -18.4156
       ...           ...                  ...                  ...
         4        2.0000           -0.5624842             -15.3060
         5        2.0000           -0.5276818             -14.3590
         6        2.0000           -0.5046903             -13.7333
         7        2.0000           -0.4650253             -12.6540
         8        2.0000           -0.4556172             -12.3980
         9        1.0000           -0.4278909             -11.6435
        10        1.0000           -0.3448070              -9.3827 (HOMO)
        11                         -0.2875397              -7.8244 (LUMO)
        12                         -0.2324492              -6.3253
        13                         -0.1599511              -4.3525
        14                          0.1092647               2.9732
        15                          0.2345725               6.3830
       ...                                ...                  ...
        17                          1.1322638              30.8105
      -------------------------------------------------------------
                  HL-Gap            0.0572673 Eh            1.5583 eV
             Fermi-level           -0.3789637 Eh          -10.3121 eV

 transition dipole moment (au) for excitation:           9          10
     X       Y       Z   
   0.0844  -0.1350  -0.0403  total (au/Debye):    0.164   0.417
 dE (eV)             :    2.261
 oscillator strength :  0.21133E-02

 SCC (total)                   0 d,  0 h,  0 min,  0.003 sec
 SCC setup                      ...        0 min,  0.000 sec (  1.586%)
 Dispersion                     ...        0 min,  0.000 sec (  0.316%)
 integral evaluation            ...        0 min,  0.001 sec ( 29.892%)
 zeroth order Hamiltonian       ...        0 min,  0.000 sec (  0.383%)
 iterations                     ...        0 min,  0.000 sec ( 14.029%)
 molecular gradient             ...        0 min,  0.001 sec ( 29.674%)
 printout                       ...        0 min,  0.001 sec ( 23.900%)

         :::::::::::::::::::::::::::::::::::::::::::::::::::::
         ::                     SUMMARY                     ::
         :::::::::::::::::::::::::::::::::::::::::::::::::::::
         :: total energy              -9.549488043267 Eh    ::
         :: gradient norm              0.000494979551 Eh/a0 ::
         :: HOMO-LUMO gap              1.558322125959 eV    ::
         ::.................................................::
         :: SCC energy                -9.755708996241 Eh    ::
         :: -> isotropic ES            0.004887674706 Eh    ::
         :: -> anisotropic ES          0.000609969071 Eh    ::
         :: -> anisotropic XC          0.017359869407 Eh    ::
         :: -> dispersion             -0.002133537447 Eh    ::
         :: repulsion energy           0.206220881035 Eh    ::
         :: add. restraining           0.000000000000 Eh    ::
         :::::::::::::::::::::::::::::::::::::::::::::::::::::

           ------------------------------------------------- 
          |                Numerical Hessian                |
           ------------------------------------------------- 
step length          :   0.00500
SCC accuracy         :   0.30000
Hessian scale factor :   1.00000
frozen atoms in %    :   0.00000    0
RMS gradient         :   0.00049
estimated CPU  time      0.00 min
estimated wall time      0.00 min

writing file <hessian>.

 projected vibrational frequencies (cm-1)
eigval :       -0.00    -0.00     0.00     0.00     0.00     0.00
eigval :      195.26   338.34   555.96   575.25   952.32  1143.17
eigval :     1647.12  2343.79  2780.73
           -------------------------------------------------
          |                Property Printout                |
           -------------------------------------------------

    * Orbital Energies and Occupations

         #    Occupation            Energy/Eh            Energy/eV
      -------------------------------------------------------------
         1        2.0000           -0.6767621             -18.4156
         2        2.0000           -0.6658163             -18.1178
         3        2.0000           -0.6012325             -16.3604
         4        2.0000           -0.5624842             -15.3060
         5        2.0000           -0.5276819             -14.3590
         6        2.0000           -0.5046904             -13.7333
         7        2.0000           -0.4650255             -12.6540
         8        2.0000           -0.4556171             -12.3980
         9        1.0000           -0.4278906             -11.6435
        10        1.0000           -0.3448067              -9.3827 (HOMO)
        11                         -0.2875396              -7.8244 (LUMO)
        12                         -0.2324494              -6.3253
        13                         -0.1599511              -4.3525
        14                          0.1092647               2.9732
        15                          0.2345725               6.3830
        16                          0.6194791              16.8569
        17                          1.1322636              30.8105
      -------------------------------------------------------------
                  HL-Gap            0.0572670 Eh            1.5583 eV
             Fermi-level           -0.3789635 Eh          -10.3121 eV

     #   Z        covCN         q      C6AA      α(0)
     1   6 C      1.003    -0.074    38.372    10.416
     2   6 C      2.884     0.008    27.844     8.651
     3   6 C      1.913     0.135    27.794     8.514
     4   7 N      0.911    -0.175    24.794     7.202
     5   1 H      0.923     0.106     1.735     2.060

 Mol. C6AA /au·bohr⁶  :        529.481357
 Mol. C8AA /au·bohr⁸  :      13893.180528
 Mol. α(0) /au        :         36.842373


Wiberg/Mayer (AO) data.
largest (>0.10) Wiberg bond orders for each atom
          total WBO             WBO to atom ...
     1  C   2.124        C    2 1.913    N    4 0.166
     2  C   3.862        C    1 1.913    C    3 1.051    H    5 0.854
     3  C   3.869        N    4 2.771    C    2 1.051
     4  N   2.999        C    3 2.771    C    1 0.166
     5  H   0.886        C    2 0.854

MOs/occ written to file <molden.input>


molecular dipole:
                 x           y           z       tot (Debye)
 q only:       -0.507      -0.300      -0.043
   full:       -0.912      -0.280      -0.010       2.425
molecular quadrupole (traceless):
                xx          xy          yy          xz          yz          zz
 q only:       -1.965       1.352       0.991       0.554      -0.106       0.973
  q+dip:       -3.125       1.397       2.562       0.608       0.436       0.563
   full:       -4.836       1.895       2.798       0.964       0.048       2.039

           -------------------------------------------------
          |                Geometry Summary                 |
           -------------------------------------------------

      molecular mass/u    :       51.0468517
   center of mass at/Å    :        0.3159858       0.1904009       0.0272339
  moments of inertia/u·Å² :        0.7564171E+01   0.8915185E+02   0.9671599E+02
rotational constants/cm⁻¹ :        0.2228616E+01   0.1890890E+00   0.1743004E+00

 * 3 selected distances

     #   Z        #   Z                                     value/Å
     1   6 C      2   6 C                                 1.2966148 (max)
     3   6 C      4   7 N                                 1.1454234
     2   6 C      5   1 H                                 1.0986173 (min)

 * 3 distinct bonds (by element types)

   Z      Z             #   av. dist./Å        max./Å        min./Å
   1 H    6 C           1     1.0986173     1.0986173     1.0986173
   6 C    6 C           1     1.2966148     1.2966148     1.2966148
   6 C    7 N           1     1.1454234     1.1454234     1.1454234

           -------------------------------------------------
          |               Frequency Printout                |
           -------------------------------------------------
 projected vibrational frequencies (cm-1)
eigval :       -0.00    -0.00     0.00     0.00     0.00     0.00
eigval :      195.26   338.34   555.96   575.25   952.32  1143.17
eigval :     1647.12  2343.79  2780.73
 reduced masses (amu)
   1: 13.11   2: 13.23   3: 12.14   4: 11.96   5: 12.15   6:  8.47   7: 12.15   8: 10.47
   9: 12.04  10:  6.69  11: 11.01  12:  3.25  13: 11.94  14: 12.81  15:  1.72
 IR intensities (amu)
   1:  0.10   2:  0.13   3:  0.08   4:  0.07   5:  0.15   6:  0.22   7:  0.29   8:  0.27
   9:  0.18  10:  0.13  11:  0.10  12:  0.04  13:  0.19  14:  1.17  15:  0.05
 Raman intensities (amu)
Molecule has the following symmetry elements: (sigma) 
It seems to be the Cs point group
   1:  0.00   2:  0.00   3:  0.00   4:  0.00   5:  0.00   6:  0.00   7:  0.00   8:  0.00
   9:  0.00  10:  0.00  11:  0.00  12:  0.00  13:  0.00  14:  0.00  15:  0.00
 output can be read by thermo (or use thermo option).
 writing <g98.out> molden fake output.
 recommended (thermochemical) frequency scaling factor: 1.0
           -------------------------------------------------
          |             Thermodynamic Functions             |
           -------------------------------------------------

cs  symmetry found (for desy threshold:  0.10E+00) used in thermo

          ...................................................
          :                      SETUP                      :
          :.................................................:
          :  # frequencies                           9      :
          :  # imaginary freq.                       0      :
          :  linear?                             false      :
          :  only rotor calc.                    false      :
          :  symmetry                               cs      :
          :  rotational number                       1      :
          :  scaling factor                  1.0000000      :
          :  rotor cutoff                   50.0000000 cm⁻¹ :
          :  imag. cutoff                  -20.0000000 cm⁻¹ :
          :.................................................:

    mode    ω/cm⁻¹     T·S(HO)/kcal·mol⁻¹    T·S(FR)/kcal·mol⁻¹   T·S(vib)
   ------------------------------------------------------------------------
       1    195.26    -0.00000 ( 99.57%)     0.01184 (  0.43%)     0.00005
   ------------------------------------------------------------------------

   temp. (K)  partition function   enthalpy   heat capacity  entropy
                                   cal/mol     cal/K/mol   cal/K/mol   J/K/mol
 298.15  VIB   2.37                  860.117      6.382      4.596
         ROT  0.195E+05              888.752      2.981     22.612
         INT  0.461E+05             1748.869      9.363     27.208
         TR   0.353E+27             1481.254      4.968     37.697
         TOT                        3230.1229    14.3315    64.9050   271.5625

   temp. (K)  partition function   enthalpy   heat capacity  entropy
                                   cal/mol     cal/K/mol   cal/K/mol   J/K/mol
 120.00  VIB   1.13                   80.202      2.081      0.911
         ROT  0.498E+04              357.707      2.981     19.899
         INT  0.562E+04              437.909      5.062     20.811
         TR   0.901E+26              596.178      4.968     33.177
         TOT                        1034.0868    10.0300    53.9881   225.8861

   temp. (K)  partition function   enthalpy   heat capacity  entropy
                                   cal/mol     cal/K/mol   cal/K/mol   J/K/mol
 100.00  VIB   1.07                   44.243      1.516      0.585
         ROT  0.379E+04              298.089      2.981     19.356
         INT  0.407E+04              342.332      4.496     19.941
         TR   0.685E+26              496.815      4.968     32.272
         TOT                         839.1472     9.4645    52.2131   218.4595

   temp. (K)  partition function   enthalpy   heat capacity  entropy
                                   cal/mol     cal/K/mol   cal/K/mol   J/K/mol
  80.00  VIB   1.03                   19.510      0.961      0.311
         ROT  0.271E+04              238.471      2.981     18.691
         INT  0.280E+04              257.981      3.942     19.002
         TR   0.490E+26              397.452      4.968     31.164
         TOT                         655.4328     8.9104    50.1660   209.8945

   temp. (K)  partition function   enthalpy   heat capacity  entropy
                                   cal/mol     cal/K/mol   cal/K/mol   J/K/mol
  60.00  VIB   1.01                    5.512      0.451      0.113
         ROT  0.176E+04              178.853      2.981     17.833
         INT  0.178E+04              184.365      3.432     17.946
         TR   0.319E+26              298.089      4.968     29.735
         TOT                         482.4540     8.4002    47.6814   199.4990

   temp. (K)  partition function   enthalpy   heat capacity  entropy
                                   cal/mol     cal/K/mol   cal/K/mol   J/K/mol
  40.00  VIB   1.00                    0.503      0.089      0.015
         ROT   959.                  119.236      2.981     16.625
         INT   960.                  119.738      3.070     16.639
         TR   0.173E+26              198.726      4.968     27.722
         TOT                         318.4645     8.0381    44.3612   185.6071

   temp. (K)  partition function   enthalpy   heat capacity  entropy
                                   cal/mol     cal/K/mol   cal/K/mol   J/K/mol
  20.00  VIB   1.00                    0.000      0.000     -0.003
         ROT   339.                   59.618      2.981     14.558
         INT   339.                   59.618      2.981     14.556
         TR   0.613E+25               99.363      4.968     24.280
         TOT                         158.9812     7.9494    38.8354   162.4871

   temp. (K)  partition function   enthalpy   heat capacity  entropy
                                   cal/mol     cal/K/mol   cal/K/mol   J/K/mol
  10.00  VIB   1.00                    0.000      0.000     -0.006
         ROT   120.                   29.809      2.981     12.492
         INT   120.                   29.809      2.981     12.486
         TR   0.217E+25               49.681      4.968     20.838
         TOT                          79.4904     7.9490    33.3238   139.4267

       T/K    H(0)-H(T)+PV         H(T)/Eh          T*S/Eh         G(T)/Eh
   ------------------------------------------------------------------------
    298.15    0.514753E-02    0.291411E-01    0.308385E-01   -0.169739E-02
    120.00    0.164792E-02    0.256415E-01    0.103243E-01    0.153172E-01
    100.00    0.133727E-02    0.253308E-01    0.832068E-02    0.170101E-01
     80.00    0.104450E-02    0.250380E-01    0.639557E-02    0.186425E-01
     60.00    0.768839E-03    0.247624E-01    0.455911E-02    0.202033E-01
     40.00    0.507505E-03    0.245010E-01    0.282776E-02    0.216733E-01
     20.00    0.253353E-03    0.242469E-01    0.123776E-02    0.230091E-01
     10.00    0.126676E-03    0.241202E-01    0.531048E-03    0.235892E-01 (used)
   ------------------------------------------------------------------------

         :::::::::::::::::::::::::::::::::::::::::::::::::::::
         ::                  THERMODYNAMIC                  ::
         :::::::::::::::::::::::::::::::::::::::::::::::::::::
         :: total free energy          -9.525898878916 Eh   ::
         ::.................................................::
         :: total energy               -9.549488043400 Eh   ::
         :: zero point energy           0.023993536856 Eh   ::
         :: G(RRHO) w/o ZPVE           -0.000404372372 Eh   ::
         :: G(RRHO) contrib.            0.023589164484 Eh   ::
         :::::::::::::::::::::::::::::::::::::::::::::::::::::

optimized geometry written to: xtbopt.xyz


           -------------------------------------------------
          | TOTAL ENERGY               -9.549488043400 Eh   |
          | TOTAL ENTHALPY             -9.525367830529 Eh   |
          | TOTAL FREE ENERGY          -9.525898878916 Eh   |
          | GRADIENT NORM               0.000494742060 Eh/α |
          | HOMO-LUMO GAP               1.558315557228 eV   |
           -------------------------------------------------

------------------------------------------------------------------------
 * finished run on 2020/05/12 at 11:44:52.741     
------------------------------------------------------------------------
 total:
 * wall-time:     0 d,  0 h,  0 min,  0.145 sec
 *  cpu-time:     0 d,  0 h,  0 min,  0.144 sec
 * ratio c/w:     0.998 speedup
 SCF:
 * wall-time:     0 d,  0 h,  0 min,  0.004 sec
 *  cpu-time:     0 d,  0 h,  0 min,  0.004 sec
 * ratio c/w:     1.000 speedup
 ANC optimizer:
 * wall-time:     0 d,  0 h,  0 min,  0.051 sec
 *  cpu-time:     0 d,  0 h,  0 min,  0.051 sec
 * ratio c/w:     0.998 speedup
 numerical hessian:
 * wall-time:     0 d,  0 h,  0 min,  0.074 sec
 *  cpu-time:     0 d,  0 h,  0 min,  0.074 sec
 * ratio c/w:     0.999 speedup

