 Entering Gaussian System, Link 0=g16
 Initial command:
 /applis/site/cecic/gaussian16/B.01/nehalem/g16/l1.exe "/bettik/tinaccil/g16/12753927_Na_2S/Gau-131306.inp" -scrdir="/bettik/tinaccil/g16/12753927_Na_2S/"
 Entering Link 1 = /applis/site/cecic/gaussian16/B.01/nehalem/g16/l1.exe PID=    131308.
  
 Copyright (c) 1988-2017, Gaussian, Inc.  All Rights Reserved.
  
 This is part of the Gaussian(R) 16 program.  It is based on
 the Gaussian(R) 09 system (copyright 2009, Gaussian, Inc.),
 the Gaussian(R) 03 system (copyright 2003, Gaussian, Inc.),
 the Gaussian(R) 98 system (copyright 1998, Gaussian, Inc.),
 the Gaussian(R) 94 system (copyright 1995, Gaussian, Inc.),
 the Gaussian 92(TM) system (copyright 1992, Gaussian, Inc.),
 the Gaussian 90(TM) system (copyright 1990, Gaussian, Inc.),
 the Gaussian 88(TM) system (copyright 1988, Gaussian, Inc.),
 the Gaussian 86(TM) system (copyright 1986, Carnegie Mellon
 University), and the Gaussian 82(TM) system (copyright 1983,
 Carnegie Mellon University). Gaussian is a federally registered
 trademark of Gaussian, Inc.
  
 This software contains proprietary and confidential information,
 including trade secrets, belonging to Gaussian, Inc.
  
 This software is provided under written license and may be
 used, copied, transmitted, or stored only in accord with that
 written license.
  
 The following legend is applicable only to US Government
 contracts under FAR:
  
                    RESTRICTED RIGHTS LEGEND
  
 Use, reproduction and disclosure by the US Government is
 subject to restrictions as set forth in subparagraphs (a)
 and (c) of the Commercial Computer Software - Restricted
 Rights clause in FAR 52.227-19.
  
 Gaussian, Inc.
 340 Quinnipiac St., Bldg. 40, Wallingford CT 06492
  
  
 ---------------------------------------------------------------
 Warning -- This program may not be used in any manner that
 competes with the business of Gaussian, Inc. or will provide
 assistance to any competitor of Gaussian, Inc.  The licensee
 of this program is prohibited from giving any competitor of
 Gaussian, Inc. access to this program.  By using this program,
 the user acknowledges that Gaussian, Inc. is engaged in the
 business of creating and licensing software in the field of
 computational chemistry and represents and warrants to the
 licensee that it is not a competitor of Gaussian, Inc. and that
 it will not use this program in any manner prohibited above.
 ---------------------------------------------------------------
  

 Cite this work as:
 Gaussian 16, Revision B.01,
 M. J. Frisch, G. W. Trucks, H. B. Schlegel, G. E. Scuseria, 
 M. A. Robb, J. R. Cheeseman, G. Scalmani, V. Barone, 
 G. A. Petersson, H. Nakatsuji, X. Li, M. Caricato, A. V. Marenich, 
 J. Bloino, B. G. Janesko, R. Gomperts, B. Mennucci, H. P. Hratchian, 
 J. V. Ortiz, A. F. Izmaylov, J. L. Sonnenberg, D. Williams-Young, 
 F. Ding, F. Lipparini, F. Egidi, J. Goings, B. Peng, A. Petrone, 
 T. Henderson, D. Ranasinghe, V. G. Zakrzewski, J. Gao, N. Rega, 
 G. Zheng, W. Liang, M. Hada, M. Ehara, K. Toyota, R. Fukuda, 
 J. Hasegawa, M. Ishida, T. Nakajima, Y. Honda, O. Kitao, H. Nakai, 
 T. Vreven, K. Throssell, J. A. Montgomery, Jr., J. E. Peralta, 
 F. Ogliaro, M. J. Bearpark, J. J. Heyd, E. N. Brothers, K. N. Kudin, 
 V. N. Staroverov, T. A. Keith, R. Kobayashi, J. Normand, 
 K. Raghavachari, A. P. Rendell, J. C. Burant, S. S. Iyengar, 
 J. Tomasi, M. Cossi, J. M. Millam, M. Klene, C. Adamo, R. Cammi, 
 J. W. Ochterski, R. L. Martin, K. Morokuma, O. Farkas, 
 J. B. Foresman, and D. J. Fox, Gaussian, Inc., Wallingford CT, 2016.
 
 ******************************************
 Gaussian 16:  ES64L-G16RevB.01 20-Dec-2017
                 5-Oct-2020 
 ******************************************
 %nosave
 %nproc=8
 Will use up to    8 processors via shared memory.
 %mem=2gb
 %chk=input
 ----------------------
 #P CCSD(T)/aug-cc-pvtz
 ----------------------
 1/38=1,172=1/1;
 2/12=2,17=6,18=5,40=1/2;
 3/5=16,6=1,7=10,11=9,25=1,30=1/1,2,3;
 4//1;
 5/5=2,38=5/2;
 8/6=4,9=120000,10=1/1,4;
 9/5=7,14=2/13;
 6/7=2,8=2,9=2,10=2/1;
 99/5=1,9=1/99;
 Leave Link    1 at Mon Oct  5 21:27:55 2020, MaxMem=   268435456 cpu:               0.7 elap:               0.1
 (Enter /applis/site/cecic/gaussian16/B.01/nehalem/g16/l101.exe)
 -----
 Title
 -----
 Symbolic Z-matrix:
 Charge =  0 Multiplicity = 2
 Na
 
 ITRead=  0
 MicOpt= -1
 NAtoms=      1 NQM=        1 NQMF=       0 NMMI=      0 NMMIF=      0
                NMic=       0 NMicF=      0.
                    Isotopes and Nuclear Properties:
 (Nuclear quadrupole moments (NQMom) in fm**2, nuclear magnetic moments (NMagM)
  in nuclear magnetons)

  Atom         1
 IAtWgt=          23
 AtmWgt=  22.9897697
 NucSpn=           3
 AtZEff=  -0.0000000
 NQMom=   10.4000000
 NMagM=    2.2175200
 AtZNuc=  11.0000000
 Leave Link  101 at Mon Oct  5 21:27:56 2020, MaxMem=   268435456 cpu:               1.7 elap:               0.3
 (Enter /applis/site/cecic/gaussian16/B.01/nehalem/g16/l202.exe)
                          Input orientation:                          
 ---------------------------------------------------------------------
 Center     Atomic      Atomic             Coordinates (Angstroms)
 Number     Number       Type             X           Y           Z
 ---------------------------------------------------------------------
      1         11           0        0.000000    0.000000    0.000000
 ---------------------------------------------------------------------
 Stoichiometry    Na(2)
 Framework group  OH[O(Na)]
 Deg. of freedom     0
 Full point group                 OH      NOp  48
 Largest Abelian subgroup         D2H     NOp   8
 Largest concise Abelian subgroup C1      NOp   1
                         Standard orientation:                         
 ---------------------------------------------------------------------
 Center     Atomic      Atomic             Coordinates (Angstroms)
 Number     Number       Type             X           Y           Z
 ---------------------------------------------------------------------
      1         11           0        0.000000    0.000000    0.000000
 ---------------------------------------------------------------------
 Leave Link  202 at Mon Oct  5 21:27:56 2020, MaxMem=   268435456 cpu:               0.3 elap:               0.1
 (Enter /applis/site/cecic/gaussian16/B.01/nehalem/g16/l301.exe)
 Standard basis: Aug-CC-pVTZ (5D, 7F)
 Ernie: Thresh=  0.10000D-02 Tol=  0.10000D-05 Strict=F.
 Ernie:  13 primitive shells out of 69 were deleted.
 There are    15 symmetry adapted cartesian basis functions of AG  symmetry.
 There are     3 symmetry adapted cartesian basis functions of B1G symmetry.
 There are     3 symmetry adapted cartesian basis functions of B2G symmetry.
 There are     3 symmetry adapted cartesian basis functions of B3G symmetry.
 There are     2 symmetry adapted cartesian basis functions of AU  symmetry.
 There are    11 symmetry adapted cartesian basis functions of B1U symmetry.
 There are    11 symmetry adapted cartesian basis functions of B2U symmetry.
 There are    11 symmetry adapted cartesian basis functions of B3U symmetry.
 There are    12 symmetry adapted basis functions of AG  symmetry.
 There are     3 symmetry adapted basis functions of B1G symmetry.
 There are     3 symmetry adapted basis functions of B2G symmetry.
 There are     3 symmetry adapted basis functions of B3G symmetry.
 There are     2 symmetry adapted basis functions of AU  symmetry.
 There are     9 symmetry adapted basis functions of B1U symmetry.
 There are     9 symmetry adapted basis functions of B2U symmetry.
 There are     9 symmetry adapted basis functions of B3U symmetry.
    50 basis functions,   123 primitive gaussians,    59 cartesian basis functions
     6 alpha electrons        5 beta electrons
       nuclear repulsion energy         0.0000000000 Hartrees.
 IExCor=    0 DFT=F Ex=HF Corr=None ExCW=0 ScaHFX=  1.000000
 ScaDFX=  1.000000  1.000000  1.000000  1.000000 ScalE2=  1.000000  1.000000
 IRadAn=      5 IRanWt=     -1 IRanGd=            0 ICorTp=0 IEmpDi=  4
 NAtoms=    1 NActive=    1 NUniq=    1 SFac= 1.00D+00 NAtFMM=   60 NAOKFM=F Big=F
 Integral buffers will be    131072 words long.
 Raffenetti 2 integral format.
 Two-electron integral symmetry is turned on.
 Leave Link  301 at Mon Oct  5 21:27:56 2020, MaxMem=   268435456 cpu:               0.7 elap:               0.1
 (Enter /applis/site/cecic/gaussian16/B.01/nehalem/g16/l302.exe)
 NPDir=0 NMtPBC=     1 NCelOv=     1 NCel=       1 NClECP=     1 NCelD=      1
         NCelK=      1 NCelE2=     1 NClLst=     1 CellRange=     0.0.
 One-electron integrals computed using PRISM.
 One-electron integral symmetry used in STVInt
 NBasis=    50 RedAO= T EigKep=  3.09D-02  NBF=    12     3     3     3     2     9     9     9
 NBsUse=    50 1.00D-06 EigRej= -1.00D+00 NBFU=    12     3     3     3     2     9     9     9
 Leave Link  302 at Mon Oct  5 21:27:56 2020, MaxMem=   268435456 cpu:               1.7 elap:               0.3
 (Enter /applis/site/cecic/gaussian16/B.01/nehalem/g16/l303.exe)
 DipDrv:  MaxL=1.
 Leave Link  303 at Mon Oct  5 21:27:56 2020, MaxMem=   268435456 cpu:               0.7 elap:               0.2
 (Enter /applis/site/cecic/gaussian16/B.01/nehalem/g16/l401.exe)
 ExpMin= 7.42D-03 ExpMax= 4.23D+05 ExpMxC= 1.33D+03 IAcc=3 IRadAn=         5 AccDes= 0.00D+00
 Harris functional with IExCor=  205 and IRadAn=       5 diagonalized for initial guess.
 HarFok:  IExCor=  205 AccDes= 0.00D+00 IRadAn=         5 IDoV= 1 UseB2=F ITyADJ=14
 ICtDFT=  3500011 ScaDFX=  1.000000  1.000000  1.000000  1.000000
 FoFCou: FMM=F IPFlag=           0 FMFlag=      100000 FMFlg1=           0
         NFxFlg=           0 DoJE=T BraDBF=F KetDBF=T FulRan=T
         wScrn=  0.000000 ICntrl=       500 IOpCl=  0 I1Cent=   200000004 NGrid=           0
         NMat0=    1 NMatS0=      1 NMatT0=    0 NMatD0=    1 NMtDS0=    0 NMtDT0=    0
 Petite list used in FoFCou.
 Harris En= -161.634074843256    
 JPrj=0 DoOrth=F DoCkMO=F.
 Initial guess orbital symmetries:
 Alpha Orbitals:
       Occupied  (A1G) (A1G) (T1U) (T1U) (T1U) (A1G)
       Virtual   (T1U) (T1U) (T1U) (A1G) (T1U) (T1U) (T1U) (T2G)
                 (T2G) (T2G) (EG) (EG) (T1U) (T1U) (T1U) (A1G)
                 (T2G) (T2G) (T2G) (EG) (EG) (T2U) (T2U) (T2U)
                 (A2U) (T1U) (T1U) (T1U) (T1U) (T1U) (T1U) (T2G)
                 (T2G) (T2G) (EG) (EG) (T2U) (T2U) (T2U) (A2U)
                 (T1U) (T1U) (T1U) (A1G)
 Beta  Orbitals:
       Occupied  (A1G) (A1G) (T1U) (T1U) (T1U)
       Virtual   (A1G) (T1U) (T1U) (T1U) (A1G) (T1U) (T1U) (T1U)
                 (T2G) (T2G) (T2G) (EG) (EG) (T1U) (T1U) (T1U)
                 (A1G) (T2G) (T2G) (T2G) (EG) (EG) (T2U) (T2U)
                 (T2U) (A2U) (T1U) (T1U) (T1U) (T1U) (T1U) (T1U)
                 (T2G) (T2G) (T2G) (EG) (EG) (T2U) (T2U) (T2U)
                 (A2U) (T1U) (T1U) (T1U) (A1G)
 The electronic state of the initial guess is 2-A1G.
 Initial guess <Sx>= 0.0000 <Sy>= 0.0000 <Sz>= 0.5000 <S**2>= 0.7500 S= 0.5000
 Leave Link  401 at Mon Oct  5 21:27:57 2020, MaxMem=   268435456 cpu:               1.9 elap:               0.3
 (Enter /applis/site/cecic/gaussian16/B.01/nehalem/g16/l502.exe)
 Keep R1 and R2 ints in memory in symmetry-blocked form, NReq=4754384.
 FoFCou: FMM=F IPFlag=           0 FMFlag=           0 FMFlg1=           0
         NFxFlg=           0 DoJE=F BraDBF=F KetDBF=F FulRan=T
         wScrn=  0.000000 ICntrl=       600 IOpCl=  0 I1Cent=           0 NGrid=           0
         NMat0=    1 NMatS0=   1275 NMatT0=    0 NMatD0=    1 NMtDS0=    0 NMtDT0=    0
 Petite list used in FoFCou.
 UHF open shell SCF:
 Using DIIS extrapolation, IDIIS=  1040.
 NGot=   268435456 LenX=   268204232 LenY=   268200310
 Requested convergence on RMS density matrix=1.00D-08 within 128 cycles.
 Requested convergence on MAX density matrix=1.00D-06.
 Requested convergence on             energy=1.00D-06.
 No special actions if energy rises.

 Cycle   1  Pass 1  IDiag  1:
 E= -161.846857863609    
 DIIS: error= 6.97D-02 at cycle   1 NSaved=   1.
 NSaved= 1 IEnMin= 1 EnMin= -161.846857863609     IErMin= 1 ErrMin= 6.97D-02
 ErrMax= 6.97D-02  0.00D+00 EMaxC= 1.00D-01 BMatC= 1.28D-01 BMatP= 1.28D-01
 IDIUse=3 WtCom= 3.03D-01 WtEn= 6.97D-01
 Coeff-Com:  0.100D+01
 Coeff-En:   0.100D+01
 Coeff:      0.100D+01
 Gap=     0.208 Goal=   None    Shift=    0.000
 Gap=     1.593 Goal=   None    Shift=    0.000
 GapD=    0.208 DampG=1.000 DampE=0.500 DampFc=0.5000 IDamp=-1.
 Damping current iteration by 5.00D-01
 RMSDP=2.97D-03 MaxDP=5.66D-02              OVMax= 2.34D-02

 Cycle   2  Pass 1  IDiag  1:
 E= -161.852411656043     Delta-E=       -0.005553792434 Rises=F Damp=T
 DIIS: error= 3.45D-02 at cycle   2 NSaved=   2.
 NSaved= 2 IEnMin= 2 EnMin= -161.852411656043     IErMin= 2 ErrMin= 3.45D-02
 ErrMax= 3.45D-02  0.00D+00 EMaxC= 1.00D-01 BMatC= 3.16D-02 BMatP= 1.28D-01
 IDIUse=3 WtCom= 6.55D-01 WtEn= 3.45D-01
 Coeff-Com: -0.988D+00 0.199D+01
 Coeff-En:   0.000D+00 0.100D+01
 Coeff:     -0.647D+00 0.165D+01
 Gap=     0.194 Goal=   None    Shift=    0.000
 Gap=     1.526 Goal=   None    Shift=    0.000
 RMSDP=1.46D-03 MaxDP=2.84D-02 DE=-5.55D-03 OVMax= 6.70D-03

 Cycle   3  Pass 1  IDiag  1:
 E= -161.858020337730     Delta-E=       -0.005608681687 Rises=F Damp=F
 DIIS: error= 8.65D-04 at cycle   3 NSaved=   3.
 NSaved= 3 IEnMin= 3 EnMin= -161.858020337730     IErMin= 3 ErrMin= 8.65D-04
 ErrMax= 8.65D-04  0.00D+00 EMaxC= 1.00D-01 BMatC= 1.94D-05 BMatP= 3.16D-02
 IDIUse=3 WtCom= 9.91D-01 WtEn= 8.65D-03
 Coeff-Com:  0.373D+00-0.753D+00 0.138D+01
 Coeff-En:   0.000D+00 0.000D+00 0.100D+01
 Coeff:      0.370D+00-0.747D+00 0.138D+01
 Gap=     0.193 Goal=   None    Shift=    0.000
 Gap=     1.521 Goal=   None    Shift=    0.000
 RMSDP=3.23D-04 MaxDP=1.58D-02 DE=-5.61D-03 OVMax= 5.89D-03

 Cycle   4  Pass 1  IDiag  1:
 E= -161.858036275512     Delta-E=       -0.000015937783 Rises=F Damp=F
 DIIS: error= 1.30D-04 at cycle   4 NSaved=   4.
 NSaved= 4 IEnMin= 4 EnMin= -161.858036275512     IErMin= 4 ErrMin= 1.30D-04
 ErrMax= 1.30D-04  0.00D+00 EMaxC= 1.00D-01 BMatC= 6.13D-07 BMatP= 1.94D-05
 IDIUse=3 WtCom= 9.99D-01 WtEn= 1.30D-03
 Coeff-Com: -0.123D+00 0.248D+00-0.517D+00 0.139D+01
 Coeff-En:   0.000D+00 0.000D+00 0.000D+00 0.100D+01
 Coeff:     -0.123D+00 0.248D+00-0.516D+00 0.139D+01
 Gap=     0.193 Goal=   None    Shift=    0.000
 Gap=     1.522 Goal=   None    Shift=    0.000
 RMSDP=1.23D-04 MaxDP=6.53D-03 DE=-1.59D-05 OVMax= 2.41D-03

 Cycle   5  Pass 1  IDiag  1:
 E= -161.858037835312     Delta-E=       -0.000001559800 Rises=F Damp=F
 DIIS: error= 4.14D-05 at cycle   5 NSaved=   5.
 NSaved= 5 IEnMin= 5 EnMin= -161.858037835312     IErMin= 5 ErrMin= 4.14D-05
 ErrMax= 4.14D-05  0.00D+00 EMaxC= 1.00D-01 BMatC= 4.12D-08 BMatP= 6.13D-07
 IDIUse=1 WtCom= 1.00D+00 WtEn= 0.00D+00
 Coeff-Com:  0.185D-01-0.375D-01 0.859D-01-0.499D+00 0.143D+01
 Coeff:      0.185D-01-0.375D-01 0.859D-01-0.499D+00 0.143D+01
 Gap=     0.193 Goal=   None    Shift=    0.000
 Gap=     1.522 Goal=   None    Shift=    0.000
 RMSDP=3.73D-05 MaxDP=2.10D-03 DE=-1.56D-06 OVMax= 8.93D-04

 Cycle   6  Pass 1  IDiag  1:
 E= -161.858037970339     Delta-E=       -0.000000135028 Rises=F Damp=F
 DIIS: error= 6.85D-06 at cycle   6 NSaved=   6.
 NSaved= 6 IEnMin= 6 EnMin= -161.858037970339     IErMin= 6 ErrMin= 6.85D-06
 ErrMax= 6.85D-06  0.00D+00 EMaxC= 1.00D-01 BMatC= 8.49D-10 BMatP= 4.12D-08
 IDIUse=1 WtCom= 1.00D+00 WtEn= 0.00D+00
 Coeff-Com: -0.280D-02 0.566D-02-0.139D-01 0.131D+00-0.506D+00 0.139D+01
 Coeff:     -0.280D-02 0.566D-02-0.139D-01 0.131D+00-0.506D+00 0.139D+01
 Gap=     0.193 Goal=   None    Shift=    0.000
 Gap=     1.522 Goal=   None    Shift=    0.000
 RMSDP=3.30D-06 MaxDP=1.40D-04 DE=-1.35D-07 OVMax= 1.29D-04

 Cycle   7  Pass 1  IDiag  1:
 E= -161.858037972672     Delta-E=       -0.000000002333 Rises=F Damp=F
 DIIS: error= 4.85D-07 at cycle   7 NSaved=   7.
 NSaved= 7 IEnMin= 7 EnMin= -161.858037972672     IErMin= 7 ErrMin= 4.85D-07
 ErrMax= 4.85D-07  0.00D+00 EMaxC= 1.00D-01 BMatC= 5.74D-12 BMatP= 8.49D-10
 IDIUse=1 WtCom= 1.00D+00 WtEn= 0.00D+00
 Coeff-Com:  0.722D-03-0.146D-02 0.362D-02-0.355D-01 0.136D+00-0.397D+00
 Coeff-Com:  0.129D+01
 Coeff:      0.722D-03-0.146D-02 0.362D-02-0.355D-01 0.136D+00-0.397D+00
 Coeff:      0.129D+01
 Gap=     0.193 Goal=   None    Shift=    0.000
 Gap=     1.522 Goal=   None    Shift=    0.000
 RMSDP=4.04D-07 MaxDP=1.29D-05 DE=-2.33D-09 OVMax= 1.19D-05

 Cycle   8  Pass 1  IDiag  1:
 E= -161.858037972694     Delta-E=       -0.000000000022 Rises=F Damp=F
 DIIS: error= 7.17D-08 at cycle   8 NSaved=   8.
 NSaved= 8 IEnMin= 8 EnMin= -161.858037972694     IErMin= 8 ErrMin= 7.17D-08
 ErrMax= 7.17D-08  0.00D+00 EMaxC= 1.00D-01 BMatC= 1.43D-13 BMatP= 5.74D-12
 IDIUse=1 WtCom= 1.00D+00 WtEn= 0.00D+00
 Coeff-Com: -0.616D-05 0.118D-04-0.135D-04 0.486D-03-0.169D-02 0.798D-02
 Coeff-Com: -0.206D+00 0.120D+01
 Coeff:     -0.616D-05 0.118D-04-0.135D-04 0.486D-03-0.169D-02 0.798D-02
 Coeff:     -0.206D+00 0.120D+01
 Gap=     0.193 Goal=   None    Shift=    0.000
 Gap=     1.522 Goal=   None    Shift=    0.000
 RMSDP=8.10D-08 MaxDP=3.18D-06 DE=-2.15D-11 OVMax= 1.79D-06

 Cycle   9  Pass 1  IDiag  1:
 E= -161.858037972694     Delta-E=       -0.000000000000 Rises=F Damp=F
 DIIS: error= 2.24D-09 at cycle   9 NSaved=   9.
 NSaved= 9 IEnMin= 9 EnMin= -161.858037972694     IErMin= 9 ErrMin= 2.24D-09
 ErrMax= 2.24D-09  0.00D+00 EMaxC= 1.00D-01 BMatC= 2.88D-16 BMatP= 1.43D-13
 IDIUse=1 WtCom= 1.00D+00 WtEn= 0.00D+00
 Coeff-Com:  0.361D-05-0.720D-05 0.147D-04-0.197D-03 0.671D-03-0.237D-02
 Coeff-Com:  0.376D-01-0.214D+00 0.118D+01
 Coeff:      0.361D-05-0.720D-05 0.147D-04-0.197D-03 0.671D-03-0.237D-02
 Coeff:      0.376D-01-0.214D+00 0.118D+01
 Gap=     0.193 Goal=   None    Shift=    0.000
 Gap=     1.522 Goal=   None    Shift=    0.000
 RMSDP=1.91D-09 MaxDP=1.07D-07 DE=-3.41D-13 OVMax= 4.48D-08

 SCF Done:  E(UHF) =  -161.858037973     A.U. after    9 cycles
            NFock=  9  Conv=0.19D-08     -V/T= 2.0000
 <Sx>= 0.0000 <Sy>= 0.0000 <Sz>= 0.5000 <S**2>= 0.7501 S= 0.5000
 <L.S>= 0.000000000000E+00
 KE= 1.618563829057D+02 PE=-3.897306236354D+02 EE= 6.601620275709D+01
 Annihilation of the first spin contaminant:
 S**2 before annihilation     0.7501,   after     0.7500
 Leave Link  502 at Mon Oct  5 21:27:58 2020, MaxMem=   268435456 cpu:              12.2 elap:               1.7
 (Enter /applis/site/cecic/gaussian16/B.01/nehalem/g16/l801.exe)
 Windowed orbitals will be sorted by symmetry type.
 ExpMin= 7.42D-03 ExpMax= 4.23D+05 ExpMxC= 1.33D+03 IAcc=3 IRadAn=         5 AccDes= 0.00D+00
 HarFok:  IExCor=  205 AccDes= 0.00D+00 IRadAn=         5 IDoV=-2 UseB2=F ITyADJ=14
 ICtDFT= 12500011 ScaDFX=  1.000000  1.000000  1.000000  1.000000
 Largest valence mixing into a core orbital is  2.62D-04
 Largest core mixing into a valence orbital is  6.75D-05
 Range of M.O.s used for correlation:     6    50
 NBasis=    50 NAE=     6 NBE=     5 NFC=     5 NFV=     0
 NROrb=     45 NOA=     1 NOB=     0 NVA=    44 NVB=    45
 *** There is no correlation energy for this system ***
 Leave Link  801 at Mon Oct  5 21:27:59 2020, MaxMem=   268435456 cpu:               0.8 elap:               0.1
 (Enter /applis/site/cecic/gaussian16/B.01/nehalem/g16/l804.exe)
 Open-shell transformation, MDV=   268435456 ITran=4 ISComp=2.
 Unit  1 TFree=         68402 TCopy=        254607.
 Semi-Direct transformation.
 ModeAB=           2 MOrb=             1 LenV=     268131532
 LASXX=         5722 LTotXX=        5722 LenRXX=        5722
 LTotAB=        6311 MaxLAS=       79650 LenRXY=       79650
 NonZer=       86400 LenScr=      720896 LnRSAI=           0
 LnScr1=           0 LExtra=           0 Total=       806268
 MaxDsk=          -1 SrtSym=           F ITran=            4
 DoSDTr:  NPSUse=  8
 JobTyp=1 Pass  1:  I=   1 to   1.
 (rs|ai) integrals will be sorted in core.
 Complete sort for first half transformation.
 First half transformation complete.
 Complete sort for second half transformation.
 Second half transformation complete.
 Spin components of T(2) and E(2):
     alpha-alpha T2 =       0.0000000000D+00 E2=      0.0000000000D+00
     alpha-beta  T2 =       0.0000000000D+00 E2=      0.0000000000D+00
     beta-beta   T2 =       0.0000000000D+00 E2=      0.0000000000D+00
 ANorm=    0.1000000000D+01
 E2 =     0.0000000000D+00 EUMP2 =    -0.16185803797269D+03
 Leave Link  804 at Mon Oct  5 21:27:59 2020, MaxMem=   268435456 cpu:               2.4 elap:               0.4
 (Enter /applis/site/cecic/gaussian16/B.01/nehalem/g16/l913.exe)
 CIDS:  MDV=   268435456.
 Frozen-core window:  NFC=   5 NFV=   0.
 IFCWin=0 IBDFC=1 NFBD=     0     0 NFCmp=     0     0 NFFFC=     0     0
 Using original routines for 1st iteration.
 Using DD4UQ or CC4UQ for 2nd and later iterations.
 Keep R2 and R3 ints in memory in symmetry-blocked form, NReq=4757670.
 FoFCou: FMM=F IPFlag=           0 FMFlag=           0 FMFlg1=           0
         NFxFlg=           0 DoJE=F BraDBF=F KetDBF=F FulRan=T
         wScrn=  0.000000 ICntrl=       600 IOpCl=  0 I1Cent=           0 NGrid=           0
         NMat0=    1 NMatS0=   1275 NMatT0=    0 NMatD0=    1 NMtDS0=    0 NMtDT0=    0
 Petite list used in FoFCou.
 CIDS: In Core Option IDoMem=           1.
 CCSD(T)
 =======
 Iterations=  50 Convergence= 0.100D-06
 Produce multiple copies of IABC intergrals
 Iteration Nr.   1
 **********************
 MP4(R+Q)=  0.00000000D+00
 Maximum subspace dimension=  5
 A-vector RMS=  0.0000000D+00 Max=  0.0000000D+00 conv= 1.00D-05.
 RLE energy=        0.0000000000
 E3=        0.00000000D+00        EUMP3=      -0.16185803797D+03
 E4(DQ)=    0.00000000D+00        UMP4(DQ)=   -0.16185803797D+03
 E4(SDQ)=   0.00000000D+00        UMP4(SDQ)=  -0.16185803797D+03
 VARIATIONAL ENERGIES WITH THE FIRST-ORDER WAVEFUNCTION:
 DE(Corr)=  0.00000000E+00 E(Corr)=     -161.85803797    
 NORM(A)=   0.10000000D+01
 Iteration Nr.   2
 **********************
 A-vector RMS=  0.0000000D+00 Max=  0.0000000D+00 conv= 1.00D-05.
 RLE energy=        0.0000000000
 DE(Corr)=  0.00000000E+00 E(CORR)=     -161.85803797     Delta= 0.00D+00
 NORM(A)=   0.10000000D+01
 CI/CC converged in    2 iterations to DelEn= 0.00D+00 Conv= 1.00D-07 ErrA1= 0.00D+00 Conv= 1.00D-05
 Wavefunction amplitudes converged. E(Corr)=     -161.85803797    
 Largest amplitude= 0.00D+00
 Time for triples=        0.00 seconds.
 T4(CCSD)=  0.00000000D+00
 T5(CCSD)=  0.00000000D+00
 CCSD(T)= -0.16185803797D+03
 Discarding MO integrals.
 Leave Link  913 at Mon Oct  5 21:27:59 2020, MaxMem=   268435456 cpu:               2.9 elap:               0.4
 (Enter /applis/site/cecic/gaussian16/B.01/nehalem/g16/l601.exe)
 Copying SCF densities to generalized density rwf, IOpCl= 1 IROHF=0.

 **********************************************************************

            Population analysis using the SCF Density.

 **********************************************************************

 Orbital symmetries:
 Alpha Orbitals:
       Occupied  (A1G) (A1G) (T1U) (T1U) (T1U) (A1G)
       Virtual   (T1U) (T1U) (T1U) (A1G) (T1U) (T1U) (T1U) (T2G)
                 (T2G) (T2G) (EG) (EG) (T1U) (T1U) (T1U) (A1G)
                 (EG) (T2G) (T2G) (T2G) (EG) (?A) (?A) (?A) (?A)
                 (?A) (?A) (A2U) (T1U) (T1U) (T1U) (EG) (T2G) (EG)
                 (T2G) (T2G) (?A) (?A) (?A) (A2U) (?A) (?A) (?A)
                 (A1G)
 Beta  Orbitals:
       Occupied  (A1G) (A1G) (T1U) (T1U) (T1U)
       Virtual   (A1G) (T1U) (T1U) (T1U) (A1G) (T1U) (T1U) (T1U)
                 (T2G) (T2G) (T2G) (EG) (EG) (T1U) (T1U) (T1U)
                 (A1G) (EG) (T2G) (T2G) (EG) (T2G) (?A) (?A) (?A)
                 (?A) (?A) (?A) (A2U) (T1U) (T1U) (T1U) (EG) (T2G)
                 (EG) (T2G) (T2G) (?A) (?A) (?A) (?A) (A2U) (?A)
                 (?A) (A1G)
 The electronic state is 2-A1G.
 Alpha  occ. eigenvalues --  -40.48002  -2.80062  -1.51910  -1.51910  -1.51910
 Alpha  occ. eigenvalues --   -0.18220
 Alpha virt. eigenvalues --    0.01104   0.01104   0.01104   0.01909   0.03434
 Alpha virt. eigenvalues --    0.03434   0.03434   0.07118   0.07118   0.07118
 Alpha virt. eigenvalues --    0.07118   0.07118   0.10665   0.10665   0.10665
 Alpha virt. eigenvalues --    0.13979   0.22545   0.22545   0.22545   0.22545
 Alpha virt. eigenvalues --    0.22545   0.26951   0.26951   0.26951   0.26951
 Alpha virt. eigenvalues --    0.26951   0.26951   0.26951   0.33714   0.33714
 Alpha virt. eigenvalues --    0.33714   0.57366   0.57366   0.57366   0.57366
 Alpha virt. eigenvalues --    0.57366   0.73784   0.73784   0.73784   0.73784
 Alpha virt. eigenvalues --    0.73784   0.73784   0.73784   1.75220
  Beta  occ. eigenvalues --  -40.47739  -2.79351  -1.51693  -1.51693  -1.51693
  Beta virt. eigenvalues --    0.00525   0.01462   0.01462   0.01462   0.03900
  Beta virt. eigenvalues --    0.04940   0.04940   0.04940   0.07487   0.07487
  Beta virt. eigenvalues --    0.07487   0.07487   0.07487   0.12994   0.12994
  Beta virt. eigenvalues --    0.12994   0.17340   0.24037   0.24037   0.24037
  Beta virt. eigenvalues --    0.24037   0.24037   0.27636   0.27636   0.27636
  Beta virt. eigenvalues --    0.27636   0.27636   0.27636   0.27636   0.35848
  Beta virt. eigenvalues --    0.35848   0.35848   0.58792   0.58792   0.58792
  Beta virt. eigenvalues --    0.58792   0.58792   0.74898   0.74898   0.74898
  Beta virt. eigenvalues --    0.74898   0.74898   0.74898   0.74898   1.76786
          Condensed to atoms (all electrons):
               1
     1  Na  11.000000
          Atomic-Atomic Spin Densities.
               1
     1  Na   1.000000
 Mulliken charges and spin densities:
               1          2
     1  Na  -0.000000   1.000000
 Sum of Mulliken charges =  -0.00000   1.00000
 Mulliken charges and spin densities with hydrogens summed into heavy atoms:
               1          2
     1  Na  -0.000000   1.000000
 Electronic spatial extent (au):  <R**2>=             27.1575
 Charge=             -0.0000 electrons
 Dipole moment (field-independent basis, Debye):
    X=              0.0000    Y=              0.0000    Z=              0.0000  Tot=              0.0000
 Quadrupole moment (field-independent basis, Debye-Ang):
   XX=            -12.1759   YY=            -12.1759   ZZ=            -12.1759
   XY=              0.0000   XZ=              0.0000   YZ=             -0.0000
 Traceless Quadrupole moment (field-independent basis, Debye-Ang):
   XX=             -0.0000   YY=             -0.0000   ZZ=             -0.0000
   XY=              0.0000   XZ=              0.0000   YZ=             -0.0000
 Octapole moment (field-independent basis, Debye-Ang**2):
  XXX=              0.0000  YYY=              0.0000  ZZZ=              0.0000  XYY=              0.0000
  XXY=              0.0000  XXZ=              0.0000  XZZ=              0.0000  YZZ=              0.0000
  YYZ=              0.0000  XYZ=              0.0000
 Hexadecapole moment (field-independent basis, Debye-Ang**3):
 XXXX=            -57.3168 YYYY=            -57.3168 ZZZZ=            -57.3168 XXXY=              0.0000
 XXXZ=              0.0000 YYYX=              0.0000 YYYZ=             -0.0000 ZZZX=              0.0000
 ZZZY=             -0.0000 XXYY=            -19.1056 XXZZ=            -19.1056 YYZZ=            -19.1056
 XXYZ=             -0.0000 YYXZ=              0.0000 ZZXY=              0.0000
 N-N= 0.000000000000D+00 E-N=-3.897306235608D+02  KE= 1.618563829057D+02
 Symmetry AG   KE= 1.265041896684D+02
 Symmetry B1G  KE= 1.161163440879D-61
 Symmetry B2G  KE= 1.059327711039D-61
 Symmetry B3G  KE= 1.404412103635D-61
 Symmetry AU   KE= 4.593706646019D-62
 Symmetry B1U  KE= 1.178406441241D+01
 Symmetry B2U  KE= 1.178406441241D+01
 Symmetry B3U  KE= 1.178406441241D+01
 Symmetry AG   SP= 1.000000000000D+00
 Symmetry B1G  SP= 1.441988245862D-61
 Symmetry B2G  SP= 1.351405800879D-61
 Symmetry B3G  SP= 1.826647989001D-61
 Symmetry AU   SP=-3.087160340499D-62
 Symmetry B1U  SP= 5.983169688861D-16
 Symmetry B2U  SP= 8.240597196589D-16
 Symmetry B3U  SP= 8.224664506851D-16
 Leave Link  601 at Mon Oct  5 21:28:00 2020, MaxMem=   268435456 cpu:               0.9 elap:               0.2
 (Enter /applis/site/cecic/gaussian16/B.01/nehalem/g16/l9999.exe)
 1\1\GINC-DAHU117\SP\UCCSD(T)-FC\Aug-CC-pVTZ\Na1(2)\TINACCIL\05-Oct-202
 0\0\\#P CCSD(T)/aug-cc-pvtz\\Title\\0,2\Na\\Version=ES64L-G16RevB.01\S
 tate=2-A1G\HF=-161.858038\MP2=-161.858038\MP3=-161.858038\MP4D=-161.85
 8038\MP4DQ=-161.858038\MP4SDQ=-161.858038\CCSD=-161.858038\CCSD(T)=-16
 1.858038\S2=0.750055\S2-1=0.\S2A=0.75\RMSD=1.906e-09\PG=OH [O(Na1)]\\@


 Other things may change us, but we start and end with family.
 -- Anthony Brandt
 Job cpu time:       0 days  0 hours  0 minutes 27.6 seconds.
 Elapsed time:       0 days  0 hours  0 minutes  4.4 seconds.
 File lengths (MBytes):  RWF=     19 Int=      0 D2E=      0 Chk=      2 Scr=      1
 Normal termination of Gaussian 16 at Mon Oct  5 21:28:00 2020.
