[Molden Format]
[Title]
[Atoms] AU
N      1     7 -0.27782137862328E+01 -0.12950320862570E+00  0.29204685712406E+00
C      2     6 -0.11130825211454E+01  0.16897800183145E+01  0.41453629347134E-01
C      3     6  0.12322188263901E+01  0.59909863069859E-01 -0.12702410183830E+00
C      4     6 -0.93346604508976E+00 -0.17856307147797E+01  0.17521493434894E+00
C      5     6  0.35925435260778E+01  0.16544404202102E+00 -0.38169131898184E+00
[GTO]
           1 0
 s           4   1.0000000000000000     
   63.594024466941008      -0.19234388414721629     
   10.951417231523665      -0.23478107924953728     
  0.87999310257376984       0.37593753901700888     
  0.33538715296521110       0.14982889271862770     
 p           4   1.0000000000000000     
   7.2965040481495080       0.97658666315667420     
   1.8918745450712575       0.90372226730345739     
  0.66694432110824120       0.47404958461536373     
  0.26552202674130870        7.1516067715011844E-002

           2 0
 s           4   1.0000000000000000     
   51.049363095579913      -0.16312063210127389     
   8.7911227406887544      -0.19911024581000730     
  0.70640422258929825       0.31882047753655751     
  0.26922813413411617       0.12706504184240380     
 p           4   1.0000000000000000     
   5.8263656140800002       0.73716451545209605     
   1.5106896018720002       0.68216371614850257     
  0.53256483288000001       0.35783053929253711     
  0.21202323690600003        5.3983030275847881E-002

           3 0
 s           4   1.0000000000000000     
   51.049363095579913      -0.16312063210127389     
   8.7911227406887544      -0.19911024581000730     
  0.70640422258929825       0.31882047753655751     
  0.26922813413411617       0.12706504184240380     
 p           4   1.0000000000000000     
   5.8263656140800002       0.73716451545209605     
   1.5106896018720002       0.68216371614850257     
  0.53256483288000001       0.35783053929253711     
  0.21202323690600003        5.3983030275847881E-002

           4 0
 s           4   1.0000000000000000     
   51.049363095579913      -0.16312063210127389     
   8.7911227406887544      -0.19911024581000730     
  0.70640422258929825       0.31882047753655751     
  0.26922813413411617       0.12706504184240380     
 p           4   1.0000000000000000     
   5.8263656140800002       0.73716451545209605     
   1.5106896018720002       0.68216371614850257     
  0.53256483288000001       0.35783053929253711     
  0.21202323690600003        5.3983030275847881E-002

           5 0
 s           4   1.0000000000000000     
   51.049363095579913      -0.16312063210127389     
   8.7911227406887544      -0.19911024581000730     
  0.70640422258929825       0.31882047753655751     
  0.26922813413411617       0.12706504184240380     
 p           4   1.0000000000000000     
   5.8263656140800002       0.73716451545209605     
   1.5106896018720002       0.68216371614850257     
  0.53256483288000001       0.35783053929253711     
  0.21202323690600003        5.3983030275847881E-002

[MO]
Sym=     1a
Ene=  -0.74362006576336770     
Spin= Alpha
Occup=     2.00000000
           1 -0.36722072627471852     
           2 -0.22726317976123064     
           3  -1.0895059327019859E-002
           4   2.3786566651837600E-002
           5 -0.30789613549717149     
           6   1.4652866010231783E-002
           7  0.16125381852249174     
           8  -8.5785788460560931E-003
           9 -0.22349966512945058     
          10  0.11952670660854395     
          11   5.7102138042165696E-003
          12  -1.2408314879402050E-002
          13 -0.30734217637539907     
          14   3.0975019427277827E-002
          15 -0.15887253249536923     
          16   3.7653213918282425E-003
          17  -3.8959793489627761E-002
          18   3.8086293679042878E-002
          19   1.7501533947490045E-003
          20  -4.0527056856798577E-003
Sym=     2a
Ene=  -0.68537409142601757     
Spin= Alpha
Occup=     2.00000000
           1 -0.22159177114218584     
           2  -2.7252088606355137E-002
           3  -1.7859673486602674E-003
           4   2.8036773792634723E-003
           5  -1.2338748080098317E-002
           6  0.14063940627679725     
           7   1.6691379136767128E-002
           8  -1.5260305530486322E-002
           9  0.47224744633919952     
          10  0.19126658949608824     
          11   8.3721891046273731E-003
          12  -2.0706383184531611E-002
          13  -1.1134295121125421E-002
          14  0.14144061386657289     
          15  -3.2806878508976974E-003
          16  -1.4467776816349275E-002
          17  0.46475511700441985     
          18 -0.18384322261596744     
          19  -8.2505441537829745E-003
          20   1.9804174304764558E-002
Sym=     3a
Ene=  -0.63520613627784073     
Spin= Alpha
Occup=     2.00000000
           1  -1.2884313362810053E-003
           2   2.4861084684043841E-002
           3 -0.47515699622964597     
           4   1.8257454724064860E-002
           5 -0.46450700328104194     
           6   9.8723893530452758E-002
           7  -3.5635961762739227E-002
           8  -8.5981595815309148E-003
           9  -2.6306114824683585E-004
          10   8.5019555683061559E-003
          11 -0.19764203018313883     
          12   7.7860299565876753E-003
          13  0.46542822581946180     
          14  -9.3309868951466576E-002
          15  -4.3846902474170925E-002
          16   1.1525214136862005E-002
          17  -1.8521174225270686E-003
          18   2.8189576276245808E-003
          19  -5.1480556375649099E-002
          20   1.9638275366607072E-003
Sym=     4a
Ene=  -0.62180775051875492     
Spin= Alpha
Occup=     2.00000000
           1 -0.50464071215124995     
           2  0.12260102948742645     
           3   6.9678027727585450E-003
           4  -1.2578317295122658E-002
           5  0.10417843947071094     
           6  0.26669189469924426     
           7   2.5484933691812301E-003
           8  -2.7190044261817328E-002
           9  0.14357478857081760     
          10 -0.34849297824659997     
          11  -1.4658462727500732E-002
          12   3.7102346184329699E-002
          13  0.10043368503217563     
          14  0.26458651185742638     
          15   2.3292885794504642E-002
          16  -2.7883188263657516E-002
          17 -0.37724196732249898     
          18   1.1575205055138276E-002
          19   7.0911527379537251E-004
          20  -1.4171561038495257E-003
Sym=     5a
Ene=  -0.57213242543317933     
Spin= Alpha
Occup=     2.00000000
           1   5.3958786791361794E-004
           2   5.7939988777631908E-002
           3   2.4835513641234166E-002
           4  0.56733524948686664     
           5  -1.7475016505613322E-004
           6   3.7795591489506071E-002
           7   1.6211587246386938E-002
           8  0.37008781755053333     
           9   6.3054376349896025E-004
          10   3.2140224379420455E-002
          11   1.3459409714910487E-002
          12  0.30679494080021791     
          13  -1.6956427986519052E-004
          14   3.7696629331991860E-002
          15   1.6133445989195146E-002
          16  0.36898578576090896     
          17   2.7677542628796840E-004
          18   1.3834407609361599E-002
          19   5.7897133141691761E-003
          20  0.13195636765879842     
Sym=     6a
Ene=  -0.56411369836032077     
Spin= Alpha
Occup=     2.00000000
           1  -1.3091356841855720E-003
           2  -1.6180208844766099E-002
           3  0.32049553164698791     
           4  -1.2384449584230671E-002
           5 -0.12768715585986096     
           6 -0.33699094408264507     
           7  -7.0816937418529707E-002
           8   3.7642172661693944E-002
           9  -4.1714622317966243E-004
          10   2.4323667909074118E-002
          11 -0.49585207121469188     
          12   1.9215200776866309E-002
          13  0.12865281772006726     
          14  0.34369048471355801     
          15  -3.9051054425482429E-002
          16  -3.3530367814614888E-002
          17  -7.3392222041498317E-004
          18   1.1828996376188745E-002
          19 -0.24131814069949789     
          20   9.3521387458146300E-003
Sym=     7a
Ene=  -0.49221783888412207     
Spin= Alpha
Occup=     2.00000000
           1  0.41708552261105691     
           2 -0.55580632961600962     
           3  -2.6361813568051631E-002
           4   5.4512204785678246E-002
           5 -0.11180030551047533     
           6   7.8992571675165546E-002
           7   1.2870327890324763E-002
           8  -9.3824996162743118E-003
           9  0.29562435922928026     
          10  -4.4696777787079027E-002
          11  -1.8765266914312659E-003
          12   9.0933736264459334E-003
          13 -0.11141839686749914     
          14   8.0514966411145902E-002
          15  -5.3219056975727036E-003
          16  -8.7323697085083824E-003
          17 -0.48620569425953569     
          18 -0.40253866865657878     
          19  -1.7995059499592517E-002
          20   4.7239086866539527E-002
Sym=     8a
Ene=  -0.48371254540466468     
Spin= Alpha
Occup=     2.00000000
           1   3.5232110411684840E-003
           2   3.9789260635648610E-002
           3   1.8972282050822232E-002
           4  0.43945069627714883     
           5  -5.7268184967685818E-004
           6   7.6910114529679125E-003
           7   3.3801274537251171E-003
           8   6.6257401913170935E-002
           9   1.2842895810153618E-003
          10  -5.9959128256080414E-002
          11  -2.4954610029165700E-002
          12 -0.56790590904656735     
          13  -5.6951418312309852E-004
          14   7.6145724628411526E-003
          15   2.4663930226745418E-003
          16   6.5076155005082778E-002
          17  -2.9043367643790826E-003
          18  -6.2440390750280503E-002
          19  -2.4993826443750981E-002
          20 -0.56575410146587757     
Sym=     9a
Ene=  -0.46988717320141349     
Spin= Alpha
Occup=     1.99999998
           1  -2.5391781953455501E-002
           2  0.21748243601015479     
           3   1.0342640668749490E-002
           4  -2.2354394833182151E-002
           5 -0.48781225145498930     
           6   2.7228572399362546E-002
           7 -0.48305120736701967     
           8   1.8383959093722230E-002
           9   3.6734804476109634E-002
          10   2.4921509007861239E-003
          11  -3.3155342092980328E-004
          12  -7.9331001478079582E-004
          13 -0.48879684616680558     
          14  -2.1670459105539226E-002
          15  0.48308826963052964     
          16  -1.8907929365464916E-002
          17  -6.0827185643922255E-002
          18  -4.8399092244998762E-002
          19  -2.3488291978281807E-003
          20   4.6210372985279616E-003
Sym=    10a
Ene=  -0.43643854681202870     
Spin= Alpha
Occup=     1.00000002
           1 -0.26257727099879569     
           2  0.47772722444248983     
           3   2.3738555169933517E-002
           4  -4.8933108449091454E-002
           5   6.7521520131336582E-002
           6 -0.23150296196495482     
           7   8.3896869653595676E-002
           8   1.9980798524172637E-002
           9  -3.5416884721779035E-002
          10  0.31213630916086776     
          11   1.5444218578074789E-002
          12  -3.4081594045004472E-002
          13   7.0509825396897818E-002
          14 -0.22021605864028460     
          15 -0.10807909053489941     
          16   2.7226024763391348E-002
          17 -0.40518001141162052     
          18 -0.55884249642167638     
          19  -2.1618985693708286E-002
          20   5.9580596444901865E-002
Sym=    11a
Ene=  -0.41429479866319879     
Spin= Alpha
Occup=     1.00000000
           1   8.9730069547964454E-004
           2  -1.5623168527246217E-002
           3  0.26191435479575570     
           4  -9.8728160578540943E-003
           5 -0.29749097730436685     
           6 -0.14250584863492605     
           7 -0.32108515823042705     
           8   2.8548023665694318E-002
           9   4.8828752270033517E-004
          10  -1.1096515504835862E-002
          11  0.18851035755185244     
          12  -7.1099350054333712E-003
          13  0.29695264703580787     
          14  0.17730093321761972     
          15 -0.30442370659663603     
          16  -4.7236393043515179E-003
          17   1.6029075661071945E-003
          18  -3.1365229855350701E-002
          19  0.70272830790009910     
          20  -2.7567826668502854E-002
Sym=    12a
Ene=  -0.36801721106905450     
Spin= Alpha
Occup=     1.00000000
           1   7.8063767849869528E-007
           2  -2.0278061076518784E-006
           3   2.2346121553034140E-004
           4   9.6196441665732739E-005
           5  -2.0929658771585931E-004
           6   7.4873938664551776E-002
           7   3.1548723367183680E-002
           8  0.72931479124038257     
           9   1.4126371885646312E-007
          10  -1.4142460130604672E-005
          11   3.2957566866236818E-004
          12   1.9507499468059625E-005
          13   2.0932528755132678E-004
          14  -7.5084126477922050E-002
          15  -3.2433366947568418E-002
          16 -0.73174922460765823     
          17   4.1563805305709072E-007
          18   1.5165616109740523E-004
          19  -2.8907184533440855E-004
          20   1.2685250663672268E-003
Sym=    13a
Ene=  -0.32050202878767897     
Spin= Alpha
Occup=     0.00000000
           1   1.5029019164166529E-004
           2  -1.2689120359303191E-002
           3  0.25005248582174910     
           4  -9.6622046571299847E-003
           5  -7.2972728019031943E-002
           6  0.22344547373194637     
           7 -0.53078646479333536     
           8  -2.3525772118047198E-004
           9   5.2826302613171079E-004
          10  -1.5860907451496879E-002
          11  0.31538694026790665     
          12  -1.2175028153770374E-002
          13   7.2247731040193885E-002
          14 -0.16838649146715384     
          15 -0.54944928836457230     
          16   4.1909426047988835E-002
          17   1.9834772953710366E-004
          18   2.8980981263748845E-002
          19 -0.59314166068635377     
          20   2.2985325735549410E-002
Sym=    14a
Ene=  -0.31840987926651099     
Spin= Alpha
Occup=     0.00000000
           1  -2.5387732393305633E-004
           2  -6.2347618807778671E-002
           3  -2.6847108756557370E-002
           4 -0.61363225839937463     
           5  -1.6722504122466830E-004
           6   3.8639333468453739E-002
           7   1.7044181633828186E-002
           8  0.38334625594045613     
           9   7.2746791844119319E-004
          10   3.5166856282582683E-002
          11   1.4800463298394200E-002
          12  0.33753333107254646     
          13  -1.7111676467023216E-004
          14   3.8406882789425806E-002
          15   1.6375160013148114E-002
          16  0.38072946837926586     
          17   2.2595351302441284E-004
          18  -6.8377456208823226E-002
          19  -2.8330970567349085E-002
          20 -0.64469876898051615     
Sym=    15a
Ene=  -0.17720457828772521     
Spin= Alpha
Occup=     0.00000000
           1   1.2184803748709432E-004
           2  -4.2756839662620207E-002
           3  -1.8065170424009031E-002
           4 -0.41198566713080254     
           5   2.5203749355494045E-004
           6   4.9857870760270789E-002
           7   2.0661974592128762E-002
           8  0.47848726091572003     
           9  -2.1263103243220911E-003
          10  -7.8342375942703810E-002
          11  -3.3079887920041282E-002
          12 -0.75423878474517725     
          13   2.4791142492831841E-004
          14   4.9723667350240912E-002
          15   2.1272476106113394E-002
          16  0.47753511058272363     
          17   4.3243617424303801E-005
          18   5.6786729325852707E-002
          19   2.3994582373402379E-002
          20  0.54714502142615073     
Sym=    16a
Ene=    5.0403132523363488E-002
Spin= Alpha
Occup=     0.00000000
           1  -3.9721020184138034E-003
           2  -4.7918835672055024E-003
           3   7.7873179401769091E-002
           4  -2.9216604695148076E-003
           5 -0.46323137195695185     
           6 -0.43554743455942319     
           7  0.38038145935610690     
           8   2.7843943277306427E-002
           9   1.0699625231768282E-002
          10  -4.9764154720859190E-002
          11  0.91749129622395553     
          12  -3.5102850817505998E-002
          13  0.46008008086322022     
          14  0.38096761701575699     
          15  0.41744823625672350     
          16  -5.7167886942299115E-002
          17  -1.5520486016018763E-003
          18   2.3961904882285431E-002
          19 -0.39722488752793500     
          20   1.4941911808478155E-002
Sym=    17a
Ene=    7.8159628632559333E-002
Spin= Alpha
Occup=     0.00000000
           1  0.40378734293451746     
           2  0.14689748578878067     
           3   4.0450413529963987E-003
           4  -1.5115003478255014E-002
           5  0.15265483141281472     
           6  0.65985139618412003     
           7  -7.5889099054295750E-002
           8  -6.4680923383695077E-002
           9 -0.90437548723716155     
          10  0.45275074710974400     
          11   3.2620665130705023E-002
          12  -4.5919571721693538E-002
          13  0.15896558638571220     
          14  0.66155571124231172     
          15  0.14351895164254669     
          16  -7.4458752319285115E-002
          17   7.7073424118921458E-002
          18 -0.28829897558247020     
          19  -1.7658897354308430E-002
          20   2.9922428838498508E-002
Sym=    18a
Ene=   0.24967546829784310     
Spin= Alpha
Occup=     0.00000000
           1   9.7290816815311116E-003
           2   6.0928028564006122E-002
           3 -0.97432441313775808     
           4   3.6412176886284807E-002
           5  0.43512224713993963     
           6 -0.58758713010354791     
           7 -0.41449592824932058     
           8   7.8430503472384561E-002
           9   1.2228126037795035E-002
          10  -1.2602366585012901E-002
          11  0.22287232267440854     
          12  -8.5012003846465459E-003
          13 -0.44989331274395900     
          14  0.63044307161082669     
          15 -0.37357490066510085     
          16  -4.8306702014447304E-002
          17  -4.2001712467488609E-003
          18   9.6950726900112815E-003
          19  -5.5319968393040736E-002
          20   1.4192511136679967E-003
Sym=    19a
Ene=   0.34908399824761027     
Spin= Alpha
Occup=     0.00000000
           1  0.82283492959468096     
           2  0.77872078694940738     
           3   5.1924598400660736E-002
           4  -8.2315960908627361E-002
           5 -0.47871153673063438     
           6  0.25821387956732783     
           7  0.51827170722135651     
           8  -4.8916357370897230E-002
           9  0.55380735097282308     
          10   8.1212823619472810E-002
          11  -1.3590795986433226E-003
          12  -1.0030776422301562E-002
          13 -0.46461940978389332     
          14  0.28960519688412922     
          15 -0.47994752673824631     
          16  -8.4260242200969102E-003
          17 -0.28038045224237051     
          18  0.39886765657087192     
          19   1.9236118078365998E-002
          20  -4.2567819790355586E-002
Sym=    20a
Ene=   0.85937009354132021     
Spin= Alpha
Occup=     0.00000000
           1 -0.24948288390744380     
           2 -0.24717341687782488     
           3  -1.2191219595539067E-002
           4   2.5756187549853496E-002
           5  0.34296225358929239     
           6   7.9526587859625006E-002
           7 -0.30402734954198163     
           8   5.7249961470994875E-003
           9  0.50003390794733682     
          10   1.2529556303734579     
          11   5.6081653256279611E-002
          12 -0.13397179339038492     
          13  0.34010950251241368     
          14   4.6844399185884809E-002
          15  0.30833885672255607     
          16  -1.7739555807040376E-002
          17 -0.85994448597210604     
          18  0.91129579714346176     
          19   4.0753145932028528E-002
          20  -9.8650178375537162E-002
