5
 energy: -11.010159896735 gnorm: 0.000914858690 xtb: 6.2.2 (9d81278992624c895f80dd42a50cac0aa55982e2)
N        -1.47016755909288   -0.06853015310176    0.15454455564452
C        -0.58901795869361    0.89419316009444    0.02193631799497
C         0.65206218226952    0.03170293718628   -0.06721826616475
C        -0.49396900404364   -0.94491516901897    0.09271975886985
C         1.90109233956061    0.08754922484001   -0.20198236634460
