$hessian                                                                        
        0.3757146056  -0.0544591716  -0.0010867437  -0.2095162961   0.1269592637
        0.0025343756  -0.1438478089  -0.0639324669   0.0086809832  -0.0102805293
        0.0001625004  -0.0015597089  -0.0120699714  -0.0087301256  -0.0085689062
       -0.0544591716   0.3516594475  -0.0001792848   0.1461102422  -0.1329223411
       -0.0009632164  -0.0801181277  -0.0520557673   0.0057718769  -0.0017322665
       -0.0756178009   0.0831676786  -0.0098006763  -0.0910635382  -0.0877970544
       -0.0010867437  -0.0001792848   0.2920202735   0.0018400147  -0.0002619322
       -0.0140352443   0.0092647620   0.0051523627   0.0173480917   0.0145073542
        0.1099437948  -0.1562821089  -0.0245253872  -0.1146549406  -0.1390510119
       -0.2095162961   0.1461102422   0.0018400147   0.3127313373  -0.1883570498
       -0.0039168872  -0.0750377386   0.0047313102   0.0024853865  -0.0150774357
        0.0185973211  -0.0106470350  -0.0130998668   0.0189181764   0.0102385210
        0.1269592637  -0.1329223411  -0.0002619322  -0.1883570498   0.1606387047
        0.0016815089   0.0205723363   0.0133233620  -0.0014770712   0.0201805508
       -0.0199089178   0.0092554717   0.0206448990  -0.0211308078  -0.0091979772
        0.0025343756  -0.0009632164  -0.0140352443  -0.0039168872   0.0016815089
        0.0188128074   0.0018957376  -0.0008820288  -0.0047699699  -0.0154265647
        0.0065791746   0.0003651516   0.0149133386  -0.0064154384  -0.0003727448
       -0.1438478089  -0.0801181277   0.0092647620  -0.0750377386   0.0205723363
        0.0018957376   0.2379293054   0.0844311034  -0.0127349880  -0.0094160818
       -0.0123122900   0.0076672385  -0.0096276760  -0.0125730220  -0.0060927502
       -0.0639324669  -0.0520557673   0.0051523627   0.0047313102   0.0133233620
       -0.0008820288   0.0844311034   0.0618694120  -0.0060006875  -0.0125595092
       -0.0114869963   0.0065979194  -0.0126704375  -0.0116500104  -0.0048675658
        0.0086809832   0.0057718769   0.0173480917   0.0024853865  -0.0014770712
       -0.0047699699  -0.0127349880  -0.0060006875  -0.0086361300  -0.0034636321
       -0.0027285148  -0.0021548773   0.0050322505   0.0044343965  -0.0017871146
       -0.0102805293  -0.0017322665   0.0145073542  -0.0150774357   0.0201805508
       -0.0154265647  -0.0094160818  -0.0125595092  -0.0034636321   0.0236928777
       -0.0127733061   0.0059482676   0.0110811691   0.0068845309  -0.0015654249
        0.0001625004  -0.0756178009   0.1099437948   0.0185973211  -0.0199089178
        0.0065791746  -0.0123122900  -0.0114869963  -0.0027285148  -0.0127733061
        0.0951476173  -0.1048726130   0.0063257746   0.0118660976  -0.0089218417
       -0.0015597089   0.0831676786  -0.1562821089  -0.0106470350   0.0092554717
        0.0003651516   0.0076672385   0.0065979194  -0.0021548773   0.0059482676
       -0.1048726130   0.1790215488  -0.0014087622   0.0058515433  -0.0209497142
       -0.0120699714  -0.0098006763  -0.0245253872  -0.0130998668   0.0206448990
        0.0149133386  -0.0096276760  -0.0126704375   0.0050322505   0.0110811691
        0.0063257746  -0.0014087622   0.0237163451  -0.0044995598   0.0059885603
       -0.0087301256  -0.0910635382  -0.1146549406   0.0189181764  -0.0211308078
       -0.0064154384  -0.0125730220  -0.0116500104   0.0044343965   0.0068845309
        0.0118660976   0.0058515433  -0.0044995598   0.1119782587   0.1107844391
       -0.0085689062  -0.0877970544  -0.1390510119   0.0102385210  -0.0091979772
       -0.0003727448  -0.0060927502  -0.0048675658  -0.0017871146  -0.0015654249
       -0.0089218417  -0.0209497142   0.0059885603   0.1107844391   0.1621605854
