[Molden Format]
[Title]
[Atoms] AU
C      1     6 -0.10783105928471E+00  0.96772087613835E-02  0.37472446864641E-02
N      2     7 -0.21809203844648E+01  0.14432691126897E+01  0.27185815586174E-01
C      3     6  0.24452920884161E+01  0.10831990525388E+01 -0.13573024918259E+00
H      4     1 -0.14289764855263E-01 -0.12029005503962E+01  0.17251388164980E+01
H      5     1 -0.14224899007556E+00 -0.13332429338775E+01 -0.16203416275980E+01
[GTO]
           1 0
 s           4   1.0000000000000000     
   51.049363095579913      -0.16312063210127389     
   8.7911227406887544      -0.19911024581000730     
  0.70640422258929825       0.31882047753655751     
  0.26922813413411617       0.12706504184240380     
 p           4   1.0000000000000000     
   5.8263656140800002       0.73716451545209605     
   1.5106896018720002       0.68216371614850257     
  0.53256483288000001       0.35783053929253711     
  0.21202323690600003        5.3983030275847881E-002

           2 0
 s           4   1.0000000000000000     
   63.594024466941008      -0.19234388414721629     
   10.951417231523665      -0.23478107924953728     
  0.87999310257376984       0.37593753901700888     
  0.33538715296521110       0.14982889271862770     
 p           4   1.0000000000000000     
   7.2965040481495080       0.97658666315667420     
   1.8918745450712575       0.90372226730345739     
  0.66694432110824120       0.47404958461536373     
  0.26552202674130870        7.1516067715011844E-002

           3 0
 s           4   1.0000000000000000     
   51.049363095579913      -0.16312063210127389     
   8.7911227406887544      -0.19911024581000730     
  0.70640422258929825       0.31882047753655751     
  0.26922813413411617       0.12706504184240380     
 p           4   1.0000000000000000     
   5.8263656140800002       0.73716451545209605     
   1.5106896018720002       0.68216371614850257     
  0.53256483288000001       0.35783053929253711     
  0.21202323690600003        5.3983030275847881E-002

           4 0
 s           3   1.0000000000000000     
   3.3702276975336001       0.27359110588908298     
  0.61389118221497996       0.26460540653860526     
  0.16614291148415999        8.2465947534082318E-002

           5 0
 s           3   1.0000000000000000     
   3.3702276975336001       0.27359110588908298     
  0.61389118221497996       0.26460540653860526     
  0.16614291148415999        8.2465947534082318E-002

[MO]
Sym=     1a
Ene=  -0.68626862021781965     
Spin= Alpha
Occup=     2.00000000
           1  0.51523724261396964     
           2   6.9720487590723846E-003
           3   7.2791337796866126E-002
           4  -3.1026443807793411E-003
           5  0.26944542880724554     
           6  0.15586078133256026     
           7  -9.8623615490416691E-002
           8  -2.1189816132160858E-003
           9  0.33758136359163160     
          10 -0.11426890598444521     
          11  -4.8781819933192055E-002
          12   6.2711639721656628E-003
          13  0.15497142680989415     
          14  0.15497138918727973     
Sym=     2a
Ene=  -0.63613141300105303     
Spin= Alpha
Occup=     2.00000000
           1   3.4063766476591976E-002
           2 -0.42221708167454014     
           3   6.3043568654784055E-002
           4   1.3692821514060797E-002
           5  0.46507394986525707     
           6  0.10106784205612103     
           7 -0.13793992003731761     
           8   1.5085200203841023E-003
           9 -0.51647718499105844     
          10   4.4113324521365828E-002
          11   6.5681007920523421E-002
          12  -4.2462359051054360E-003
          13  -2.2232441193826388E-002
          14  -2.2232379209511509E-002
Sym=     3a
Ene=  -0.58496270024801156     
Spin= Alpha
Occup=     2.00000000
           1 -0.14455362998945889     
           2   3.9677647797428592E-002
           3  0.47609862158593813     
           4  -2.0066702361097137E-002
           5  0.30846291787005442     
           6  0.12048058167381183     
           7  0.12570773546832711     
           8  -9.5058423302330115E-003
           9  0.37384009550067376     
          10  -2.2275762531205952E-002
          11  0.11138647503092931     
          12  -3.4876973396562126E-003
          13 -0.29025388486437764     
          14 -0.29025391064004574     
Sym=     4a
Ene=  -0.56208530661612810     
Spin= Alpha
Occup=     2.00000000
           1   5.6145465239567199E-008
           2  -2.1000567655999874E-002
           3  -2.1391726792881236E-002
           4 -0.54905999336027578     
           5  -5.2309168925389480E-008
           6  -1.1769456305074668E-002
           7  -1.1988661103406880E-002
           8 -0.30771238668543333     
           9   8.2344109097122609E-008
          10  -7.1370872997638633E-003
          11  -7.2700173389689086E-003
          12 -0.18659953085261691     
          13 -0.33194541801197125     
          14  0.33194540381608895     
Sym=     5a
Ene=  -0.48326883068137322     
Spin= Alpha
Occup=     2.00000000
           1  0.19595946359251576     
           2  0.12923789701980770     
           3  0.24704111405772411     
           4  -1.4568012901996899E-002
           5 -0.41645962113071666     
           6  0.43729560059277783     
           7  0.12147943041990457     
           8  -2.1458768308216483E-002
           9 -0.50453678846900030     
          10 -0.44304113931004696     
          11  -3.6174861621943437E-002
          12   1.8354958812228400E-002
          13  -5.9296796440820851E-002
          14  -5.9296831037857350E-002
Sym=     6a
Ene=  -0.45102367607684468     
Spin= Alpha
Occup=     2.00000000
           1  -3.0098847572211027E-002
           2  0.30576146793332243     
           3  -5.4259485986141484E-002
           4  -9.5809093521093923E-003
           5  0.52891282789022576     
           6 -0.34283284684074661     
           7  0.50018671959056615     
           8  -6.3748256899605138E-003
           9 -0.28786147551883395     
          10 -0.26806183335292788     
          11 -0.26140547685248361     
          12   2.0437416265724890E-002
          13   5.0057677623779238E-002
          14   5.0057703922993094E-002
Sym=     7a
Ene=  -0.40131876566338764     
Spin= Alpha
Occup=     1.00000000
           1  -4.4019358938011903E-008
           2   3.5556356829634676E-003
           3   3.6218757500199894E-003
           4   9.2962649447272824E-002
           5  -4.1737914643111357E-009
           6  -3.3959363164955292E-002
           7  -3.4591795815532442E-002
           8 -0.88786627394052597     
           9   2.2589683781148479E-008
          10   1.5194720065633717E-002
          11   1.5477574442182103E-002
          12  0.39726400357079700     
          13  0.18823886011925373     
          14 -0.18823883184003934     
Sym=     8a
Ene=  -0.38172503665483420     
Spin= Alpha
Occup=     1.00000000
           1  -5.3631358556690115E-002
           2 -0.13007156042361223     
           3 -0.12905399906785620     
           4   1.0003045920905772E-002
           5  -7.8304936913799871E-003
           6  0.50212817762978090     
           7  0.71588689035667985     
           8  -4.7096874893562429E-002
           9   6.6136141007926808E-002
          10  0.40388427225173823     
          11  0.12250634406824380     
          12  -2.0220747223557926E-002
          13  0.18355370478782326     
          14  0.18355376433974335     
Sym=     9a
Ene=  -0.35388198326470710     
Spin= Alpha
Occup=     0.97342301
           1  -8.5397141947025947E-003
           2   1.2656024209439358E-002
           3  -7.8486313908995395E-002
           4   2.5737715372095944E-003
           5  -7.7889636451995706E-005
           6 -0.22377473176621121     
           7  0.11470690868843089     
           8   4.0899998434555324E-003
           9   6.9162627827881122E-004
          10 -0.33145787975201002     
          11  0.90785253467784433     
          12  -2.2692395401311488E-002
          13  0.14430505636783977     
          14  0.14430529585925589     
Sym=    10a
Ene=  -0.34704020794684109     
Spin= Alpha
Occup=     0.02657699
           1  -2.2462031675591966E-009
           2  -5.6836792428650940E-003
           3  -5.7894661550468079E-003
           4 -0.14859960035828168     
           5   1.4155028413531685E-010
           6   1.1736413521168948E-002
           7   1.1954816781111374E-002
           8  0.30684603837912650     
           9   3.9873736953026255E-008
          10   3.4334591116313748E-002
          11   3.4973576866833903E-002
          12  0.89767540328712736     
          13 -0.30072460595137696     
          14  0.30072442437380953     
Sym=    11a
Ene=   0.10646682897182702     
Spin= Alpha
Occup=     0.00000000
           1 -0.64659996626062610     
           2  0.18512033332955338     
           3  0.90568234118804780     
           4  -4.2367309458628356E-002
           5  -8.3696535612529502E-002
           6 -0.12233105776256230     
           7 -0.16372473381946998     
           8   1.1057959884718031E-002
           9 -0.20406908361435772     
          10  0.23260946131965404     
          11  -3.4037745849800592E-002
          12  -7.5706732577174793E-003
          13  0.71973525904828695     
          14  0.71973416514495780     
Sym=    12a
Ene=   0.13621805658002881     
Spin= Alpha
Occup=     0.00000000
           1   2.4343163775530983E-006
           2  -4.1031037955615343E-002
           3  -4.1795856386697000E-002
           4  -1.0727722848727905     
           5  -2.9541389608891233E-007
           6   9.0374822959636992E-003
           7   9.2067668220630339E-003
           8  0.23630221824150971     
           9  -8.1762817956064715E-007
          10   6.2558527070416736E-003
          11   6.3715574460397328E-003
          12  0.16352383179644189     
          13  0.78950114852738829     
          14 -0.78950289843732124     
Sym=    13a
Ene=   0.16002223039688221     
Spin= Alpha
Occup=     0.00000000
           1   1.0014514350785158     
           2  0.39963541594233676     
           3  0.38555845768802754     
           4  -3.0304784223882688E-002
           5 -0.20101450444256466     
           6 -0.40569276768792290     
           7   9.9276241627335907E-002
           8   1.1648732175973668E-002
           9 -0.48216817292786357     
          10  0.75959788951403651     
          11  0.24845689201320986     
          12  -3.8733600103187091E-002
          13 -0.18310934174607468     
          14 -0.18310619123915817     
Sym=    14a
Ene=   0.30860352293787591     
Spin= Alpha
Occup=     0.00000000
           1 -0.29564886213921437     
           2   1.0295497531408710     
           3 -0.40109244090046958     
           4  -2.3751642464759883E-002
           5  0.64174379703947870     
           6  0.63190822114637357     
           7 -0.51356919823713076     
           8  -4.1604753543019101E-003
           9 -0.29021066791550854     
          10  0.27175890592269825     
          11  0.28595490356203090     
          12  -2.1535261021679977E-002
          13  -4.5380362467807037E-002
          14  -4.5380260866689719E-002
