$hessian                                                                        
        0.3129494025  -0.1267553480  -0.1358175272  -0.2299490119   0.1064729431
        0.1707613968  -0.0589372309  -0.0173420327  -0.0202738722  -0.0240631598
        0.0376244376  -0.0146699973
       -0.1267553480   0.0602388307   0.0563968330   0.1067030010  -0.0172399464
       -0.0707759039   0.0028663949  -0.0040581536   0.0006814618   0.0171859521
       -0.0389407308   0.0136976091
       -0.1358175272   0.0563968330   0.0655465494   0.1062649322  -0.0439302067
       -0.0891682198   0.0198063838   0.0059535592   0.0118300165   0.0097462112
       -0.0184201854   0.0117916540
       -0.2299490119   0.1067030010   0.1062649322   0.3728250244  -0.0000195145
       -0.0003611506  -0.1647354813  -0.1459267720  -0.0910221056   0.0218594687
        0.0392432855  -0.0148816761
        0.1064729431  -0.0172399464  -0.0439302067  -0.0000195145   0.3728807220
        0.0004641997  -0.1455644120  -0.0838933627  -0.0688200856   0.0391109834
       -0.2717474129   0.1122860926
        0.1707613968  -0.0707759039  -0.0891682198  -0.0003611506   0.0004641997
        0.2633665002  -0.1465323455  -0.1112422467  -0.0877746537  -0.0238679006
        0.1815539509  -0.0864236267
       -0.0589372309   0.0028663949   0.0198063838  -0.1647354813  -0.1455644120
       -0.1465323455   0.2351534814   0.1731552132   0.1158993674  -0.0114807693
       -0.0304571961   0.0108265944
       -0.0173420327  -0.0040581536   0.0059535592  -0.1459267720  -0.0838933627
       -0.1112422467   0.1731552132   0.1394164450   0.0882244422  -0.0098864084
       -0.0514649287   0.0170642454
       -0.0202738722   0.0006814618   0.0118300165  -0.0910221056  -0.0688200856
       -0.0877746537   0.1158993674   0.0882244422   0.0641811220  -0.0046033896
       -0.0200858183   0.0117635152
       -0.0240631598   0.0171859521   0.0097462112   0.0218594687   0.0391109834
       -0.0238679006  -0.0114807693  -0.0098864084  -0.0046033896   0.0136844603
       -0.0464105271   0.0187250790
        0.0376244376  -0.0389407308  -0.0184201854   0.0392432855  -0.2717474129
        0.1815539509  -0.0304571961  -0.0514649287  -0.0200858183  -0.0464105271
        0.3621530723  -0.1430479472
       -0.0146699973   0.0136976091   0.0117916540  -0.0148816761   0.1122860926
       -0.0864236267   0.0108265944   0.0170642454   0.0117635152   0.0187250790
       -0.1430479472   0.0628684575
