4
 energy: -7.959125449955 gnorm: 0.197628454073 xtb: 6.2.2 (9d81278992624c895f80dd42a50cac0aa55982e2)
C         1.31731500000000   -0.54813700000000   -0.13275600000000
C         0.00122900000000   -0.00159000000000    0.37851800000000
C        -1.13444900000000   -0.86632200000000   -0.12613000000000
C        -0.18409500000000    1.41604900000000   -0.11963100000000
4
 energy: -8.005499668172 gnorm: 0.075455904921 xtb: 6.2.2 (9d81278992624c895f80dd42a50cac0aa55982e2)
C         1.22399692706232   -0.50931355267398   -0.12105317754106
C         0.00111959227989   -0.00144844123142    0.34480883760448
C        -1.05407128590303   -0.80495670146271   -0.11489661301024
C        -0.17104523343918    1.31571869536811   -0.10885804705319
4
 energy: -8.010091455891 gnorm: 0.052545054014 xtb: 6.2.2 (9d81278992624c895f80dd42a50cac0aa55982e2)
C         1.14724222394659   -0.47732654514289   -0.12948847132667
C         0.00119851834063   -0.00155834513466    0.37125994214957
C        -0.98807283067417   -0.75446016988271   -0.12371502004596
C        -0.16036791161305    1.23334506016025   -0.11805545077695
4
 energy: -8.011913563420 gnorm: 0.007022552555 xtb: 6.2.2 (9d81278992624c895f80dd42a50cac0aa55982e2)
C         1.15409630414473   -0.48014252594943   -0.14312552384081
C         0.00133133119724   -0.00172955747978    0.41206784244651
C        -0.99405244937175   -0.75893893332506   -0.13731751557043
C        -0.16137518597023    1.24081101675427   -0.13162380303526
4
 energy: -8.011981465550 gnorm: 0.001745558683 xtb: 6.2.2 (9d81278992624c895f80dd42a50cac0aa55982e2)
C         1.14723862414266   -0.47727755145272   -0.14595903108524
C         0.00135997886456   -0.00176685214346    0.42067180141674
C        -0.98816777049869   -0.75441802515301   -0.14018567769583
C        -0.16043083250854    1.23346242874918   -0.13452609263567
4
 energy: -8.011988332997 gnorm: 0.000667810366 xtb: 6.2.2 (9d81278992624c895f80dd42a50cac0aa55982e2)
C         1.14166207597052   -0.47494924228405   -0.14884702955054
C         0.00139027564812   -0.00180354833050    0.42942043000962
C        -0.98338515645331   -0.75074127139596   -0.14310242369674
C        -0.15966719516533    1.22749406201051   -0.13746997676235
4
 energy: -8.011989966831 gnorm: 0.000064457375 xtb: 6.2.2 (9d81278992624c895f80dd42a50cac0aa55982e2)
C         1.14335904678654   -0.47565833472644   -0.14793224611612
C         0.00138178059645   -0.00179189745478    0.42665100870093
C        -0.98484008775895   -0.75185880119363   -0.14217932166680
C        -0.15990073962404    1.22930903337485   -0.13653844091801
