[Molden Format]
[Title]
[Atoms] AU
C      1     6  0.21606295777775E+01 -0.89887569908226E+00 -0.27955737744772E+00
C      2     6  0.26139832821754E-02 -0.33848016278200E-02  0.80625347922511E+00
C      3     6 -0.18610862469017E+01 -0.14207978111506E+01 -0.26867097744172E+00
C      4     6 -0.30215731415148E+00  0.23230583118640E+01 -0.25802323460972E+00
[GTO]
           1 0
 s           4   1.0000000000000000     
   51.049363095579913      -0.16312063210127389     
   8.7911227406887544      -0.19911024581000730     
  0.70640422258929825       0.31882047753655751     
  0.26922813413411617       0.12706504184240380     
 p           4   1.0000000000000000     
   5.8263656140800002       0.73716451545209605     
   1.5106896018720002       0.68216371614850257     
  0.53256483288000001       0.35783053929253711     
  0.21202323690600003        5.3983030275847881E-002

           2 0
 s           4   1.0000000000000000     
   51.049363095579913      -0.16312063210127389     
   8.7911227406887544      -0.19911024581000730     
  0.70640422258929825       0.31882047753655751     
  0.26922813413411617       0.12706504184240380     
 p           4   1.0000000000000000     
   5.8263656140800002       0.73716451545209605     
   1.5106896018720002       0.68216371614850257     
  0.53256483288000001       0.35783053929253711     
  0.21202323690600003        5.3983030275847881E-002

           3 0
 s           4   1.0000000000000000     
   51.049363095579913      -0.16312063210127389     
   8.7911227406887544      -0.19911024581000730     
  0.70640422258929825       0.31882047753655751     
  0.26922813413411617       0.12706504184240380     
 p           4   1.0000000000000000     
   5.8263656140800002       0.73716451545209605     
   1.5106896018720002       0.68216371614850257     
  0.53256483288000001       0.35783053929253711     
  0.21202323690600003        5.3983030275847881E-002

           4 0
 s           4   1.0000000000000000     
   51.049363095579913      -0.16312063210127389     
   8.7911227406887544      -0.19911024581000730     
  0.70640422258929825       0.31882047753655751     
  0.26922813413411617       0.12706504184240380     
 p           4   1.0000000000000000     
   5.8263656140800002       0.73716451545209605     
   1.5106896018720002       0.68216371614850257     
  0.53256483288000001       0.35783053929253711     
  0.21202323690600003        5.3983030275847881E-002

[MO]
Sym=     1a
Ene=  -0.75232675352395206     
Spin= Alpha
Occup=     2.00000000
           1 -0.29793204123671280     
           2  0.12148520962931836     
           3  -5.0498768113765344E-002
           4  -3.0630524614713255E-002
           5 -0.44919235901465038     
           6   4.2779998055599597E-004
           7  -5.5540497496468137E-004
           8  0.13216971481291109     
           9 -0.29792847710890019     
          10 -0.10473216029184818     
          11  -7.9855312991728655E-002
          12  -3.0017846421052093E-002
          13 -0.29793127285318644     
          14  -1.7044912462205075E-002
          15  0.13073239160617450     
          16  -2.9419215279237673E-002
Sym=     2a
Ene=  -0.67352070766196037     
Spin= Alpha
Occup=     2.00000000
           1  -5.9327568967341954E-002
           2  -4.7732034252653641E-002
           3 -0.12632332804588617     
           4  -7.9525983108647384E-003
           5   2.7109961781664829E-006
           6 -0.20351659815241496     
           7 -0.37320338595611113     
           8  -9.0557255718571575E-004
           9  0.51866402349034135     
          10   6.5203113060323767E-002
          11  -2.0091905044770226E-002
          12   6.5949369291939688E-002
          13 -0.45933566503962941     
          14  -8.3814378067571568E-002
          15   2.4755941339779767E-002
          16  -5.8291483065685226E-002
Sym=     3a
Ene=  -0.67352000492249875     
Spin= Alpha
Occup=     2.00000000
           1 -0.56464924768336577     
           2   4.5011979814668979E-002
           3  -3.1729898228522453E-003
           4  -7.2278425469819274E-002
           5   2.9545343188612170E-006
           6 -0.37320223642183115     
           7  0.20351075231807103     
           8   2.0672355985034748E-003
           9  0.23094474943379736     
          10  -6.1194744087880400E-002
          11  0.10909192307670941     
          12   3.0154116692758536E-002
          13  0.33370481707519767     
          14 -0.10548062662676212     
          15  -3.9574409683621421E-002
          16   4.2798826822358756E-002
Sym=     4a
Ene=  -0.57080828821387464     
Spin= Alpha
Occup=     2.00000000
           1  0.19903621202656221     
           2   3.1929769354350039E-002
           3  -1.2427872580966099E-002
           4 -0.30498116860161917     
           5 -0.40262428725436045     
           6  -1.5669459664961769E-003
           7   2.0208458175477329E-003
           8 -0.48150378746092215     
           9  0.19903679062174867     
          10  -2.9322600854345560E-002
          11  -2.0377210238726445E-002
          12 -0.30481285761953619     
          13  0.19903738790113235     
          14  -5.5793968251989373E-003
          15   3.6644354763266739E-002
          16 -0.30465330694323411     
Sym=     5a
Ene=  -0.51634818807688387     
Spin= Alpha
Occup=     2.00000000
           1  0.38610836921886837     
           2  0.33953770076453471     
           3 -0.14166476343709408     
           4   9.8708227972903642E-002
           5  -8.4877750354858283E-002
           6   8.2045048267744697E-004
           7  -1.0646120294352198E-003
           8  0.25281108579439665     
           9  0.38610798293602921     
          10 -0.29159694492363730     
          11 -0.22356902648741384     
          12  0.10041807506042968     
          13  0.38611502430719191     
          14  -4.6954794409884336E-002
          15  0.36397176192234659     
          16  0.10208592809563463     
Sym=     6a
Ene=  -0.50264558927375702     
Spin= Alpha
Occup=     2.00000000
           1  0.44348449647025390     
           2  0.41301915794919192     
           3  -4.2349679891966981E-002
           4 -0.20778424410282884     
           5   4.4192625875539263E-007
           6 -0.21095275681750902     
           7  0.19500758708679700     
           8   1.5057455593216838E-003
           9  -8.0850931716030652E-002
          10 -0.14911228653013267     
          11  0.31471010652995807     
          12   3.9410461983707026E-002
          13 -0.36262573839450413     
          14 -0.17734558070171016     
          15 -0.35238172224181702     
          16  0.16775682833684963     
Sym=     7a
Ene=  -0.50264512577534126     
Spin= Alpha
Occup=     2.00000000
           1 -0.16267964849206840     
           2  -9.8784574028076434E-003
           3  0.35565945653095171     
           4   7.7189548529220095E-002
           5  -2.6996076870059313E-006
           6  0.19500879707239993     
           7  0.21095182158363418     
           8   2.5300033543777778E-004
           9  0.46541162193061186     
          10 -0.36892759107090284     
          11 -0.20603892019218900     
          12 -0.21612619420392776     
          13 -0.30272143005451879     
          14  0.29878638341510749     
          15 -0.23618525838728560     
          16  0.13883621770024931     
Sym=     8a
Ene=  -0.43153599835496287     
Spin= Alpha
Occup=     1.00000000
           1   8.9121893050136316E-003
           2  0.19031349510407614     
           3  0.46556945140724759     
           4 -0.10824941853061348     
           5   1.4502746101102046E-006
           6  -8.7584150784594028E-002
           7 -0.13544212719534415     
           8  -2.8070012687694135E-004
           9  -4.7002720054229390E-002
          10 -0.11439693411470331     
          11  0.12564479472043538     
          12  0.57884409219899369     
          13   3.8089120496889783E-002
          14  0.32756072840666489     
          15   3.2734842166322047E-002
          16 -0.46928947241186181     
Sym=     9a
Ene=  -0.43153478318426297     
Spin= Alpha
Occup=     1.00000000
           1   4.9124652384377146E-002
           2  -5.1114162528423220E-002
           3  -7.5774183232231396E-002
           4 -0.60424440952040082     
           5   7.8640668910660621E-007
           6 -0.13543902980839398     
           7   8.7578037535643180E-002
           8   8.1034459203274255E-004
           9  -1.6846108041501152E-002
          10  0.28856631727238452     
          11 -0.38611830043197409     
          12  0.20458077263236360     
          13  -3.2280596739443744E-002
          14  0.38648589775792214     
          15   5.8437950142436204E-002
          16  0.39593853544120694     
Sym=    10a
Ene=  -0.35886637753929501     
Spin= Alpha
Occup=     0.00000000
           1   1.0491156538147264E-002
           2 -0.27237736546104385     
           3 -0.40309075484609835     
           4  -7.0626537221687297E-002
           5   6.8815723437542429E-007
           6  0.10051966652431345     
           7  0.15937758329103827     
           8   3.4537324287494780E-004
           9  -5.8771807080720349E-002
          10 -0.32441461584530629     
          11 -0.46283794798592442     
          12  0.39024751700832139     
          13   4.8282563281982868E-002
          14 -0.25042626469975787     
          15 -0.47736882083471976     
          16 -0.32250915959812965     
Sym=    11a
Ene=  -0.35886476023117603     
Spin= Alpha
Occup=     0.00000000
           1   6.1811962089259612E-002
           2 -0.49334816704664597     
           3  0.29424515255538020     
           4 -0.40849078291866098     
           5   3.6076404830728849E-007
           6  0.15937887590914590     
           7 -0.10051865867765918     
           8  -9.3818800277451029E-004
           9  -2.1819165025898171E-002
          10 -0.43405529823722910     
          11  0.23846553229091966     
          12  0.14761443326589097     
          13  -3.9991521220269458E-002
          14 -0.41589516739701227     
          15  0.31449533017472420     
          16  0.26879761788748013     
Sym=    12a
Ene=  -0.35638434690496185     
Spin= Alpha
Occup=     0.00000000
           1  -5.0676558906109213E-006
           2 -0.23819059667126616     
           3 -0.57214265172141343     
           4  -1.5970121889504864E-003
           5   1.9969994958632765E-008
           6   9.3163161533777391E-006
           7   5.9484364711635480E-005
           8   2.3636312251800935E-007
           9  -1.5420458919342067E-005
          10 -0.37631075073197590     
          11  0.49208892410149513     
          12   3.3818307513481822E-003
          13   2.0502654034670126E-005
          14  0.61442077303579590     
          15   7.9559570951240777E-002
          16  -1.7866618927584977E-003
Sym=    13a
Ene=  -0.29360596538870337     
Spin= Alpha
Occup=     0.00000000
           1  -2.1672901795939031E-002
           2   3.6250820157930158E-002
           3  -1.6432145854137031E-002
           4  0.47016031170269590     
           5 -0.35779842108343191     
           6  -2.3860975268343771E-003
           7   3.0807202161171961E-003
           8 -0.73386362151938045     
           9  -2.1673793861588932E-002
          10  -2.8354469309483581E-002
          11  -2.4817444142582266E-002
          12  0.47034379466444926     
          13  -2.1673038952504012E-002
          14  -3.3106770878406130E-003
          15   3.5324521769719536E-002
          16  0.47050951490422377     
Sym=    14a
Ene=   0.30639515851241611     
Spin= Alpha
Occup=     0.00000000
           1  0.58867727060144359     
           2 -0.58367280419430823     
           3  0.20054739626348889     
           4  0.39366960642034404     
           5  -1.6624467205618935E-006
           6 -0.93767882211921294     
           7  0.64780461500947173     
           8   5.7690496315519974E-003
           9 -0.18566714099045598     
          10  -4.9364018766996094E-002
          11 -0.25624414533831968     
          12 -0.12421283517684721     
          13 -0.40300765483322187     
          14   7.9650175319645272E-002
          15  0.43800915705925464     
          16 -0.26604947663960815     
Sym=    15a
Ene=   0.30640377799329577     
Spin= Alpha
Occup=     0.00000000
           1 -0.12548291258910318     
           2   5.2416617465496251E-002
           3 -0.21566058358724249     
           4  -8.4407008573983491E-002
           5   1.5722618465883002E-006
           6  0.64782249422973481     
           7  0.93768874375426003     
           8   1.8293685343122082E-003
           9  0.57255193352294509     
          10  0.51287872550472713     
          11  0.31837368972945274     
          12  0.37989015028663220     
          13 -0.44707108065620377     
          14 -0.18296531562492430     
          15  0.45068911623348545     
          16 -0.29440516282898610     
Sym=    16a
Ene=   0.44855242404493456     
Spin= Alpha
Occup=     0.00000000
           1  0.38055885848179705     
           2 -0.49198293051455599     
           3  0.20441030938652327     
           4  0.15694651032425871     
           5  -1.1979948481869007     
           6   2.1984642771834375E-003
           7  -2.8379997509730254E-003
           8  0.67604796085413688     
           9  0.38056346722642603     
          10  0.42434146273711482     
          11  0.32333203938731514     
          12  0.15446743401375049     
          13  0.38056151380350178     
          14   6.9144679433800968E-002
          15 -0.52968780903467161     
          16  0.15204078859366821     
