 Entering Gaussian System
 *********************************************
 Gaussian 98:
 frequency output generated by the xtb code
 *********************************************
                         Standard orientation:
 --------------------------------------------------------------------
  Center     Atomic     Atomic              Coordinates (Angstroms)
  Number     Number      Type              X           Y           Z
 --------------------------------------------------------------------
    1          6             0        1.143356   -0.475665   -0.147935
    2          6             0        0.001383   -0.001791    0.426651
    3          6             0       -0.984845   -0.751854   -0.142175
    4          6             0       -0.159895    1.229310   -0.136540
 --------------------------------------------------------------------
     1 basis functions        1 primitive gaussians
     1 alpha electrons        1 beta electrons

 Harmonic frequencies (cm**-1), IR intensities (KM/Mole),
 Raman scattering activities (A**4/amu), Raman depolarization ratios,
 reduced masses (AMU), force constants (mDyne/A) and normal coordinates:
                      1                      2                      3
                        a                      a                      a 
 Frequencies --   166.6180               167.2509               293.0722
 Red. masses --    12.0107                12.0107                12.0107
 Frc consts  --     0.0000                 0.0000                 0.0000
 IR Inten    --     0.3428                 0.3257                 0.3670
 Raman Activ --     0.0000                 0.0000                 0.0000
 Depolar     --     0.0000                 0.0000                 0.0000
 Atom AN      X      Y      Z        X      Y      Z        X      Y      Z
   1   6    -0.02   0.54  -0.08    -0.41  -0.26  -0.10    -0.35   0.14  -0.22
   2   6    -0.37  -0.20   0.00    -0.20   0.37   0.00     0.00  -0.00   0.66
   3   6    -0.22  -0.29   0.13     0.43  -0.46  -0.02     0.30   0.23  -0.22
   4   6     0.61  -0.05  -0.05     0.18   0.36   0.12     0.05  -0.37  -0.22
                      4                      5                      6
                        a                      a                      a 
 Frequencies --  1274.1700              1274.2174              1314.1565
 Red. masses --    12.0107                12.0107                12.0107
 Frc consts  --     0.0000                 0.0000                 0.0000
 IR Inten    --     0.4632                 0.4599                 0.1359
 Raman Activ --     0.0000                 0.0000                 0.0000
 Depolar     --     0.0000                 0.0000                 0.0000
 Atom AN      X      Y      Z        X      Y      Z        X      Y      Z
   1   6     0.48  -0.19  -0.21    -0.08   0.10   0.05    -0.41   0.17   0.19
   2   6    -0.58   0.41   0.00     0.41   0.58   0.00    -0.00   0.00  -0.56
   3   6     0.09   0.14   0.07    -0.41  -0.29  -0.21     0.35   0.27   0.19
   4   6     0.00  -0.36   0.14     0.09  -0.38   0.16     0.06  -0.44   0.18
