5
 energy: -10.975271529493 gnorm: 0.203468384767 xtb: 6.2.2 (9d81278992624c895f80dd42a50cac0aa55982e2)
C        -0.98274600000000    0.79453600000000    0.18769100000000
C         0.37299900000000    0.69461600000000   -0.47900400000000
C         0.33036800000000   -0.76630700000000   -0.39331300000000
N         1.30599300000000   -0.01413500000000    0.40876000000000
C        -1.02661400000000   -0.70871000000000    0.27586500000000
5
 energy: -11.015531627966 gnorm: 0.128028221159 xtb: 6.2.2 (9d81278992624c895f80dd42a50cac0aa55982e2)
C        -1.00665089774988    0.73276505032034    0.15957210828883
C         0.37038250667811    0.69337320283046   -0.40828106388742
C         0.32806935419272   -0.75666181333402   -0.32322907307885
N         1.35518221073239   -0.02011452654704    0.33129485261548
C        -1.04698317385333   -0.64936191326974    0.24064217606196
5
 energy: -11.037566334028 gnorm: 0.190151352725 xtb: 6.2.2 (9d81278992624c895f80dd42a50cac0aa55982e2)
C        -1.04316090573535    0.65959111129242    0.11808967861022
C         0.38417428115988    0.71621572873657   -0.29324414630221
C         0.34090322305412   -0.76667452033717   -0.20626487061749
N         1.39740240454883   -0.02959615274968    0.19064759780645
C        -1.07931900302749   -0.57953616694214    0.19077074050304
5
 energy: -11.053968718662 gnorm: 0.099679716481 xtb: 6.2.2 (9d81278992624c895f80dd42a50cac0aa55982e2)
C        -1.04197732866938    0.69106408595252    0.10678726558286
C         0.38910662370609    0.73643657901099   -0.26760426640478
C         0.34473940090221   -0.78401423180776   -0.17842664151772
N         1.38812962014911   -0.03135943715661    0.15601120321403
C        -1.07999831608804   -0.61212699599914    0.18323143912561
5
 energy: -11.074218930897 gnorm: 0.071033967038 xtb: 6.2.2 (9d81278992624c895f80dd42a50cac0aa55982e2)
C        -1.01636325954204    0.72429252297145    0.07147251792571
C         0.38373012165750    0.80014561267689   -0.19241847638162
C         0.33592921383085   -0.83808785613840   -0.09639964502074
N         1.35309664538543   -0.03569580765371    0.06514675688191
C        -1.05639272133174   -0.65065447185623    0.15219784659473
5
 energy: -11.077394289034 gnorm: 0.037265586752 xtb: 6.2.2 (9d81278992624c895f80dd42a50cac0aa55982e2)
C        -0.99508151500266    0.73988684679730    0.04926172857755
C         0.36476592956160    0.83055072806420   -0.15635031519407
C         0.31538557938707   -0.86297027025123   -0.05713937295281
N         1.35100717227563   -0.03756658530722    0.03219051734940
C        -1.03607716622165   -0.66990071930306    0.13203644221994
5
 energy: -11.077577700139 gnorm: 0.035699553842 xtb: 6.2.2 (9d81278992624c895f80dd42a50cac0aa55982e2)
C        -0.97399198056013    0.73659042874368    0.05528909843180
C         0.35904535445171    0.82757818928343   -0.17139808548236
C         0.30983462219533   -0.86148699950127   -0.07244303213103
N         1.31995093383784   -0.03554481410730    0.05088613650936
C        -1.01483892992476   -0.66713680441854    0.13766488267223
5
 energy: -11.078390726599 gnorm: 0.009405412189 xtb: 6.2.2 (9d81278992624c895f80dd42a50cac0aa55982e2)
C        -0.98579393977232    0.73007593079950    0.05503414902042
C         0.35998174459644    0.82246807774482   -0.17077788113707
C         0.31105800582045   -0.85637648396343   -0.07247164061809
N         1.34095262350309   -0.03614814035469    0.05152408857691
C        -1.02619843414766   -0.66001938422620    0.13669028415783
5
 energy: -11.078435619178 gnorm: 0.002506223043 xtb: 6.2.2 (9d81278992624c895f80dd42a50cac0aa55982e2)
C        -0.98541773211289    0.72773346058069    0.05431568608104
C         0.35873620914417    0.82262868317080   -0.16979583600445
C         0.30982281938995   -0.85635161059682   -0.07156634186827
N         1.34247514848517   -0.03623794865583    0.05125164671240
C        -1.02561644490640   -0.65777258449884    0.13579384507929
5
 energy: -11.078441884717 gnorm: 0.000878396188 xtb: 6.2.2 (9d81278992624c895f80dd42a50cac0aa55982e2)
C        -0.98506886680911    0.72676768221251    0.05382324429469
C         0.35853208129872    0.82341164898963   -0.16865507700309
C         0.30962317694846   -0.85702892747991   -0.07045256869513
N         1.34204915231347   -0.03631545445948    0.05001437170715
C        -1.02513554375155   -0.65683494926275    0.13526902969639
5
 energy: -11.078443044876 gnorm: 0.000577774158 xtb: 6.2.2 (9d81278992624c895f80dd42a50cac0aa55982e2)
C        -0.98505226874340    0.72640219181648    0.05343398050860
C         0.35870093320158    0.82428653600742   -0.16780457552926
C         0.30977736950122   -0.85782656452993   -0.06985236113262
N         1.34138054197997   -0.03646012803761    0.04902460816217
C        -1.02480657593937   -0.65640203525636    0.13519734799112
