5
 energy: -11.078443044019 gnorm: 0.000577417681 xtb: 6.2.2 (9d81278992624c895f80dd42a50cac0aa55982e2)
C        -0.98504827877507    0.72640744278595    0.05343615117828
C         0.35870466339366    0.82428436497000   -0.16780726628185
C         0.30977263409955   -0.85782830842147   -0.06985194526930
N         1.34138052217746   -0.03646706592596    0.04901998949533
C        -1.02480954089909   -0.65639643341026    0.13520207087755
