      -----------------------------------------------------------      
     |                   =====================                   |     
     |                           x T B                           |     
     |                   =====================                   |     
     |                         S. Grimme                         |     
     |          Mulliken Center for Theoretical Chemistry        |     
     |                    University of Bonn                     |     
      -----------------------------------------------------------      

   * xtb version 6.2.2 (9d81278992624c895f80dd42a50cac0aa55982e2) compiled by '@Darwin' on 04/03/2020

   xtb is free software: you can redistribute it and/or modify it under
   the terms of the GNU Lesser General Public License as published by
   the Free Software Foundation, either version 3 of the License, or
   (at your option) any later version.
   
   xtb is distributed in the hope that it will be useful,
   but WITHOUT ANY WARRANTY; without even the implied warranty of
   MERCHANTABILITY or FITNESS FOR A PARTICULAR PURPOSE.  See the
   GNU Lesser General Public License for more details.
   
   Cite this work as:
   * S. Grimme, C. Bannwarth, P. Shushkov, J. Chem. Theory Comput., 2017,
     13, 1989-2009. DOI: 10.1021/acs.jctc.7b00118
   * C. Bannwarth, S. Ehlert and S. Grimme., J. Chem. Theory Comput., 2019,
     15, 1652-1671. DOI: 10.1021/acs.jctc.8b01176
   * P. Pracht, E. Caldeweyher, S. Ehlert, S. Grimme, ChemRxiv, 2019, preprint.
     DOI: 10.26434/chemrxiv.8326202.v1
   
   for DFT-D4:
   * E. Caldeweyher, C. Bannwarth and S. Grimme, J. Chem. Phys., 2017,
     147, 034112. DOI: 10.1063/1.4993215
   * E. Caldeweyher, S. Ehlert, A. Hansen, H. Neugebauer, S. Spicher,
     C. Bannwarth and S. Grimme, J. Chem. Phys., 2019, 150, 154122.
     DOI: 10.1063/1.5090222
   
   for sTDA-xTB:
   * S. Grimme and C. Bannwarth, J. Chem. Phys., 2016, 145, 054103.
     DOI: 10.1063/1.4959605
   
   in the mass-spec context:
   * V. Asgeirsson, C. Bauer and S. Grimme, Chem. Sci., 2017, 8, 4879.
     DOI: 10.1039/c7sc00601b
   
   for metadynamics refer to:
   * S. Grimme, J. Chem. Theory Comput., 2019, 155, 2847-2862
     DOI: 10.1021/acs.jctc.9b00143
   
   with help from (in alphabetical order)
   C. Bannwarth, F. Bohle, G. Brandenburg, E. Caldeweyher, M. Checinski,
   S. Dohm, S. Ehlert, S. Ehrlich, F. März, H. Neugebauer, J. Pisarek,
   P. Pracht, P. Shushkov, and S. Spicher.
   
 * started run on 2020/05/12 at 11:44:39.453     

           -------------------------------------------------
          |                Calculation Setup                |
           -------------------------------------------------

          program call               : xtb --input C5_18_S_2.input C5_18_S_2.xyz --ohess --molden --namespace C5_18_S_2 output.out
          calculation namespace      : C5_18_S_2
          coordinate file            : C5_18_S_2.xyz
          number of atoms            :                     5
          number of electrons        :                    20
          charge                     :                     0
          spin                       :                   1.0
          first test random number   :      0.13523569225209

   ID    Z sym.   atoms
    1    6 C      1-5

           -------------------------------------------------
          |                 G F N 2 - x T B                 |
           -------------------------------------------------

        Reference                      10.1021/acs.jctc.8b01176
      * Hamiltonian:
        H0-scaling (s, p, d)           1.850000    2.230000    2.230000
        zeta-weighting                 0.500000
      * Dispersion:
        s8                             2.700000
        a1                             0.520000
        a2                             5.000000
        s9                             5.000000
      * Repulsion:
        kExp                           1.500000    1.000000
        rExp                           1.000000
      * Coulomb:
        alpha                          2.000000
        third order                    shell-resolved
        anisotropic                    true
        a3                             3.000000
        a5                             4.000000
        cn-shift                       1.200000
        cn-exp                         4.000000
        max-rad                        5.000000


          ...................................................
          :                      SETUP                      :
          :.................................................:
          :  # basis functions                  20          :
          :  # atomic orbitals                  20          :
          :  # shells                           10          :
          :  # electrons                        20          :
          :  max. iterations                   250          :
          :  Hamiltonian                  GFN2-xTB          :
          :  restarted?                      false          :
          :  GBSA solvation                  false          :
          :  PC potential                    false          :
          :  electronic temp.          300.0000000     K    :
          :  accuracy                    1.0000000          :
          :  -> integral cutoff          0.2500000E+02      :
          :  -> integral neglect         0.1000000E-07      :
          :  -> SCF convergence          0.1000000E-05 Eh   :
          :  -> wf. convergence          0.1000000E-03 e    :
          :  Broyden damping             0.4000000          :
          ...................................................

 iter      E             dE          RMSdq      gap      omega  full diag
   1    -10.0904499 -0.100904E+02  0.965E+00    2.20       0.0  T
   2     -9.2866112  0.803839E+00  0.105E+01    0.54       1.0  T
   3     -9.3610891 -0.744779E-01  0.998E+00    2.15       1.0  T
   4    -10.0602959 -0.699207E+00  0.641E+00    1.81       1.0  T
   5    -10.2104237 -0.150128E+00  0.402E+00    1.76       1.0  T
   6    -10.2160569 -0.563319E-02  0.380E+00    1.80       1.0  T
   7    -10.2336522 -0.175953E-01  0.205E+00    1.94       1.0  T
   8    -10.2319405  0.171165E-02  0.102E+00    2.03       1.0  T
   9    -10.2362188 -0.427825E-02  0.779E-01    2.05       1.0  T
  10    -10.2375973 -0.137854E-02  0.311E-01    1.99       1.0  T
  11    -10.2380277 -0.430374E-03  0.128E-01    2.02       1.0  T
  12    -10.2379339  0.937660E-04  0.177E-01    2.02       1.0  T
  13    -10.2381330 -0.199087E-03  0.513E-02    2.02       1.0  T
  14    -10.2381425 -0.952031E-05  0.262E-02    2.01       1.7  T
  15    -10.2381446 -0.203196E-05  0.515E-03    2.01       8.7  T
  16    -10.2381446  0.112244E-07  0.455E-03    2.01       9.8  T
  17    -10.2381446 -0.345525E-07  0.428E-03    2.01      10.4  T
  18    -10.2381446 -0.539193E-07  0.137E-03    2.01      32.5  T
  19    -10.2381446 -0.669499E-08  0.231E-04    2.01     194.0  T
  20    -10.2381446 -0.202979E-09  0.119E-04    2.01     375.6  T

   *** convergence criteria satisfied after 20 iterations ***

         #    Occupation            Energy/Eh            Energy/eV
      -------------------------------------------------------------
         1        2.0000           -0.7621652             -20.7396
       ...           ...                  ...                  ...
         5        2.0000           -0.5408538             -14.7174
         6        2.0000           -0.5331343             -14.5073
         7        2.0000           -0.4747842             -12.9195
         8        1.9840           -0.4571721             -12.4403
         9        1.8368           -0.4548109             -12.3760
        10        1.1780           -0.4518046             -12.2942
        11        1.0013           -0.4469118             -12.1611 (HOMO)
        12                         -0.3729015             -10.1472 (LUMO)
        13                         -0.3066635              -8.3447
        14                         -0.1351185              -3.6768
        15                         -0.1182164              -3.2168
        16                          0.0225676               0.6141
       ...                                ...                  ...
        20                          0.2046593               5.5691
      -------------------------------------------------------------
                  HL-Gap            0.0740103 Eh            2.0139 eV
             Fermi-level           -0.4315824 Eh          -11.7440 eV

 transition dipole moment (au) for excitation:          10          11
     X       Y       Z   
   0.0001  -0.0000   0.0000  total (au/Debye):    0.000   0.000
 dE (eV)             :    0.133
 oscillator strength :  0.76467E-10

 SCC (total)                   0 d,  0 h,  0 min,  0.006 sec
 SCC setup                      ...        0 min,  0.000 sec (  1.366%)
 Dispersion                     ...        0 min,  0.000 sec (  0.290%)
 integral evaluation            ...        0 min,  0.001 sec ( 21.568%)
 zeroth order Hamiltonian       ...        0 min,  0.000 sec (  0.323%)
 iterations                     ...        0 min,  0.002 sec ( 35.747%)
 molecular gradient             ...        0 min,  0.001 sec ( 22.989%)
 printout                       ...        0 min,  0.001 sec ( 17.543%)

         :::::::::::::::::::::::::::::::::::::::::::::::::::::
         ::                     SUMMARY                     ::
         :::::::::::::::::::::::::::::::::::::::::::::::::::::
         :: total energy             -10.118575869317 Eh    ::
         :: gradient norm              0.146746789087 Eh/a0 ::
         :: HOMO-LUMO gap              2.013923553580 eV    ::
         ::.................................................::
         :: SCC energy               -10.238144648263 Eh    ::
         :: -> isotropic ES           -0.013667918586 Eh    ::
         :: -> anisotropic ES          0.003428452709 Eh    ::
         :: -> anisotropic XC          0.002350864288 Eh    ::
         :: -> dispersion             -0.002563569746 Eh    ::
         :: repulsion energy           0.119568755534 Eh    ::
         :: add. restraining           0.000000000000 Eh    ::
         :::::::::::::::::::::::::::::::::::::::::::::::::::::

      ----------------------------------------------------------- 
     |                   =====================                   |
     |                        A N C O P T                        |
     |                   =====================                   |
     |               Approximate Normal Coordinate               |
     |                Rational Function Optimizer                |
      ----------------------------------------------------------- 

          ...................................................
          :                      SETUP                      :
          :.................................................:
          :   optimization level            normal          :
          :   max. optcycles                   200          :
          :   ANC micro-cycles                  20          :
          :   degrees of freedom                 9          :
          :.................................................:
          :   RF solver                   davidson          :
          :   write xtbopt.log                true          :
          :   linear?                        false          :
          :   energy convergence         0.5000000E-05 Eh   :
          :   grad. convergence          0.1000000E-02 Eh/α :
          :   maximium RF displ.         1.0000000          :
          :   Hlow (freq-cutoff)         0.1000000E-01      :
          :   Hmax (freq-cutoff)         5.0000000          :
          :   S6 in model hess.         20.0000000          :
          ...................................................

generating ANC from model Hessian ...
Using Lindh-Hessian (1995)
 Shifting diagonal of input Hessian by    0.0000000000000000     
 Lowest  eigenvalues of input Hessian
   -0.000000   -0.000000   -0.000000    0.000000    0.000000    0.000000
    0.097985    0.435560    0.569493    0.685785    0.880873    0.964126
    1.090030    1.305244    1.667527
 Highest eigenvalues
    0.685785    0.880873    0.964126    1.090030    1.305244    1.667527


........................................................................
.............................. CYCLE    1 ..............................
........................................................................
   1    -10.2381446 -0.102381E+02  0.382E-05    2.01       0.0  T
   2    -10.2381446  0.120675E-09  0.125E-04    2.01     358.0  T
   3    -10.2381446 -0.816627E-10  0.820E-05    2.01     545.2  T
     SCC iter.                  ...        0 min,  0.000 sec
     gradient                   ...        0 min,  0.002 sec
 * total energy  :   -10.1185759 Eh     change       -0.1178929E-08 Eh
   gradient norm :     0.1467471 Eh/α   predicted     0.0000000E+00 (-100.00%)
   displ. norm   :     0.1612609 α      lambda       -0.2239447E-01
   maximum displ.:     0.1338097 α      in ANC's #5, #2, #9, ...

........................................................................
.............................. CYCLE    2 ..............................
........................................................................
   1    -10.2614720 -0.102615E+02  0.244E+00    2.23       0.0  T
   2    -10.1982167  0.632552E-01  0.326E+00    1.96       1.0  T
   3    -10.1360049  0.622118E-01  0.373E+00    2.34       1.0  T
   4    -10.2430356 -0.107031E+00  0.154E+00    2.00       1.0  T
   5    -10.2556136 -0.125780E-01  0.112E+00    2.13       1.0  T
   6    -10.2647130 -0.909945E-02  0.382E-01    2.18       1.0  T
   7    -10.2648437 -0.130675E-03  0.421E-01    2.19       1.0  T
   8    -10.2639325  0.911237E-03  0.620E-01    2.18       1.0  T
   9    -10.2630478  0.884645E-03  0.904E-01    2.18       1.0  T
  10    -10.2650279 -0.198010E-02  0.227E-01    2.19       1.0  T
  11    -10.2651219 -0.939750E-04  0.633E-02    2.20       1.0  T
  12    -10.2651182  0.367775E-05  0.505E-02    2.20       1.0  T
  13    -10.2651292 -0.109766E-04  0.148E-02    2.20       3.0  T
  14    -10.2651297 -0.556309E-06  0.416E-03    2.20      10.7  T
  15    -10.2651297  0.768890E-07  0.732E-03    2.20       6.1  T
  16    -10.2651298 -0.109684E-06  0.549E-04    2.20      81.5  T
  17    -10.2651298  0.462762E-09  0.680E-04    2.20      65.8  T
     SCC iter.                  ...        0 min,  0.002 sec
     gradient                   ...        0 min,  0.002 sec
 * total energy  :   -10.1376500 Eh     change       -0.1907408E-01 Eh
   gradient norm :     0.0979970 Eh/α   predicted    -0.1148842E-01 ( -39.77%)
   displ. norm   :     0.4314127 α      lambda       -0.3990666E-01
   maximum displ.:     0.3038655 α      in ANC's #2, #5, #9, ...

........................................................................
.............................. CYCLE    3 ..............................
........................................................................
   1    -10.3288605 -0.103289E+02  0.404E+00    2.32       0.0  T
   2    -10.3279082  0.952336E-03  0.258E+00    2.50       1.0  T
   3    -10.2826259  0.452823E-01  0.219E+00    1.96       1.0  T
   4    -10.3266350 -0.440092E-01  0.663E-01    2.35       1.0  T
   5    -10.3303322 -0.369718E-02  0.868E-02    2.37       1.0  T
   6    -10.3303382 -0.605864E-05  0.559E-02    2.37       1.0  T
   7    -10.3303413 -0.309713E-05  0.361E-03    2.37      12.4  T
   8    -10.3303414 -0.367004E-07  0.227E-03    2.37      19.7  T
   9    -10.3303414  0.744654E-09  0.171E-03    2.37      26.2  T
  10    -10.3303414 -0.204089E-07  0.208E-04    2.37     215.3  T
  11    -10.3303414 -0.144045E-09  0.132E-04    2.37     338.6  T
     SCC iter.                  ...        0 min,  0.001 sec
     gradient                   ...        0 min,  0.002 sec
 * total energy  :   -10.1593316 Eh     change       -0.2168161E-01 Eh
   gradient norm :     0.1159978 Eh/α   predicted    -0.2366698E-01 (   9.16%)
   displ. norm   :     0.0860385 α      lambda       -0.8733844E-02
   maximum displ.:     0.0588035 α      in ANC's #2, #8, #5, ...

........................................................................
.............................. CYCLE    4 ..............................
........................................................................
   1    -10.3192222 -0.103192E+02  0.644E-01    2.11       0.0  T
   2    -10.3189148  0.307354E-03  0.510E-01    2.03       1.0  T
   3    -10.3181714  0.743376E-03  0.394E-01    2.12       1.0  T
   4    -10.3191027 -0.931207E-03  0.220E-01    2.08       1.0  T
   5    -10.3194721 -0.369464E-03  0.184E-02    2.07       2.4  T
   6    -10.3194726 -0.514106E-06  0.456E-03    2.07       9.8  T
   7    -10.3194727 -0.951585E-07  0.577E-04    2.07      77.6  T
   8    -10.3194727  0.145463E-08  0.509E-04    2.07      87.9  T
     SCC iter.                  ...        0 min,  0.001 sec
     gradient                   ...        0 min,  0.002 sec
 * total energy  :   -10.1659674 Eh     change       -0.6635839E-02 Eh
   gradient norm :     0.0606990 Eh/α   predicted    -0.4399251E-02 ( -33.70%)
   displ. norm   :     0.1196858 α      lambda       -0.5983800E-02
   maximum displ.:     0.0984560 α      in ANC's #2, #8, #5, ...

........................................................................
.............................. CYCLE    5 ..............................
........................................................................
   1    -10.3100722 -0.103101E+02  0.885E-01    1.73       0.0  T
   2    -10.3093850  0.687256E-03  0.724E-01    1.59       1.0  T
   3    -10.3084926  0.892360E-03  0.522E-01    1.71       1.0  T
   4    -10.3097090 -0.121641E-02  0.358E-01    1.67       1.0  T
   5    -10.3106652 -0.956187E-03  0.258E-02    1.66       1.7  T
   6    -10.3106665 -0.125251E-05  0.890E-03    1.67       5.0  T
   7    -10.3106668 -0.301297E-06  0.296E-03    1.67      15.1  T
   8    -10.3106668 -0.556956E-07  0.996E-04    1.67      44.9  T
   9    -10.3106668  0.158799E-08  0.801E-04    1.67      55.8  T
     SCC iter.                  ...        0 min,  0.001 sec
     gradient                   ...        0 min,  0.001 sec
 * total energy  :   -10.1694450 Eh     change       -0.3477611E-02 Eh
   gradient norm :     0.0194898 Eh/α   predicted    -0.3034758E-02 ( -12.73%)
   displ. norm   :     0.0403354 α      lambda       -0.7054827E-03
   maximum displ.:     0.0352198 α      in ANC's #5, #9, #8, ...

........................................................................
.............................. CYCLE    6 ..............................
........................................................................
   1    -10.3079794 -0.103080E+02  0.351E-01    1.75       0.0  T
   2    -10.3079786  0.713488E-06  0.212E-01    1.75       1.0  T
   3    -10.3078480  0.130694E-03  0.120E-01    1.76       1.0  T
   4    -10.3079773 -0.129339E-03  0.297E-02    1.75       1.5  T
   5    -10.3079822 -0.487400E-05  0.133E-02    1.75       3.4  T
   6    -10.3079826 -0.454972E-06  0.140E-03    1.75      31.9  T
   7    -10.3079826  0.238295E-07  0.225E-03    1.75      19.9  T
   8    -10.3079826 -0.359367E-07  0.300E-04    1.75     149.0  T
   9    -10.3079826  0.774213E-09  0.363E-04    1.75     123.1  T
     SCC iter.                  ...        0 min,  0.001 sec
     gradient                   ...        0 min,  0.002 sec
 * total energy  :   -10.1698313 Eh     change       -0.3862971E-03 Eh
   gradient norm :     0.0116866 Eh/α   predicted    -0.3533150E-03 (  -8.54%)
   displ. norm   :     0.0226824 α      lambda       -0.1738203E-03
   maximum displ.:     0.0207116 α      in ANC's #2, #9, #5, ...

........................................................................
.............................. CYCLE    7 ..............................
........................................................................
   1    -10.3099726 -0.103100E+02  0.157E-01    1.71       0.0  T
   2    -10.3099566  0.160061E-04  0.120E-01    1.69       1.0  T
   3    -10.3099071  0.495767E-04  0.100E-01    1.71       1.0  T
   4    -10.3099564 -0.493402E-04  0.657E-02    1.70       1.0  T
   5    -10.3099899 -0.334758E-04  0.338E-03    1.70      13.2  T
   6    -10.3099899 -0.604883E-08  0.108E-03    1.70      41.5  T
   7    -10.3099899  0.720579E-08  0.140E-03    1.70      32.0  T
   8    -10.3099899 -0.136647E-07  0.202E-04    1.70     221.0  T
   9    -10.3099899 -0.292282E-10  0.171E-04    1.70     262.3  T
     SCC iter.                  ...        0 min,  0.001 sec
     gradient                   ...        0 min,  0.002 sec
 * total energy  :   -10.1699296 Eh     change       -0.9827265E-04 Eh
   gradient norm :     0.0051499 Eh/α   predicted    -0.8695490E-04 ( -11.52%)
   displ. norm   :     0.0075325 α      lambda       -0.3291510E-04
   maximum displ.:     0.0043576 α      in ANC's #8, #9, #5, ...

........................................................................
.............................. CYCLE    8 ..............................
........................................................................
   1    -10.3112161 -0.103112E+02  0.592E-02    1.74       0.0  T
   2    -10.3112131  0.299649E-05  0.387E-02    1.74       1.2  T
   3    -10.3111896  0.235229E-04  0.587E-02    1.73       1.0  T
   4    -10.3112169 -0.272600E-04  0.479E-03    1.74       9.3  T
   5    -10.3112170 -0.136280E-06  0.134E-03    1.74      33.3  T
   6    -10.3112170  0.415091E-08  0.787E-04    1.74      56.8  T
   7    -10.3112170 -0.430011E-08  0.117E-04    1.74     383.7  T
     SCC iter.                  ...        0 min,  0.001 sec
     gradient                   ...        0 min,  0.001 sec
 * total energy  :   -10.1699515 Eh     change       -0.2187399E-04 Eh
   gradient norm :     0.0022646 Eh/α   predicted    -0.1645838E-04 ( -24.76%)
   displ. norm   :     0.0074689 α      lambda       -0.1592012E-04
   maximum displ.:     0.0060332 α      in ANC's #3, #8, #9, ...

........................................................................
.............................. CYCLE    9 ..............................
........................................................................
   1    -10.3120527 -0.103121E+02  0.764E-02    1.76       0.0  T
   2    -10.3120499  0.280076E-05  0.492E-02    1.76       1.0  T
   3    -10.3120033  0.466449E-04  0.755E-02    1.75       1.0  T
   4    -10.3120535 -0.502068E-04  0.293E-03    1.76      15.3  T
   5    -10.3120535 -0.232377E-07  0.173E-03    1.76      25.9  T
   6    -10.3120535  0.422073E-07  0.256E-03    1.76      17.5  T
   7    -10.3120535 -0.467953E-07  0.133E-04    1.76     335.8  T
   8    -10.3120535 -0.463007E-10  0.679E-05    1.76     658.3  T
     SCC iter.                  ...        0 min,  0.001 sec
     gradient                   ...        0 min,  0.002 sec
 * total energy  :   -10.1699669 Eh     change       -0.1540293E-04 Eh
   gradient norm :     0.0037930 Eh/α   predicted    -0.7959097E-05 ( -48.33%)
   displ. norm   :     0.6338296 α      lambda       -0.1350285E-02
   maximum displ.:     0.5286847 α      in ANC's #3, #8, #9, ...

........................................................................
.............................. CYCLE   10 ..............................
........................................................................
   1    -10.3573477 -0.103573E+02  0.548E+00    0.89       0.0  T
   2    -10.2737636  0.835842E-01  0.450E+00    0.58       1.0  T
   3    -10.2213117  0.524519E-01  0.446E+00    1.33       1.0  T
   4    -10.3773439 -0.156032E+00  0.979E-01    0.78       1.0  T
   5    -10.3808376 -0.349365E-02  0.239E-01    0.91       1.0  T
   6    -10.3808376 -0.331430E-07  0.239E-01    0.91       1.0  T
   7    -10.3809970 -0.159404E-03  0.255E-02    0.89       1.8  T
   8    -10.3809982 -0.121639E-05  0.176E-02    0.89       2.5  T
   9    -10.3809997 -0.152198E-05  0.591E-03    0.88       7.6  T
  10    -10.3809998 -0.666218E-07  0.279E-03    0.88      16.0  T
  11    -10.3809999 -0.478883E-07  0.237E-04    0.88     188.7  T
  12    -10.3809999 -0.508571E-11  0.121E-04    0.88     369.5  T
     SCC iter.                  ...        0 min,  0.001 sec
     gradient                   ...        0 min,  0.001 sec
 * total energy  :   -10.1274636 Eh     change        0.4250323E-01 Eh
   gradient norm :     0.3132675 Eh/α   predicted    -0.9464842E-03 (-102.23%)
   displ. norm   :     0.4429290 α      lambda       -0.9267668E-01
   maximum displ.:     0.3766074 α      in ANC's #3, #8, #9, ...

........................................................................
.............................. CYCLE   11 ..............................
........................................................................
   1    -10.3153808 -0.103154E+02  0.372E+00    2.11       0.0  T
   2    -10.2642834  0.510974E-01  0.314E+00    2.07       1.0  T
   3    -10.2447901  0.194934E-01  0.325E+00    1.93       1.0  T
   4    -10.3119015 -0.671114E-01  0.171E+00    2.11       1.0  T
   5    -10.3264073 -0.145058E-01  0.425E-01    2.12       1.0  T
   6    -10.3264592 -0.519001E-04  0.409E-01    2.12       1.0  T
   7    -10.3268968 -0.437637E-03  0.702E-02    2.11       1.0  T
   8    -10.3269072 -0.103267E-04  0.418E-02    2.12       1.1  T
   9    -10.3269153 -0.814266E-05  0.859E-03    2.12       5.2  T
  10    -10.3269152  0.117902E-06  0.779E-03    2.12       5.7  T
  11    -10.3269156 -0.378878E-06  0.923E-04    2.12      48.4  T
  12    -10.3269156 -0.254164E-08  0.253E-04    2.12     176.9  T
     SCC iter.                  ...        0 min,  0.001 sec
     gradient                   ...        0 min,  0.001 sec
 * total energy  :   -10.1699671 Eh     change       -0.4250344E-01 Eh
   gradient norm :     0.0582523 Eh/α   predicted    -0.5542910E-01 (  30.41%)
   displ. norm   :     0.0499359 α      lambda       -0.7723051E-03
   maximum displ.:     0.0396688 α      in ANC's #2, #8, #3, ...

........................................................................
.............................. CYCLE   12 ..............................
........................................................................
   1    -10.3257803 -0.103258E+02  0.436E-01    2.11       0.0  T
   2    -10.3248826  0.897634E-03  0.412E-01    2.11       1.0  T
   3    -10.3251362 -0.253566E-03  0.338E-01    2.11       1.0  T
   4    -10.3259584 -0.822223E-03  0.211E-02    2.11       2.1  T
   5    -10.3259598 -0.138679E-05  0.116E-02    2.11       3.9  T
   6    -10.3259600 -0.202023E-06  0.455E-03    2.11       9.8  T
   7    -10.3259601 -0.509480E-07  0.195E-03    2.11      23.0  T
   8    -10.3259601 -0.266932E-07  0.551E-04    2.11      81.2  T
   9    -10.3259601  0.104971E-08  0.493E-04    2.11      90.7  T
     SCC iter.                  ...        0 min,  0.001 sec
     gradient                   ...        0 min,  0.001 sec
 * total energy  :   -10.1705452 Eh     change       -0.5781426E-03 Eh
   gradient norm :     0.0490633 Eh/α   predicted    -0.3871156E-03 ( -33.04%)
   displ. norm   :     0.0432776 α      lambda       -0.6710890E-03
   maximum displ.:     0.0306558 α      in ANC's #2, #8, #3, ...

........................................................................
.............................. CYCLE   13 ..............................
........................................................................
   1    -10.3230985 -0.103231E+02  0.365E-01    2.00       0.0  T
   2    -10.3224504  0.648150E-03  0.359E-01    1.98       1.0  T
   3    -10.3228086 -0.358184E-03  0.255E-01    2.00       1.0  T
   4    -10.3232372 -0.428661E-03  0.144E-02    1.99       3.1  T
   5    -10.3232374 -0.179447E-06  0.112E-02    1.99       4.0  T
   6    -10.3232378 -0.360237E-06  0.323E-03    1.99      13.8  T
   7    -10.3232378  0.741270E-08  0.280E-03    1.99      16.0  T
   8    -10.3232378 -0.536087E-07  0.475E-04    1.99      94.1  T
   9    -10.3232378  0.302121E-08  0.708E-04    1.99      63.1  T
     SCC iter.                  ...        0 min,  0.001 sec
     gradient                   ...        0 min,  0.002 sec
 * total energy  :   -10.1710079 Eh     change       -0.4627217E-03 Eh
   gradient norm :     0.0365526 Eh/α   predicted    -0.3361732E-03 ( -27.35%)
   displ. norm   :     0.0201193 α      lambda       -0.5085391E-03
   maximum displ.:     0.0125393 α      in ANC's #8, #5, #9, ...

........................................................................
.............................. CYCLE   14 ..............................
........................................................................
   1    -10.3211336 -0.103211E+02  0.160E-01    1.89       0.0  T
   2    -10.3211001  0.335082E-04  0.114E-01    1.88       1.0  T
   3    -10.3209907  0.109374E-03  0.142E-01    1.90       1.0  T
   4    -10.3211310 -0.140321E-03  0.456E-02    1.89       1.0  T
   5    -10.3211463 -0.152860E-04  0.362E-03    1.89      12.4  T
   6    -10.3211463 -0.156229E-07  0.873E-04    1.89      51.3  T
   7    -10.3211463  0.282584E-08  0.877E-04    1.89      51.0  T
     SCC iter.                  ...        0 min,  0.001 sec
     gradient                   ...        0 min,  0.001 sec
 * total energy  :   -10.1714325 Eh     change       -0.4245728E-03 Eh
   gradient norm :     0.0286148 Eh/α   predicted    -0.2543720E-03 ( -40.09%)
   displ. norm   :     0.0711950 α      lambda       -0.1656074E-02
   maximum displ.:     0.0583584 α      in ANC's #3, #5, #9, ...

........................................................................
.............................. CYCLE   15 ..............................
........................................................................
   1    -10.3172472 -0.103172E+02  0.731E-01    1.73       0.0  T
   2    -10.3170920  0.155192E-03  0.440E-01    1.68       1.0  T
   3    -10.3151775  0.191453E-02  0.529E-01    1.72       1.0  T
   4    -10.3168291 -0.165162E-02  0.280E-01    1.74       1.0  T
   5    -10.3174493 -0.620195E-03  0.139E-02    1.71       3.2  T
   6    -10.3174495 -0.212234E-06  0.643E-03    1.71       7.0  T
   7    -10.3174495  0.635321E-07  0.397E-03    1.71      11.3  T
   8    -10.3174496 -0.113494E-06  0.699E-04    1.71      63.9  T
   9    -10.3174496  0.229334E-08  0.761E-04    1.71      58.8  T
     SCC iter.                  ...        0 min,  0.001 sec
     gradient                   ...        0 min,  0.002 sec
 * total energy  :   -10.1726989 Eh     change       -0.1266405E-02 Eh
   gradient norm :     0.0172699 Eh/α   predicted    -0.8322329E-03 ( -34.28%)
   displ. norm   :     0.1407536 α      lambda       -0.2067473E-02
   maximum displ.:     0.1259967 α      in ANC's #3, #2, #9, ...

........................................................................
.............................. CYCLE   16 ..............................
........................................................................
   1    -10.3154850 -0.103155E+02  0.125E+00    1.54       0.0  T
   2    -10.3142402  0.124477E-02  0.831E-01    1.47       1.0  T
   3    -10.3037530  0.104872E-01  0.114E+00    1.55       1.0  T
   4    -10.3152026 -0.114496E-01  0.353E-01    1.54       1.0  T
   5    -10.3160506 -0.848037E-03  0.257E-02    1.51       1.7  T
   6    -10.3160516 -0.950640E-06  0.137E-02    1.51       3.3  T
   7    -10.3160511  0.437709E-06  0.976E-03    1.51       4.6  T
   8    -10.3160519 -0.773783E-06  0.108E-03    1.51      41.6  T
   9    -10.3160519  0.632497E-08  0.113E-03    1.51      39.7  T
  10    -10.3160519 -0.856159E-08  0.892E-05    1.51     501.1  T
  11    -10.3160519 -0.189218E-10  0.507E-05    1.51     882.2  T
     SCC iter.                  ...        0 min,  0.001 sec
     gradient                   ...        0 min,  0.001 sec
 * total energy  :   -10.1737392 Eh     change       -0.1040241E-02 Eh
   gradient norm :     0.0157922 Eh/α   predicted    -0.1054216E-02 (   1.34%)
   displ. norm   :     0.0204869 α      lambda       -0.2704140E-03
   maximum displ.:     0.0133661 α      in ANC's #8, #5, #2, ...

........................................................................
.............................. CYCLE   17 ..............................
........................................................................
   1    -10.3175679 -0.103176E+02  0.148E-01    1.60       0.0  T
   2    -10.3174583  0.109609E-03  0.146E-01    1.60       1.0  T
   3    -10.3175072 -0.488895E-04  0.110E-01    1.60       1.0  T
   4    -10.3175864 -0.792560E-04  0.256E-02    1.60       1.7  T
   5    -10.3175903 -0.386583E-05  0.520E-03    1.60       8.6  T
   6    -10.3175903 -0.238997E-07  0.250E-03    1.60      17.9  T
   7    -10.3175904 -0.363497E-07  0.107E-03    1.60      41.7  T
   8    -10.3175904 -0.761110E-08  0.336E-04    1.60     133.2  T
   9    -10.3175904 -0.658213E-09  0.149E-04    1.60     300.5  T
     SCC iter.                  ...        0 min,  0.001 sec
     gradient                   ...        0 min,  0.002 sec
 * total energy  :   -10.1739402 Eh     change       -0.2009967E-03 Eh
   gradient norm :     0.0075951 Eh/α   predicted    -0.1352621E-03 ( -32.70%)
   displ. norm   :     0.0212696 α      lambda       -0.1276772E-03
   maximum displ.:     0.0129359 α      in ANC's #8, #2, #5, ...

........................................................................
.............................. CYCLE   18 ..............................
........................................................................
   1    -10.3189082 -0.103189E+02  0.154E-01    1.67       0.0  T
   2    -10.3187774  0.130832E-03  0.156E-01    1.66       1.0  T
   3    -10.3188492 -0.718673E-04  0.111E-01    1.67       1.0  T
   4    -10.3189324 -0.832012E-04  0.137E-02    1.67       3.3  T
   5    -10.3189333 -0.843695E-06  0.532E-03    1.67       8.4  T
   6    -10.3189333  0.223080E-07  0.337E-03    1.67      13.3  T
   7    -10.3189333 -0.780072E-07  0.965E-04    1.67      46.3  T
   8    -10.3189333 -0.547707E-08  0.397E-04    1.67     112.5  T
     SCC iter.                  ...        0 min,  0.001 sec
     gradient                   ...        0 min,  0.001 sec
 * total energy  :   -10.1740034 Eh     change       -0.6329384E-04 Eh
   gradient norm :     0.0001789 Eh/α   predicted    -0.6386600E-04 (   0.90%)
   displ. norm   :     0.0015343 α      lambda       -0.1210696E-06
   maximum displ.:     0.0011469 α      in ANC's #3, #2, #5, ...

........................................................................
.............................. CYCLE   19 ..............................
........................................................................
   1    -10.3188700 -0.103189E+02  0.128E-02    1.67       0.0  T
   2    -10.3188699  0.109475E-06  0.849E-03    1.67       5.3  T
   3    -10.3188682  0.173595E-05  0.135E-02    1.67       3.3  T
   4    -10.3188700 -0.185708E-05  0.167E-03    1.67      26.8  T
   5    -10.3188700 -0.152602E-07  0.368E-04    1.67     121.5  T
   6    -10.3188700 -0.208088E-09  0.306E-04    1.67     146.0  T
     SCC iter.                  ...        0 min,  0.001 sec
     gradient                   ...        0 min,  0.002 sec
 * total energy  :   -10.1740035 Eh     change       -0.5030354E-07 Eh
   gradient norm :     0.0001018 Eh/α   predicted    -0.6032759E-07 (  19.93%)
   displ. norm   :     0.0006113 α      lambda       -0.2959422E-07
   maximum displ.:     0.0004527 α      in ANC's #3, #1, #2, ...

   *** GEOMETRY OPTIMIZATION CONVERGED AFTER 19 ITERATIONS ***

------------------------------------------------------------------------
 total energy gain   :        -0.0554276 Eh      -34.7814 kcal/mol
 total RMSD          :         0.3012107 a0        0.1594 Å
 total power (kW/mol):        -7.6592218 (step)-1889.1505 (real)
------------------------------------------------------------------------

 ANCopt (total)                0 d,  0 h,  0 min,  0.077 sec
 optimizer setup                ...        0 min,  0.000 sec (  0.084%)
 model hessian                  ...        0 min,  0.000 sec (  0.112%)
 ANC generation                 ...        0 min,  0.000 sec (  0.097%)
 coordinate transformation      ...        0 min,  0.000 sec (  0.053%)
 single point calculation       ...        0 min,  0.075 sec ( 97.691%)
 optimization log               ...        0 min,  0.000 sec (  0.628%)
 hessian update                 ...        0 min,  0.000 sec (  0.060%)
 rational function              ...        0 min,  0.000 sec (  0.571%)

================
 final structure:
================
5
 xtb: 6.2.2 (9d81278992624c895f80dd42a50cac0aa55982e2)
C         1.25778988204378   -0.00085234701198   -0.00725690576698
C         0.19187078810145    0.90287203875260    0.02838866697446
C        -0.82342430480362    0.18048896715653   -0.71080835587850
C        -0.81665477608675   -0.17939522615149    0.71922347335518
C         0.19041841074514   -0.90311343274566   -0.02954687868416

 Bond Distances (Angstroems)
 ---------------------------
C1-C2=1.3979         C1-C5=1.3978         C2-C1=1.3979         C2-C3=1.4488         C2-C4=1.6327         C2-C5=1.8069         
C3-C2=1.4488         C3-C4=1.4746         C3-C5=1.6328         C4-C2=1.6327         C4-C3=1.4746         C4-C5=1.4487         
C5-C1=1.3978         C5-C2=1.8069         C5-C3=1.6328         C5-C4=1.4487         
 C  C  Rav=1.5300 sigma=0.1365  Rmin=1.3978  Rmax=1.8069     8

 selected bond angles (degree)
 --------------------
C5-C1-C2= 80.53                C3-C2-C1=101.48                C4-C2-C1= 93.05                C4-C2-C3= 56.80                
C5-C2-C1= 49.73                C5-C2-C3= 58.98                C5-C2-C4= 49.50                C4-C3-C2= 67.89                
C5-C3-C2= 71.51                C5-C3-C4= 55.29                C3-C4-C2= 55.30                C5-C4-C2= 71.52                
C5-C4-C3= 67.91                C2-C5-C1= 49.74                C3-C5-C1= 93.00                C3-C5-C2= 49.50                
C4-C5-C1=101.54                C4-C5-C2= 58.98                C4-C5-C3= 56.80                

 selected dihedral angles (degree)
 ---------------------------------
C3-C2-C1-C5=329.44            C4-C2-C1-C5= 26.16            C4-C3-C2-C1= 86.11            C4-C3-C2-C5= 59.19            
C5-C3-C2-C1= 26.92            C5-C3-C2-C4=300.81            C3-C4-C2-C1=258.27            C3-C4-C2-C5=284.53            
C5-C4-C2-C1=333.74            C5-C4-C2-C3= 75.47            C2-C4-C3-C5= 82.24            C5-C4-C3-C2=277.76            
C3-C5-C1-C2= 26.28            C4-C5-C1-C2=329.57            C1-C5-C2-C3=144.45            C1-C5-C2-C4=215.38            
C3-C5-C2-C1=215.55            C3-C5-C2-C4= 70.94            C4-C5-C2-C1=144.62            C4-C5-C2-C3=289.06            
C1-C5-C3-C2=333.62            C1-C5-C3-C4=258.16            C2-C5-C3-C4=284.54            C4-C5-C3-C2= 75.46            
C1-C5-C4-C2= 26.81            C1-C5-C4-C3= 86.00            C2-C5-C4-C3= 59.19            C3-C5-C4-C2=300.81            
           -------------------------------------------------
          |                Final Singlepoint                |
           -------------------------------------------------

          ...................................................
          :                      SETUP                      :
          :.................................................:
          :  # basis functions                  20          :
          :  # atomic orbitals                  20          :
          :  # shells                           10          :
          :  # electrons                        20          :
          :  max. iterations                   250          :
          :  Hamiltonian                  GFN2-xTB          :
          :  restarted?                      false          :
          :  GBSA solvation                  false          :
          :  PC potential                    false          :
          :  electronic temp.          300.0000000     K    :
          :  accuracy                    1.0000000          :
          :  -> integral cutoff          0.2500000E+02      :
          :  -> integral neglect         0.1000000E-07      :
          :  -> SCF convergence          0.1000000E-05 Eh   :
          :  -> wf. convergence          0.1000000E-03 e    :
          :  Broyden damping             0.4000000          :
          ...................................................

 iter      E             dE          RMSdq      gap      omega  full diag
   1    -10.3188700 -0.103189E+02  0.150E-04    1.67       0.0  T
   2    -10.3188700  0.297543E-09  0.229E-04    1.67     195.5  T
   3    -10.3188700 -0.389901E-09  0.658E-05    1.67     679.6  T

   *** convergence criteria satisfied after 3 iterations ***

         #    Occupation            Energy/Eh            Energy/eV
      -------------------------------------------------------------
         1        2.0000           -0.7558460             -20.5676
       ...           ...                  ...                  ...
         5        2.0000           -0.5532536             -15.0548
         6        2.0000           -0.5240075             -14.2590
         7        2.0000           -0.4814408             -13.1007
         8        2.0000           -0.4694078             -12.7732
         9        2.0000           -0.4615982             -12.5607
        10        1.0000           -0.4256355             -11.5821
        11        1.0000           -0.4041599             -10.9978 (HOMO)
        12                         -0.3427979              -9.3280 (LUMO)
        13                         -0.3352199              -9.1218
        14                         -0.1646764              -4.4811
        15                         -0.1262853              -3.4364
        16                          0.0166103               0.4520
       ...                                ...                  ...
        20                          0.4566735              12.4267
      -------------------------------------------------------------
                  HL-Gap            0.0613621 Eh            1.6697 eV
             Fermi-level           -0.4085478 Eh          -11.1172 eV

 transition dipole moment (au) for excitation:          10          11
     X       Y       Z   
   1.1042  -0.0014  -0.0051  total (au/Debye):    1.104   2.807
 dE (eV)             :    0.584
 oscillator strength :  0.24686E-01

 SCC (total)                   0 d,  0 h,  0 min,  0.004 sec
 SCC setup                      ...        0 min,  0.000 sec (  1.065%)
 Dispersion                     ...        0 min,  0.000 sec (  0.227%)
 integral evaluation            ...        0 min,  0.001 sec ( 30.821%)
 zeroth order Hamiltonian       ...        0 min,  0.000 sec (  0.335%)
 iterations                     ...        0 min,  0.000 sec (  8.682%)
 molecular gradient             ...        0 min,  0.001 sec ( 33.924%)
 printout                       ...        0 min,  0.001 sec ( 24.804%)

         :::::::::::::::::::::::::::::::::::::::::::::::::::::
         ::                     SUMMARY                     ::
         :::::::::::::::::::::::::::::::::::::::::::::::::::::
         :: total energy             -10.174003496858 Eh    ::
         :: gradient norm              0.000099882875 Eh/a0 ::
         :: HOMO-LUMO gap              1.669746586318 eV    ::
         ::.................................................::
         :: SCC energy               -10.318870029962 Eh    ::
         :: -> isotropic ES           -0.008941280001 Eh    ::
         :: -> anisotropic ES          0.001297459144 Eh    ::
         :: -> anisotropic XC          0.003788560557 Eh    ::
         :: -> dispersion             -0.002557956688 Eh    ::
         :: repulsion energy           0.144866512896 Eh    ::
         :: add. restraining           0.000000000000 Eh    ::
         :::::::::::::::::::::::::::::::::::::::::::::::::::::

           ------------------------------------------------- 
          |                Numerical Hessian                |
           ------------------------------------------------- 
step length          :   0.00500
SCC accuracy         :   0.30000
Hessian scale factor :   1.00000
frozen atoms in %    :   0.00000    0
RMS gradient         :   0.00010
estimated CPU  time      0.00 min
estimated wall time      0.00 min

writing file <hessian>.

 projected vibrational frequencies (cm-1)
eigval :       -0.00    -0.00    -0.00     0.00     0.00     0.00
eigval :     -218.59   488.13   574.87   734.52   859.82   953.41
eigval :     1047.64  1360.84  1407.11
           -------------------------------------------------
          |                Property Printout                |
           -------------------------------------------------

    * Orbital Energies and Occupations

         #    Occupation            Energy/Eh            Energy/eV
      -------------------------------------------------------------
         1        2.0000           -0.7558460             -20.5676
         2        2.0000           -0.6701727             -18.2363
         3        2.0000           -0.6327042             -17.2168
         4        2.0000           -0.6015702             -16.3696
         5        2.0000           -0.5532536             -15.0548
         6        2.0000           -0.5240075             -14.2590
         7        2.0000           -0.4814407             -13.1007
         8        2.0000           -0.4694077             -12.7732
         9        2.0000           -0.4615982             -12.5607
        10        1.0000           -0.4256355             -11.5821
        11        1.0000           -0.4041599             -10.9978 (HOMO)
        12                         -0.3427979              -9.3280 (LUMO)
        13                         -0.3352199              -9.1218
        14                         -0.1646764              -4.4811
        15                         -0.1262853              -3.4364
        16                          0.0166103               0.4520
        17                          0.1494800               4.0676
        18                          0.1601175               4.3570
        19                          0.2793548               7.6016
        20                          0.4566735              12.4267
      -------------------------------------------------------------
                  HL-Gap            0.0613620 Eh            1.6697 eV
             Fermi-level           -0.4085478 Eh          -11.1172 eV

     #   Z        covCN         q      C6AA      α(0)
     1   6 C      2.232    -0.010    30.498     8.944
     2   6 C      3.746     0.036    20.039     6.385
     3   6 C      3.050    -0.031    28.718     8.789
     4   6 C      3.049    -0.031    28.716     8.789
     5   6 C      3.746     0.036    20.038     6.385

 Mol. C6AA /au·bohr⁶  :        633.127059
 Mol. C8AA /au·bohr⁸  :      18311.134770
 Mol. α(0) /au        :         39.292155


Wiberg/Mayer (AO) data.
largest (>0.10) Wiberg bond orders for each atom
          total WBO             WBO to atom ...
     1  C   2.981        C    5 1.222    C    2 1.222    C    3 0.269    C    4 0.268
     2  C   3.392        C    1 1.222    C    3 0.994    C    4 0.609    C    5 0.568
     3  C   2.805        C    2 0.994    C    4 0.933    C    5 0.609    C    1 0.269
     4  C   2.805        C    5 0.994    C    3 0.933    C    2 0.609    C    1 0.268
     5  C   3.393        C    1 1.222    C    4 0.994    C    3 0.609    C    2 0.568

MOs/occ written to file <molden.input>


molecular dipole:
                 x           y           z       tot (Debye)
 q only:        0.097      -0.000      -0.000
   full:        0.171      -0.001      -0.000       0.434
molecular quadrupole (traceless):
                xx          xy          yy          xz          yz          zz
 q only:       -0.240       0.001       0.355       0.000       0.052      -0.115
  q+dip:       -0.422       0.005       0.378       0.001       0.745       0.045
   full:       -0.914       0.004       0.708       0.007       0.620       0.207

           -------------------------------------------------
          |                Geometry Summary                 |
           -------------------------------------------------

      molecular mass/u    :       60.0536795
   center of mass at/Å    :        0.0000000       0.0000000       0.0000000
  moments of inertia/u·Å² :        0.3266618E+02   0.4764268E+02   0.5709097E+02
rotational constants/cm⁻¹ :        0.5160577E+00   0.3538346E+00   0.2952767E+00

 * 4 selected distances

     #   Z        #   Z                                     value/Å
     1   6 C      2   6 C                                 1.3979170
     2   6 C      3   6 C                                 1.4488180 (max)
     1   6 C      5   6 C                                 1.3978032 (min)
     4   6 C      5   6 C                                 1.4486620

 * 1 distinct bonds (by element types)

   Z      Z             #   av. dist./Å        max./Å        min./Å
   6 C    6 C           4     1.4233000     1.4488180     1.3978032

           -------------------------------------------------
          |               Frequency Printout                |
           -------------------------------------------------
Molecule has the following symmetry elements: (C2) 
It seems to be the C2 point group
 projected vibrational frequencies (cm-1)
eigval :       -0.00    -0.00    -0.00     0.00     0.00     0.00
eigval :     -218.59   488.13   574.87   734.52   859.82   953.41
eigval :     1047.64  1360.84  1407.11
 reduced masses (amu)
   1: 12.01   2: 12.01   3: 12.01   4: 12.01   5: 12.01   6: 12.01   7: 12.01   8: 12.01
   9: 12.01  10: 12.01  11: 12.01  12: 12.01  13: 12.01  14: 12.01  15: 12.01
 IR intensities (amu)
   1:  0.04   2:  0.04   3:  0.02   4:  0.03   5:  0.03   6:  0.04   7:  0.49   8:  0.20
   9:  0.95  10:  0.00  11:  0.21  12:  1.09  13:  1.56  14:  0.89  15:  0.40
 Raman intensities (amu)
   1:  0.00   2:  0.00   3:  0.00   4:  0.00   5:  0.00   6:  0.00   7:  0.00   8:  0.00
   9:  0.00  10:  0.00  11:  0.00  12:  0.00  13:  0.00  14:  0.00  15:  0.00
 output can be read by thermo (or use thermo option).
 writing <g98.out> molden fake output.
 recommended (thermochemical) frequency scaling factor: 1.0
           -------------------------------------------------
          |             Thermodynamic Functions             |
           -------------------------------------------------

c2  symmetry found (for desy threshold:  0.10E+00) used in thermo

          ...................................................
          :                      SETUP                      :
          :.................................................:
          :  # frequencies                           8      :
          :  # imaginary freq.                       1      :
          :  linear?                             false      :
          :  only rotor calc.                    false      :
          :  symmetry                               c2      :
          :  rotational number                       2      :
          :  scaling factor                  1.0000000      :
          :  rotor cutoff                   50.0000000 cm⁻¹ :
          :  imag. cutoff                  -20.0000000 cm⁻¹ :
          :.................................................:

    mode    ω/cm⁻¹     T·S(HO)/kcal·mol⁻¹    T·S(FR)/kcal·mol⁻¹   T·S(vib)
   ------------------------------------------------------------------------
   ------------------------------------------------------------------------

   temp. (K)  partition function   enthalpy   heat capacity  entropy
                                   cal/mol     cal/K/mol   cal/K/mol   J/K/mol
 298.15  VIB   1.26                  414.378      4.667      1.844
         ROT  0.114E+05              888.752      2.981     21.542
         INT  0.143E+05             1303.130      7.648     23.386
         TR   0.450E+27             1481.254      4.968     38.181
         TOT                        2784.3838    12.6160    61.5664   257.5938

   temp. (K)  partition function   enthalpy   heat capacity  entropy
                                   cal/mol     cal/K/mol   cal/K/mol   J/K/mol
 120.00  VIB   1.00                    6.128      0.327      0.059
         ROT  0.291E+04              357.707      2.981     18.829
         INT  0.292E+04              363.835      3.308     18.888
         TR   0.115E+27              596.178      4.968     33.661
         TOT                         960.0129     8.2759    52.5497   219.8680

   temp. (K)  partition function   enthalpy   heat capacity  entropy
                                   cal/mol     cal/K/mol   cal/K/mol   J/K/mol
 100.00  VIB   1.00                    1.734      0.130      0.020
         ROT  0.221E+04              298.089      2.981     18.286
         INT  0.221E+04              299.823      3.111     18.305
         TR   0.875E+26              496.815      4.968     32.756
         TOT                         796.6376     8.0789    51.0613   213.6405

   temp. (K)  partition function   enthalpy   heat capacity  entropy
                                   cal/mol     cal/K/mol   cal/K/mol   J/K/mol
  80.00  VIB   1.00                    0.273      0.031      0.004
         ROT  0.158E+04              238.471      2.981     17.620
         INT  0.158E+04              238.744      3.012     17.624
         TR   0.626E+26              397.452      4.968     31.648
         TOT                         636.1957     7.9803    49.2721   206.1546

   temp. (K)  partition function   enthalpy   heat capacity  entropy
                                   cal/mol     cal/K/mol   cal/K/mol   J/K/mol
  60.00  VIB   1.00                    0.013      0.003      0.000
         ROT  0.103E+04              178.853      2.981     16.763
         INT  0.103E+04              178.867      2.984     16.763
         TR   0.406E+26              298.089      4.968     30.219
         TOT                         476.9557     7.9517    46.9824   196.5745

   temp. (K)  partition function   enthalpy   heat capacity  entropy
                                   cal/mol     cal/K/mol   cal/K/mol   J/K/mol
  40.00  VIB   1.00                    0.000      0.000     -0.000
         ROT   559.                  119.236      2.981     15.554
         INT   559.                  119.236      2.981     15.554
         TR   0.221E+26              198.726      4.968     28.206
         TOT                         317.9616     7.9491    43.7600   183.0920

   temp. (K)  partition function   enthalpy   heat capacity  entropy
                                   cal/mol     cal/K/mol   cal/K/mol   J/K/mol
  20.00  VIB   1.00                    0.000      0.000     -0.000
         ROT   198.                   59.618      2.981     13.488
         INT   198.                   59.618      2.981     13.488
         TR   0.782E+25               99.363      4.968     24.764
         TOT                         158.9808     7.9490    38.2517   160.0452

   temp. (K)  partition function   enthalpy   heat capacity  entropy
                                   cal/mol     cal/K/mol   cal/K/mol   J/K/mol
  10.00  VIB   1.00                    0.000      0.000     -0.000
         ROT   69.9                   29.809      2.981     11.422
         INT   69.9                   29.809      2.981     11.421
         TR   0.277E+25               49.681      4.968     21.322
         TOT                          79.4904     7.9490    32.7434   136.9983

       T/K    H(0)-H(T)+PV         H(T)/Eh          T*S/Eh         G(T)/Eh
   ------------------------------------------------------------------------
    298.15    0.443720E-02    0.213556E-01    0.292522E-01   -0.789653E-02
    120.00    0.152988E-02    0.184483E-01    0.100492E-01    0.839913E-02
    100.00    0.126952E-02    0.181880E-01    0.813714E-02    0.100508E-01
     80.00    0.101384E-02    0.179323E-01    0.628161E-02    0.116507E-01
     60.00    0.760077E-03    0.176785E-01    0.449228E-02    0.131863E-01
     40.00    0.506704E-03    0.174252E-01    0.278944E-02    0.146357E-01
     20.00    0.253352E-03    0.171718E-01    0.121916E-02    0.159526E-01
     10.00    0.126676E-03    0.170451E-01    0.521799E-03    0.165233E-01 (used)
   ------------------------------------------------------------------------

         :::::::::::::::::::::::::::::::::::::::::::::::::::::
         ::                  THERMODYNAMIC                  ::
         :::::::::::::::::::::::::::::::::::::::::::::::::::::
         :: total free energy         -10.157480168848 Eh   ::
         ::.................................................::
         :: total energy              -10.174003496876 Eh   ::
         :: zero point energy           0.016918451119 Eh   ::
         :: G(RRHO) w/o ZPVE           -0.000395123090 Eh   ::
         :: G(RRHO) contrib.            0.016523328028 Eh   ::
         :::::::::::::::::::::::::::::::::::::::::::::::::::::
imag cut-off (cm-1) :    5.00
 found            1  significant imaginary frequency
 writing imag mode distorted coords to xtbhess.xyz
 for further optimization.

optimized geometry written to: xtbopt.xyz


           -------------------------------------------------
          | TOTAL ENERGY              -10.174003496876 Eh   |
          | TOTAL ENTHALPY            -10.156958369742 Eh   |
          | TOTAL FREE ENERGY         -10.157480168848 Eh   |
          | GRADIENT NORM               0.000099921200 Eh/α |
          | HOMO-LUMO GAP               1.669746210127 eV   |
           -------------------------------------------------

------------------------------------------------------------------------
 * finished run on 2020/05/12 at 11:44:39.670     
------------------------------------------------------------------------
 total:
 * wall-time:     0 d,  0 h,  0 min,  0.217 sec
 *  cpu-time:     0 d,  0 h,  0 min,  0.216 sec
 * ratio c/w:     0.998 speedup
 SCF:
 * wall-time:     0 d,  0 h,  0 min,  0.007 sec
 *  cpu-time:     0 d,  0 h,  0 min,  0.007 sec
 * ratio c/w:     1.000 speedup
 ANC optimizer:
 * wall-time:     0 d,  0 h,  0 min,  0.082 sec
 *  cpu-time:     0 d,  0 h,  0 min,  0.082 sec
 * ratio c/w:     0.999 speedup
 numerical hessian:
 * wall-time:     0 d,  0 h,  0 min,  0.111 sec
 *  cpu-time:     0 d,  0 h,  0 min,  0.111 sec
 * ratio c/w:     0.999 speedup

