3
 energy: -7.297194270884 gnorm: 0.162955028625 xtb: 6.2.2 (9d81278992624c895f80dd42a50cac0aa55982e2)
O         1.03966600000000   -0.18634600000000    0.00000000000000
N        -0.14887200000000    0.46072000000000    0.00000000000000
H        -0.89079400000000   -0.27437400000000    0.00000000000000
3
 energy: -7.312464180258 gnorm: 0.065601027679 xtb: 6.2.2 (9d81278992624c895f80dd42a50cac0aa55982e2)
O         1.00947838964230   -0.15900645653515    0.00000000000000
N        -0.11744276155041    0.41714155720836    0.00000000000000
H        -0.89203562809188   -0.25813510067321    0.00000000000000
3
 energy: -7.315540262624 gnorm: 0.045281767524 xtb: 6.2.2 (9d81278992624c895f80dd42a50cac0aa55982e2)
O         1.01463478024722   -0.12724707547223    0.00000000000000
N        -0.09075203711590    0.36156143338524    0.00000000000000
H        -0.92388274313132   -0.23431435791302    0.00000000000000
3
 energy: -7.316321741967 gnorm: 0.006456542586 xtb: 6.2.2 (9d81278992624c895f80dd42a50cac0aa55982e2)
O         1.03400109705207   -0.12559076841707    0.00000000000000
N        -0.09692039779306    0.35343796312068    0.00000000000000
H        -0.93708069925902   -0.22784719470361    0.00000000000000
3
 energy: -7.316371998032 gnorm: 0.002215186430 xtb: 6.2.2 (9d81278992624c895f80dd42a50cac0aa55982e2)
O         1.03783477691294   -0.12292343206188    0.00000000000000
N        -0.09736929942546    0.34650771996033    0.00000000000000
H        -0.94046547748748   -0.22358428789845    0.00000000000000
3
 energy: -7.316376638272 gnorm: 0.000197131575 xtb: 6.2.2 (9d81278992624c895f80dd42a50cac0aa55982e2)
O         1.03834621124653   -0.12212083512114    0.00000000000000
N        -0.09759904724378    0.34425243302793    0.00000000000000
H        -0.94074716400275   -0.22213159790679    0.00000000000000
