$hessian                                                                        
        0.6835713299  -0.2525720186  -0.0000019453  -0.6351328464   0.2472805339
        0.0000017855  -0.0484384835   0.0052914847   0.0000001598
       -0.2525720186   0.1187951043   0.0000006743   0.2587234846  -0.1350033981
       -0.0000006675  -0.0061514660   0.0162082938  -0.0000000068
       -0.0000019453   0.0000006743   0.0000000000   0.0000017655  -0.0000006276
       -0.0000000000   0.0000001798  -0.0000000468  -0.0000000000
       -0.6351328464   0.2587234846   0.0000017655   0.8661798957  -0.1007707558
       -0.0000028477  -0.2310470493  -0.1579527288   0.0000010822
        0.2472805339  -0.1350033981  -0.0000006276  -0.1007707558   0.2785242845
       -0.0000001344  -0.1465097782  -0.1435208864   0.0000007619
        0.0000017855  -0.0000006675  -0.0000000000  -0.0000028477  -0.0000001344
        0.0000000000   0.0000010622   0.0000008018  -0.0000000000
       -0.0484384835  -0.0061514660   0.0000001798  -0.2310470493  -0.1465097782
        0.0000010622   0.2794855328   0.1526612442  -0.0000012420
        0.0052914847   0.0162082938  -0.0000000468  -0.1579527288  -0.1435208864
        0.0000008018   0.1526612442   0.1273125926  -0.0000007551
        0.0000001598  -0.0000000068  -0.0000000000   0.0000010822   0.0000007619
       -0.0000000000  -0.0000012420  -0.0000007551   0.0000000000
