[Molden Format]
[Title]
[Atoms] AU
O      1     8  0.19621885713750E+01 -0.23078518507641E+00 -0.64465562381710E-05
N      2     7 -0.18443204596966E+00  0.65054372149344E+00 -0.49161012169705E-06
H      3     1 -0.17777565254053E+01 -0.41975853641703E+00  0.69381663598680E-05
[GTO]
           1 0
 s           4   1.0000000000000000     
   69.137961906196551      -0.20478756370077797     
   11.906129132707308      -0.24997023136827334     
  0.95670827744340703       0.40025880240639616     
  0.36462520496073686       0.15952206667693555     
 p           4   1.0000000000000000     
   8.2124193257781641        1.1321556799186829     
   2.1293576997098116        1.0476840782254817     
  0.75066448202360914       0.54956508217158984     
  0.29885246543283073        8.2908486592766617E-002

           2 0
 s           4   1.0000000000000000     
   63.594024466941008      -0.19234388414721629     
   10.951417231523665      -0.23478107924953728     
  0.87999310257376984       0.37593753901700888     
  0.33538715296521110       0.14982889271862770     
 p           4   1.0000000000000000     
   7.2965040481495080       0.97658666315667420     
   1.8918745450712575       0.90372226730345739     
  0.66694432110824120       0.47404958461536373     
  0.26552202674130870        7.1516067715011844E-002

           3 0
 s           3   1.0000000000000000     
   3.3702276975336001       0.27359110588908298     
  0.61389118221497996       0.26460540653860526     
  0.16614291148415999        8.2465947534082318E-002

[MO]
Sym=     1a
Ene=  -0.74721425723909152     
Spin= Alpha
Occup=     2.00000000
           1  0.63661961606873652     
           2 -0.22483700174303292     
           3   7.7998348995328828E-002
           4   6.7821720930049710E-007
           5  0.35231987382432162     
           6  0.25099470779083077     
           7 -0.12086377686027140     
           8  -6.6273590718752732E-007
           9   2.9077756651460462E-002
Sym=     2a
Ene=  -0.64592017652821410     
Spin= Alpha
Occup=     2.00000000
           1 -0.55961439064443019     
           2 -0.39886308959346350     
           3   5.7356386254665381E-002
           4   1.2402427053870244E-006
           5  0.50121339523277320     
           6 -0.16563610234385504     
           7  -9.0408177360744024E-002
           8   7.1586838010189083E-007
           9  0.26036863283506501     
Sym=     3a
Ene=  -0.59397208634652177     
Spin= Alpha
Occup=     2.00000000
           1  0.30317433590945680     
           2  0.16303984736986268     
           3 -0.57458979319280390     
           4   5.7151753272651987E-007
           5  -8.0178187834576864E-002
           6 -0.36047117224711761     
           7 -0.36898439369202218     
           8   2.0092007838086096E-006
           9  0.27974488222139032     
Sym=     4a
Ene=  -0.57196423264439011     
Spin= Alpha
Occup=     2.00000000
           1   8.7936186588316713E-008
           2  -2.4883795574211855E-006
           3  -1.3909042005785628E-006
           4 -0.72074287153884131     
           5  -4.6307936592471316E-008
           6  -2.0295191514065745E-006
           7  -1.0878620052017246E-006
           8 -0.57411274160425163     
           9   3.0825150015544803E-008
Sym=     5a
Ene=  -0.54425714027319128     
Spin= Alpha
Occup=     2.00000000
           1 -0.24003987266823396     
           2 -0.54727110589011552     
           3 -0.31349688516787627     
           4   2.4826738299092930E-006
           5 -0.35080984226436579     
           6  0.32168036116021437     
           7 -0.41084010622148454     
           8  -3.6552423317206771E-007
           9 -0.23293724571155205     
Sym=     6a
Ene=  -0.39288729880047318     
Spin= Alpha
Occup=     1.00000000
           1  -2.9797482695860120E-002
           2  0.16526857082722984     
           3  0.71369322244615929     
           4  -1.8554316788266789E-006
           5 -0.38469477258126644     
           6   4.9112033789508436E-004
           7 -0.64435938890630240     
           8   1.1536486553554695E-006
           9  0.29489871317466709     
Sym=     7a
Ene=  -0.35107709481545119     
Spin= Alpha
Occup=     1.00000000
           1   2.2452215422771562E-008
           2  -2.4984330165333881E-006
           3  -1.2771173602258218E-006
           4 -0.71758792631724133     
           5   2.3822224705689891E-008
           6   2.9283953568399948E-006
           7   1.4916309369065087E-006
           8  0.83952205378886768     
           9  -1.9103990386089771E-008
Sym=     8a
Ene=    5.8744898646944869E-002
Spin= Alpha
Occup=     0.00000000
           1 -0.21144727748572892     
           2  0.44820905029667218     
           3   4.9132576672376036E-003
           4  -1.5678102575773665E-006
           5  0.86975856833582765     
           6 -0.24068080738170794     
           7 -0.63732002367893525     
           8   1.9468256547686966E-006
           9 -0.99592066974583926     
Sym=     9a
Ene=   0.29114856719144550     
Spin= Alpha
Occup=     0.00000000
           1  0.61703791203797786     
           2 -0.73474315615201435     
           3  0.36719103734665615     
           4   1.9174603532420586E-006
           5 -0.30450875893228352     
           6  -1.0872591631351061     
           7  0.10832867444070340     
           8   3.5993974544924841E-006
           9 -0.54405642788148212     
